 Gaussian 16, Revision A.03,
 Gaussian 16:  EM64L-G16RevA.03 25-Dec-2016

 ---------------------------------------
 #p wb97xd/cc-pvdz sp scf=(maxcycles=20)
 ---------------------------------------

 ------------------
 Base pair stacking
 ------------------
 Symbolic Z-matrix:
 Charge =  0 Multiplicity = 1

                         Standard orientation:
 ---------------------------------------------------------------------
 Center     Atomic      Atomic             Coordinates (Angstroms)
 Number     Number       Type             X           Y           Z
 ---------------------------------------------------------------------
      1          7           0        6.808873   -0.760507   -0.350152
      2          6           0        8.073469   -0.000386   -0.382171
      3          6           0        4.691667   -1.334839   -0.507987
      4          7           0        5.367073   -2.461266   -0.061072
      5          6           0        6.615577   -2.070165    0.016135
      6          1           0        7.444394   -2.701740    0.337242
      7          7           0        2.993827    0.139199   -1.220360
      8          6           0        3.953664    1.061004   -1.349083
      9          1           0        3.617604    2.036778   -1.697216
     10          7           0        5.260172    0.958904   -1.113453
     11          6           0        5.567171   -0.278595   -0.690637
     12          6           0        3.334920   -1.096101   -0.792866
     13          7           0        2.378203   -2.017616   -0.663727
     14          1           0        2.585043   -2.945138   -0.350463
     15          1           0        1.422621   -1.812399   -0.875598
     16          1           0        8.714049   -0.442750   -1.009966
     17          1           0        7.894588    0.932721   -0.692741
     18          1           0        8.472287    0.025914    0.534479
     19          7           0        3.261392    1.462981    1.426666
     20          6           0        1.922134    1.591036    1.147272
     21          6           0        4.311518    2.423046    1.031431
     22          7           0       -0.695211    3.369461   -0.283967
     23          1           0       -1.685596    3.274497   -0.380717
     24          1           0       -0.275462    4.181606   -0.690112
     25          7           0        1.345153    2.607257    0.470191
     26          6           0        0.037913    2.449591    0.361219
     27          7           0       -0.653325    1.379331    0.875276
     28          1           0       -1.652485    1.341489    0.744094
     29          6           0       -0.080234    0.322311    1.575387
     30          8           0       -0.794216   -0.595625    1.997717
     31          6           0        1.323718    0.477667    1.700524
     32          7           0        2.268273   -0.333060    2.314880
     33          6           0        3.400123    0.289843    2.127479
     34          1           0        4.369386   -0.063681    2.480788
     35          1           0        4.981480    1.965282    0.447982
     36          1           0        3.895971    3.180211    0.529151
     37          1           0        4.766974    2.776225    1.847905
     38          1           0       -6.496294    1.420139   -0.799932
     39          1           0       -6.786128    2.042780    0.822713
     40          1           0       -5.269052    2.403916   -0.001541
     41          1           0       -6.258204   -2.646559    1.759736
     42          6           0       -5.642237   -1.775604    1.535560
     43          8           0       -3.626521   -2.779808    2.280937
     44          6           0       -4.237572   -1.823419    1.804800
     45          1           0       -2.556613   -0.665015    1.660551
     46          7           0       -3.551464   -0.669331    1.484517
     47          8           0       -3.383336    1.454948    0.699417
     48          6           0       -4.072858    0.481991    0.949594
     49          1           0       -7.242410   -0.579552    0.790780
     50          6           0       -6.179917   -0.666774    1.014038
     51          6           0       -6.036152    1.658607    0.147421
     52          7           0       -5.434044    0.450677    0.718481
     53          1           0       -4.351902    2.311205   -3.221604
     54          1           0       -3.222070    2.703382   -2.111747
     55          1           0       -4.765740    2.445182   -1.648639
     56          1           0       -0.825903   -3.800835   -0.924674
     57          1           0       -2.475657   -3.794468   -1.358703
     58          7           0       -1.637609   -3.276791   -1.182874
     59          6           0       -1.605021   -1.946759   -1.288302
     60          6           0       -2.528468    0.204210   -1.715300
     61          7           0       -1.388993    0.873094   -1.473223
     62          1           0        0.550120    0.490523   -0.930915
     63          6           0       -0.413062    0.029067   -1.144447
     64          7           0       -0.443724   -1.303362   -1.038303
     65          1           0       -5.638094   -0.209919   -2.496888
     66          6           0       -4.593872   -0.340291   -2.211337
     67          7           0       -4.027777   -1.496060   -1.963526
     68          6           0       -2.718013   -1.165114   -1.647749
     69          6           0       -4.045040    2.162097   -2.281603
     70          7           0       -3.744658    0.731311   -2.080040
 ---------------------------------------------------------------------

 SCF Done:  E(RwB97XD) =  -2048.70433381     A.U. after   15 cycles

 The electronic state is 1-A.
 Alpha  occ. eigenvalues --  -19.26077 -19.21965 -19.20444 -14.52763 -14.51428
 Alpha  occ. eigenvalues --  -14.50224 -14.47972 -14.47953 -14.46917 -14.46162
 Alpha  occ. eigenvalues --  -14.46014 -14.44350 -14.43344 -14.43236 -14.42829
 Alpha  occ. eigenvalues --  -14.42766 -14.42304 -14.41771 -14.41442 -14.40444
 Alpha  occ. eigenvalues --  -10.45689 -10.40645 -10.40065 -10.38764 -10.37893
 Alpha  occ. eigenvalues --  -10.37760 -10.37070 -10.36722 -10.36243 -10.36089
 Alpha  occ. eigenvalues --  -10.35476 -10.34956 -10.34855 -10.34377 -10.33893
 Alpha  occ. eigenvalues --  -10.33433 -10.32901 -10.32212 -10.31393 -10.31102
 Alpha  occ. eigenvalues --  -10.30022 -10.28453 -10.27762  -1.19786  -1.14196
 Alpha  occ. eigenvalues --   -1.13032  -1.13004  -1.12832  -1.10189  -1.09615
 Alpha  occ. eigenvalues --   -1.08343  -1.08037  -1.06447  -1.03714  -1.02637
 Alpha  occ. eigenvalues --   -1.01960  -0.99983  -0.99276  -0.98349  -0.98227
 Alpha  occ. eigenvalues --   -0.96011  -0.95682  -0.94110  -0.91197  -0.86832
 Alpha  occ. eigenvalues --   -0.85474  -0.85379  -0.84222  -0.83691  -0.83524
 Alpha  occ. eigenvalues --   -0.81401  -0.79038  -0.76125  -0.74396  -0.74140
 Alpha  occ. eigenvalues --   -0.73885  -0.73548  -0.73251  -0.72532  -0.69529
 Alpha  occ. eigenvalues --   -0.67711  -0.67040  -0.66650  -0.65896  -0.64740
 Alpha  occ. eigenvalues --   -0.64170  -0.63370  -0.63270  -0.62582  -0.61505
 Alpha  occ. eigenvalues --   -0.61479  -0.61273  -0.59926  -0.59643  -0.58898
 Alpha  occ. eigenvalues --   -0.58189  -0.57971  -0.57823  -0.57780  -0.56782
 Alpha  occ. eigenvalues --   -0.56533  -0.56022  -0.55566  -0.54730  -0.54457
 Alpha  occ. eigenvalues --   -0.54344  -0.53374  -0.53269  -0.53023  -0.52397
 Alpha  occ. eigenvalues --   -0.52253  -0.51864  -0.51644  -0.51605  -0.51017
 Alpha  occ. eigenvalues --   -0.50350  -0.49795  -0.49524  -0.48792  -0.48551
 Alpha  occ. eigenvalues --   -0.48517  -0.48217  -0.48056  -0.47909  -0.47418
 Alpha  occ. eigenvalues --   -0.47158  -0.45826  -0.45526  -0.44311  -0.43055
 Alpha  occ. eigenvalues --   -0.41436  -0.40193  -0.39659  -0.38670  -0.37221
 Alpha  occ. eigenvalues --   -0.37041  -0.36961  -0.36334  -0.35408  -0.35048
 Alpha  occ. eigenvalues --   -0.34771  -0.34164  -0.33531  -0.33246  -0.33101
 Alpha  occ. eigenvalues --   -0.32580  -0.32450  -0.31843  -0.31790  -0.31605
 Alpha  occ. eigenvalues --   -0.31320  -0.28158  -0.26836  -0.25061
 Alpha virt. eigenvalues --    0.03017   0.04881   0.06250   0.08096   0.08341
 Alpha virt. eigenvalues --    0.09062   0.09641   0.10238   0.11209   0.11907
 Alpha virt. eigenvalues --    0.12495   0.13104   0.14529   0.14688   0.15066

 Mulliken charges:
               1
     1  N   -0.313085
     2  C    0.179632
     3  C    0.052316
     4  N   -0.254501
     5  C    0.132200
     6  H    0.030986
     7  N   -0.258639
     8  C    0.118490
     9  H    0.022977
    10  N   -0.297727
    11  C    0.240792
    12  C    0.090456
    13  N   -0.041124
    14  H    0.107805
    15  H    0.088147
    16  H    0.029926
    17  H    0.036354
    18  H    0.027139
    19  N   -0.291282
    20  C    0.238534
    21  C    0.190187
    22  N   -0.085785
    23  H    0.109681
    24  H    0.111340
    25  N   -0.285921
    26  C    0.196035
    27  N   -0.121126
    28  H    0.127963
    29  C    0.136529
    30  O   -0.323909
    31  C    0.017528
    32  N   -0.224003
    33  C    0.113548
    34  H    0.022866
    35  H    0.020254
    36  H    0.019006
    37  H    0.010687
    38  H    0.044050
    39  H    0.065527
    40  H    0.088776
    41  H    0.031552
    42  C   -0.093738
    43  O   -0.265078
    44  C    0.183773
    45  H    0.132773
    46  N   -0.123638
    47  O   -0.344483
    48  C    0.340195
    49  H    0.044699
    50  C    0.165524
    51  C    0.035209
    52  N   -0.279520
    53  H    0.031783
    54  H    0.025191
    55  H   -0.015947
    56  H    0.118211
    57  H    0.120961
    58  N   -0.065987
    59  C    0.133274
    60  C    0.215747
    61  N   -0.293121
    62  H    0.034153
    63  C    0.181910
    64  N   -0.307337
    65  H    0.028261
    66  C    0.110338
    67  N   -0.248698
    68  C    0.021762
    69  C    0.197329
    70  N   -0.287729
 Sum of Mulliken charges =  -0.00000

 Dipole moment (field-independent basis, Debye):
    X=             -4.4403    Y=              5.4656    Z=             -4.9183  Tot=              8.5894
 Quadrupole moment (field-independent basis, Debye-Ang):
   XX=           -139.4698   YY=           -228.0931   ZZ=           -260.5751
   XY=            -18.0563   XZ=             15.8813   YZ=              6.5862

 Normal termination of Gaussian 16 at Fri Jan 19 00:45:36 2018.
