 Gaussian 16, Revision A.03,
 Gaussian 16:  EM64L-G16RevA.03 25-Dec-2016

 ---------------------------------------
 #p wb97xd/cc-pvdz sp scf=(maxcycles=20)
 ---------------------------------------

 ------------------
 Base pair stacking
 ------------------
 Symbolic Z-matrix:
 Charge =  0 Multiplicity = 1

                         Standard orientation:
 ---------------------------------------------------------------------
 Center     Atomic      Atomic             Coordinates (Angstroms)
 Number     Number       Type             X           Y           Z
 ---------------------------------------------------------------------
      1          7           0       -7.111601   -0.736468    0.211683
      2          6           0       -8.383540   -0.011189    0.396432
      3          6           0       -4.990789   -1.316814    0.263396
      4          7           0       -5.651032   -2.320654   -0.430226
      5          6           0       -6.902322   -1.930843   -0.433618
      6          1           0       -7.721889   -2.481158   -0.896647
      7          7           0       -3.314142   -0.025825    1.305108
      8          6           0       -4.283854    0.837757    1.623643
      9          1           0       -3.960495    1.714266    2.183476
     10          7           0       -5.586902    0.781428    1.355705
     11          6           0       -5.877978   -0.333516    0.665324
     12          6           0       -3.639274   -1.137836    0.610256
     13          7           0       -2.672691   -2.001070    0.291351
     14          1           0       -2.867630   -2.837377   -0.222256
     15          1           0       -1.721262   -1.841355    0.554819
     16          1           0       -9.026227   -0.586251    0.902812
     17          1           0       -8.216580    0.830965    0.908328
     18          1           0       -8.773335    0.215080   -0.496238
     19          7           0       -2.903176    1.738174   -1.457943
     20          6           0       -1.563781    1.827169   -1.164394
     21          6           0       -3.922693    2.747571   -1.108090
     22          7           0        1.098098    3.556171    0.245108
     23          1           0        2.083090    3.428972    0.358448
     24          1           0        0.702987    4.395583    0.619251
     25          7           0       -0.958908    2.843499   -0.512285
     26          6           0        0.340278    2.642704   -0.380358
     27          7           0        0.998671    1.532249   -0.850378
     28          1           0        1.994073    1.462902   -0.704325
     29          6           0        0.396502    0.474278   -1.524141
     30          8           0        1.081995   -0.481863   -1.907050
     31          6           0       -0.999208    0.675698   -1.673475
     32          7           0       -1.964727   -0.120172   -2.274537
     33          6           0       -3.075512    0.548636   -2.122732
     34          1           0       -4.052433    0.218790   -2.477850
     35          1           0       -4.616108    2.333297   -0.519570
     36          1           0       -3.486326    3.505263   -0.624614
     37          1           0       -4.354732    3.090161   -1.941623
     38          1           0        6.817733    1.418006    0.902856
     39          1           0        7.150361    1.976878   -0.734726
     40          1           0        5.637107    2.418707    0.056627
     41          1           0        6.464595   -2.718464   -1.528481
     42          6           0        5.877838   -1.819191   -1.340764
     43          8           0        3.836583   -2.774183   -2.081301
     44          6           0        4.475872   -1.825346   -1.627636
     45          1           0        2.836333   -0.603391   -1.543632
     46          7           0        3.828068   -0.637633   -1.353876
     47          8           0        3.727207    1.515658   -0.639498
     48          6           0        4.384098    0.511025   -0.848933
     49          1           0        7.510822   -0.657698   -0.612684
     50          6           0        6.448761   -0.713989   -0.847618
     51          6           0        6.378503    1.641942   -0.057871
     52          7           0        5.740231    0.438468   -0.598232
     53          1           0        3.990320    1.698890    3.825524
     54          1           0        2.868075    2.319690    2.816927
     55          1           0        4.418703    2.181391    2.326496
     56          1           0        0.545258   -3.775467    0.188436
     57          1           0        2.190422   -3.854129    0.632672
     58          7           0        1.349355   -3.316167    0.566064
     59          6           0        1.303204   -2.042935    0.963460
     60          6           0        2.202038   -0.033975    1.867838
     61          7           0        1.058819    0.664038    1.766598
     62          1           0       -0.871049    0.397881    1.129901
     63          6           0        0.094233   -0.092754    1.247225
     64          7           0        0.138481   -1.368174    0.848581
     65          1           0        5.307397   -0.589623    2.575066
     66          6           0        4.267373   -0.660616    2.255309
     67          7           0        3.714698   -1.736498    1.750620
     68          6           0        2.405123   -1.352826    1.500530
     69          6           0        3.694363    1.759939    2.872283
     70          7           0        3.409488    0.407486    2.354858
 ---------------------------------------------------------------------

 SCF Done:  E(RwB97XD) =  -2048.74672907     A.U. after   15 cycles

 The electronic state is 1-A.
 Alpha  occ. eigenvalues --  -19.26120 -19.21958 -19.20569 -14.52663 -14.51140
 Alpha  occ. eigenvalues --  -14.50031 -14.48354 -14.47847 -14.46564 -14.46561
 Alpha  occ. eigenvalues --  -14.46185 -14.44027 -14.43107 -14.42722 -14.42684
 Alpha  occ. eigenvalues --  -14.42587 -14.42215 -14.41915 -14.41311 -14.40629
 Alpha  occ. eigenvalues --  -10.45671 -10.41013 -10.40055 -10.38199 -10.38140
 Alpha  occ. eigenvalues --  -10.37704 -10.36691 -10.36578 -10.36015 -10.35691
 Alpha  occ. eigenvalues --  -10.35351 -10.34692 -10.34303 -10.34266 -10.34152
 Alpha  occ. eigenvalues --  -10.33229 -10.33019 -10.31987 -10.31058 -10.31057
 Alpha  occ. eigenvalues --  -10.29984 -10.29864 -10.27968  -1.19674  -1.13817
 Alpha  occ. eigenvalues --   -1.13102  -1.12974  -1.12650  -1.10362  -1.09520
 Alpha  occ. eigenvalues --   -1.08439  -1.07548  -1.06203  -1.03101  -1.02529
 Alpha  occ. eigenvalues --   -1.01603  -0.99648  -0.99533  -0.98366  -0.98161
 Alpha  occ. eigenvalues --   -0.96249  -0.95194  -0.93805  -0.91083  -0.86302
 Alpha  occ. eigenvalues --   -0.85177  -0.84802  -0.84108  -0.83818  -0.83477
 Alpha  occ. eigenvalues --   -0.81994  -0.78948  -0.75575  -0.74425  -0.74051
 Alpha  occ. eigenvalues --   -0.73544  -0.73394  -0.73263  -0.72284  -0.68941
 Alpha  occ. eigenvalues --   -0.67460  -0.67229  -0.66615  -0.65258  -0.64487
 Alpha  occ. eigenvalues --   -0.63876  -0.63562  -0.62788  -0.62553  -0.61567
 Alpha  occ. eigenvalues --   -0.61240  -0.60526  -0.59573  -0.59159  -0.58428
 Alpha  occ. eigenvalues --   -0.58243  -0.58195  -0.57616  -0.57486  -0.56511
 Alpha  occ. eigenvalues --   -0.56300  -0.56051  -0.54672  -0.54435  -0.54165
 Alpha  occ. eigenvalues --   -0.53749  -0.53437  -0.52983  -0.52905  -0.52661
 Alpha  occ. eigenvalues --   -0.52385  -0.51991  -0.51726  -0.51487  -0.51254
 Alpha  occ. eigenvalues --   -0.50155  -0.49959  -0.49481  -0.48644  -0.48597
 Alpha  occ. eigenvalues --   -0.48421  -0.48106  -0.48094  -0.47740  -0.47700
 Alpha  occ. eigenvalues --   -0.47318  -0.46088  -0.45163  -0.44134  -0.43068
 Alpha  occ. eigenvalues --   -0.42196  -0.39659  -0.39420  -0.38414  -0.37156
 Alpha  occ. eigenvalues --   -0.37106  -0.36688  -0.35966  -0.35312  -0.34740
 Alpha  occ. eigenvalues --   -0.34683  -0.34423  -0.33188  -0.33065  -0.32913
 Alpha  occ. eigenvalues --   -0.32607  -0.32423  -0.31904  -0.31802  -0.31761
 Alpha  occ. eigenvalues --   -0.31441  -0.28122  -0.26885  -0.25329
 Alpha virt. eigenvalues --    0.03150   0.05219   0.06612   0.08162   0.08697
 Alpha virt. eigenvalues --    0.09073   0.09754   0.10049   0.10847   0.12200
 Alpha virt. eigenvalues --    0.12859   0.12961   0.14631   0.14843   0.15328

 Mulliken charges:
               1
     1  N   -0.310359
     2  C    0.180374
     3  C    0.036946
     4  N   -0.256144
     5  C    0.132130
     6  H    0.030543
     7  N   -0.269867
     8  C    0.122990
     9  H    0.021068
    10  N   -0.289490
    11  C    0.235259
    12  C    0.088615
    13  N   -0.035845
    14  H    0.107771
    15  H    0.090013
    16  H    0.028881
    17  H    0.035957
    18  H    0.026471
    19  N   -0.296172
    20  C    0.239846
    21  C    0.183954
    22  N   -0.109522
    23  H    0.110016
    24  H    0.116090
    25  N   -0.296825
    26  C    0.227185
    27  N   -0.115770
    28  H    0.119232
    29  C    0.139272
    30  O   -0.323689
    31  C    0.005314
    32  N   -0.225303
    33  C    0.117798
    34  H    0.028777
    35  H    0.021403
    36  H    0.025683
    37  H    0.020577
    38  H    0.051297
    39  H    0.065892
    40  H    0.080291
    41  H    0.031225
    42  C   -0.093108
    43  O   -0.270125
    44  C    0.187098
    45  H    0.133970
    46  N   -0.127529
    47  O   -0.349298
    48  C    0.343416
    49  H    0.045263
    50  C    0.163680
    51  C    0.033270
    52  N   -0.287950
    53  H    0.031645
    54  H    0.033338
    55  H    0.007329
    56  H    0.117035
    57  H    0.121403
    58  N   -0.058390
    59  C    0.136732
    60  C    0.226962
    61  N   -0.269488
    62  H    0.046943
    63  C    0.150450
    64  N   -0.303253
    65  H    0.023198
    66  C    0.111848
    67  N   -0.249159
    68  C    0.015833
    69  C    0.182626
    70  N   -0.295626
 Sum of Mulliken charges =  -0.00000

 Dipole moment (field-independent basis, Debye):
    X=              4.7100    Y=              5.6413    Z=              4.2487  Tot=              8.4888
 Quadrupole moment (field-independent basis, Debye-Ang):
   XX=           -138.1636   YY=           -227.1108   ZZ=           -256.5502
   XY=             16.7697   XZ=             21.9710   YZ=             -3.0227

 Normal termination of Gaussian 16 at Thu Jan 18 16:56:17 2018.
