 Gaussian 16, Revision A.03,
 Gaussian 16:  EM64L-G16RevA.03 25-Dec-2016

 ---------------------------------------
 #p wb97xd/cc-pvdz sp scf=(maxcycles=20)
 ---------------------------------------

 ------------------
 Base pair stacking
 ------------------
 Symbolic Z-matrix:
 Charge =  0 Multiplicity = 1

                         Standard orientation:
 ---------------------------------------------------------------------
 Center     Atomic      Atomic             Coordinates (Angstroms)
 Number     Number       Type             X           Y           Z
 ---------------------------------------------------------------------
      1          7           0        6.294774   -0.977920   -0.638172
      2          6           0        7.579542   -0.273081   -0.812976
      3          6           0        4.156017   -1.490786   -0.640449
      4          7           0        4.815351   -2.578534   -0.086547
      5          6           0        6.077478   -2.226015   -0.107346
      6          1           0        6.899735   -2.843555    0.255284
      7          7           0        2.474775   -0.053538   -1.459434
      8          6           0        3.455976    0.810956   -1.737776
      9          1           0        3.135184    1.749001   -2.188795
     10          7           0        4.767790    0.691235   -1.543542
     11          6           0        5.054777   -0.496395   -0.985334
     12          6           0        2.796077   -1.239657   -0.898209
     13          7           0        1.818025   -2.103927   -0.619622
     14          1           0        2.009742   -2.993688   -0.203927
     15          1           0        0.860848   -1.891640   -0.816827
     16          1           0        8.178103   -0.810685   -1.407026
     17          1           0        7.416037    0.621527   -1.227796
     18          1           0        8.018749   -0.150667    0.077028
     19          7           0        3.834344    1.489847    1.301723
     20          6           0        2.488025    1.637268    1.069943
     21          6           0        4.887549    2.411963    0.831460
     22          7           0       -0.146709    3.420725   -0.322612
     23          1           0       -1.141887    3.344153   -0.377405
     24          1           0        0.273273    4.208512   -0.773974
     25          7           0        1.905750    2.641201    0.379197
     26          6           0        0.592266    2.508500    0.326740
     27          7           0       -0.099974    1.472629    0.905775
     28          1           0       -1.104107    1.452093    0.814861
     29          6           0        0.478465    0.428837    1.621155
     30          8           0       -0.236987   -0.457609    2.103945
     31          6           0        1.889161    0.557669    1.686088
     32          7           0        2.840383   -0.251248    2.292505
     33          6           0        3.976510    0.339595    2.038869
     34          1           0        4.951502   -0.022336    2.366993
     35          1           0        5.524403    1.919159    0.239542
     36          1           0        4.468136    3.159742    0.318437
     37          1           0        5.382059    2.783859    1.616291
     38          1           0       -6.002479    1.582150   -0.542256
     39          1           0       -6.215148    2.268290    1.066667
     40          1           0       -4.724698    2.566499    0.171676
     41          1           0       -5.747099   -2.395235    2.152514
     42          6           0       -5.122695   -1.546539    1.873112
     43          8           0       -3.100182   -2.567630    2.575905
     44          6           0       -3.709781   -1.615581    2.089313
     45          1           0       -2.012385   -0.500228    1.838030
     46          7           0       -3.013280   -0.488947    1.700920
     47          8           0       -2.832685    1.601873    0.833145
     48          6           0       -3.531629    0.653805    1.145064
     49          1           0       -6.726132   -0.342867    1.147854
     50          6           0       -5.657656   -0.445409    1.332815
     51          6           0       -5.500480    1.843979    0.377259
     52          7           0       -4.901234    0.644180    0.968130
     53          1           0       -4.881212    2.123163   -3.417407
     54          1           0       -3.692314    2.605632   -2.409513
     55          1           0       -5.221439    2.460759   -1.857375
     56          1           0       -1.447807   -3.789505   -0.533387
     57          1           0       -3.114003   -3.776390   -0.899048
     58          7           0       -2.253529   -3.271684   -0.821171
     59          6           0       -2.184657   -1.966123   -1.089404
     60          6           0       -3.059274    0.149318   -1.738788
     61          7           0       -1.890240    0.801218   -1.625655
     62          1           0        0.058070    0.417576   -1.118175
     63          6           0       -0.927294   -0.031419   -1.235339
     64          7           0       -0.994274   -1.339337   -0.966169
     65          1           0       -6.211421   -0.244289   -2.339781
     66          6           0       -5.160199   -0.376610   -2.082172
     67          7           0       -4.619650   -1.513587   -1.717800
     68          6           0       -3.287743   -1.194156   -1.497073
     69          6           0       -4.538215    2.077687   -2.479180
     70          7           0       -4.273471    0.671843   -2.116537
 ---------------------------------------------------------------------

 SCF Done:  E(RwB97XD) =  -2048.73590496     A.U. after   15 cycles

 The electronic state is 1-A.
 Alpha  occ. eigenvalues --  -19.25554 -19.21764 -19.20512 -14.52382 -14.52066
 Alpha  occ. eigenvalues --  -14.49887 -14.48327 -14.47589 -14.47280 -14.46601
 Alpha  occ. eigenvalues --  -14.46311 -14.44977 -14.43662 -14.43571 -14.43098
 Alpha  occ. eigenvalues --  -14.42381 -14.41816 -14.41731 -14.41015 -14.40504
 Alpha  occ. eigenvalues --  -10.45240 -10.40928 -10.39846 -10.39226 -10.38009
 Alpha  occ. eigenvalues --  -10.37522 -10.37497 -10.36636 -10.36336 -10.35717
 Alpha  occ. eigenvalues --  -10.35109 -10.35049 -10.34321 -10.33956 -10.33836
 Alpha  occ. eigenvalues --  -10.33695 -10.33036 -10.32097 -10.32060 -10.30704
 Alpha  occ. eigenvalues --  -10.29704 -10.29500 -10.27747  -1.19311  -1.14763
 Alpha  occ. eigenvalues --   -1.13028  -1.12770  -1.12406  -1.10294  -1.09253
 Alpha  occ. eigenvalues --   -1.08531  -1.08330  -1.05928  -1.04094  -1.02333
 Alpha  occ. eigenvalues --   -1.01412  -1.00529  -0.99438  -0.98290  -0.97976
 Alpha  occ. eigenvalues --   -0.96164  -0.96147  -0.93590  -0.90832  -0.87313
 Alpha  occ. eigenvalues --   -0.85757  -0.84965  -0.83891  -0.83673  -0.83325
 Alpha  occ. eigenvalues --   -0.81818  -0.78702  -0.76514  -0.74443  -0.74194
 Alpha  occ. eigenvalues --   -0.73843  -0.73401  -0.73199  -0.71994  -0.69907
 Alpha  occ. eigenvalues --   -0.67274  -0.67077  -0.66442  -0.66180  -0.64492
 Alpha  occ. eigenvalues --   -0.63835  -0.63583  -0.63459  -0.62496  -0.61987
 Alpha  occ. eigenvalues --   -0.61448  -0.61131  -0.60140  -0.59361  -0.59138
 Alpha  occ. eigenvalues --   -0.58124  -0.57892  -0.57476  -0.57444  -0.56466
 Alpha  occ. eigenvalues --   -0.56151  -0.55843  -0.55333  -0.54858  -0.54250
 Alpha  occ. eigenvalues --   -0.54015  -0.53267  -0.53134  -0.52919  -0.52563
 Alpha  occ. eigenvalues --   -0.52446  -0.52176  -0.51648  -0.51404  -0.51083
 Alpha  occ. eigenvalues --   -0.50043  -0.49753  -0.49316  -0.49178  -0.48933
 Alpha  occ. eigenvalues --   -0.48456  -0.48398  -0.48004  -0.47855  -0.47290
 Alpha  occ. eigenvalues --   -0.47170  -0.45785  -0.45322  -0.44221  -0.43043
 Alpha  occ. eigenvalues --   -0.41948  -0.40247  -0.39268  -0.38111  -0.37312
 Alpha  occ. eigenvalues --   -0.37174  -0.37067  -0.36961  -0.35824  -0.34588
 Alpha  occ. eigenvalues --   -0.34421  -0.34118  -0.33727  -0.33587  -0.32964
 Alpha  occ. eigenvalues --   -0.32468  -0.32089  -0.31638  -0.31612  -0.31480
 Alpha  occ. eigenvalues --   -0.31275  -0.29088  -0.26732  -0.25110
 Alpha virt. eigenvalues --    0.03017   0.04784   0.06933   0.07377   0.08672
 Alpha virt. eigenvalues --    0.08953   0.09921   0.10248   0.11062   0.12117
 Alpha virt. eigenvalues --    0.13138   0.13251   0.14314   0.14471   0.14894

 Mulliken charges:
               1
     1  N   -0.310926
     2  C    0.176964
     3  C    0.058277
     4  N   -0.249449
     5  C    0.125744
     6  H    0.029085
     7  N   -0.276037
     8  C    0.135373
     9  H    0.014819
    10  N   -0.291682
    11  C    0.230178
    12  C    0.090275
    13  N   -0.041671
    14  H    0.109757
    15  H    0.090016
    16  H    0.030724
    17  H    0.040072
    18  H    0.023964
    19  N   -0.288445
    20  C    0.232214
    21  C    0.191588
    22  N   -0.107444
    23  H    0.114160
    24  H    0.115245
    25  N   -0.294970
    26  C    0.213331
    27  N   -0.142447
    28  H    0.131887
    29  C    0.161717
    30  O   -0.324066
    31  C    0.001862
    32  N   -0.221196
    33  C    0.122706
    34  H    0.020473
    35  H    0.014011
    36  H    0.026741
    37  H    0.016294
    38  H    0.036534
    39  H    0.062941
    40  H    0.075795
    41  H    0.027719
    42  C   -0.091129
    43  O   -0.268222
    44  C    0.171818
    45  H    0.133675
    46  N   -0.123579
    47  O   -0.335768
    48  C    0.330035
    49  H    0.042342
    50  C    0.168171
    51  C    0.046295
    52  N   -0.275339
    53  H    0.032303
    54  H    0.038621
    55  H    0.007411
    56  H    0.121672
    57  H    0.120281
    58  N   -0.056118
    59  C    0.119536
    60  C    0.212266
    61  N   -0.265766
    62  H    0.040370
    63  C    0.147966
    64  N   -0.305057
    65  H    0.035139
    66  C    0.111430
    67  N   -0.242252
    68  C    0.024824
    69  C    0.180749
    70  N   -0.293813
 Sum of Mulliken charges =  -0.00000

 Dipole moment (field-independent basis, Debye):
    X=             -4.7890    Y=              5.5955    Z=             -4.9550  Tot=              8.8767
 Quadrupole moment (field-independent basis, Debye-Ang):
   XX=           -144.2229   YY=           -225.6297   ZZ=           -262.0723
   XY=            -14.2960   XZ=             11.8248   YZ=              5.1930

 Normal termination of Gaussian 16 at Thu Jan 18 18:36:13 2018.
