 Gaussian 16, Revision A.03,
 Gaussian 16:  EM64L-G16RevA.03 25-Dec-2016

 ---------------------------------------
 #p wb97xd/cc-pvdz sp scf=(maxcycles=20)
 ---------------------------------------

 ------------------
 Base pair stacking
 ------------------
 Symbolic Z-matrix:
 Charge =  0 Multiplicity = 1

                         Standard orientation:
 ---------------------------------------------------------------------
 Center     Atomic      Atomic             Coordinates (Angstroms)
 Number     Number       Type             X           Y           Z
 ---------------------------------------------------------------------
      1          7           0       -7.062721   -0.681869    0.218534
      2          6           0       -8.318861    0.092794    0.216272
      3          6           0       -4.954862   -1.276544    0.420080
      4          7           0       -5.636259   -2.403934   -0.015131
      5          6           0       -6.878892   -2.000541   -0.119138
      6          1           0       -7.709912   -2.629040   -0.440596
      7          7           0       -3.251258    0.192206    1.129636
      8          6           0       -4.202326    1.126999    1.225596
      9          1           0       -3.860440    2.105615    1.559770
     10          7           0       -5.506193    1.034855    0.971927
     11          6           0       -5.820886   -0.207213    0.568626
     12          6           0       -3.599939   -1.047391    0.721093
     13          7           0       -2.651994   -1.981877    0.624679
     14          1           0       -2.864653   -2.913019    0.326405
     15          1           0       -1.697439   -1.783201    0.847188
     16          1           0       -8.973922   -0.329985    0.842639
     17          1           0       -8.134047    1.029761    0.511315
     18          1           0       -8.703404    0.105511   -0.706745
     19          7           0       -2.975014    1.475353   -1.462246
     20          6           0       -1.638778    1.593943   -1.164827
     21          6           0       -4.019965    2.454651   -1.101999
     22          7           0        0.976743    3.370872    0.271576
     23          1           0        1.964395    3.266795    0.385384
     24          1           0        0.560207    4.195479    0.655303
     25          7           0       -1.060537    2.616785   -0.498883
     26          6           0        0.243007    2.446724   -0.366764
     27          7           0        0.929666    1.358926   -0.849171
     28          1           0        1.926223    1.312536   -0.701919
     29          6           0        0.355200    0.294806   -1.537278
     30          8           0        1.064951   -0.639157   -1.930619
     31          6           0       -1.044826    0.463304   -1.687011
     32          7           0       -1.989171   -0.348760   -2.299919
     33          6           0       -3.116528    0.290285   -2.142130
     34          1           0       -4.084307   -0.059298   -2.503345
     35          1           0       -4.703890    2.015949   -0.520125
     36          1           0       -3.603442    3.216872   -0.608243
     37          1           0       -4.458917    2.796757   -1.932119
     38          1           0        6.746646    1.367538    0.914616
     39          1           0        7.068167    1.954878   -0.715195
     40          1           0        5.542990    2.349040    0.078426
     41          1           0        6.500868   -2.745798   -1.568667
     42          6           0        5.891581   -1.863793   -1.371011
     43          8           0        3.876039   -2.859926   -2.127601
     44          6           0        4.490719   -1.901222   -1.660848
     45          1           0        2.821132   -0.721548   -1.565089
     46          7           0        3.813076   -0.733487   -1.373703
     47          8           0        3.657383    1.407551   -0.632836
     48          6           0        4.339443    0.422253   -0.853368
     49          1           0        7.493863   -0.671233   -0.625156
     50          6           0        6.433949   -0.750979   -0.862978
     51          6           0        6.303682    1.592449   -0.044171
     52          7           0        5.696516    0.380304   -0.600772
     53          1           0        4.087653    2.321119    3.200964
     54          1           0        2.979342    2.703961    2.066417
     55          1           0        4.526811    2.419513    1.632233
     56          1           0        0.527179   -3.795220    0.969602
     57          1           0        2.170117   -3.798707    1.428756
     58          7           0        1.340819   -3.275289    1.229991
     59          6           0        1.321851   -1.943157    1.308966
     60          6           0        2.263274    0.205364    1.708124
     61          7           0        1.135334    0.882027    1.435561
     62          1           0       -0.799587    0.510498    0.871034
     63          6           0        0.154914    0.042626    1.108319
     64          7           0        0.171920   -1.291888    1.028646
     65          1           0        5.355756   -0.227956    2.545385
     66          6           0        4.314555   -0.352254    2.246395
     67          7           0        3.739100   -1.506298    2.012482
     68          6           0        2.438148   -1.167047    1.670187
     69          6           0        3.793407    2.156991    2.259429
     70          7           0        3.479749    0.725953    2.081198
 ---------------------------------------------------------------------

 SCF Done:  E(RwB97XD) =  -2048.69209460     A.U. after   15 cycles

 The electronic state is 1-A.
 Alpha  occ. eigenvalues --  -19.26197 -19.21977 -19.20416 -14.52854 -14.51207
 Alpha  occ. eigenvalues --  -14.50272 -14.47974 -14.47966 -14.46675 -14.46067
 Alpha  occ. eigenvalues --  -14.46058 -14.44166 -14.43543 -14.43095 -14.42944
 Alpha  occ. eigenvalues --  -14.42399 -14.42365 -14.41849 -14.41671 -14.40465
 Alpha  occ. eigenvalues --  -10.45799 -10.40678 -10.40088 -10.38498 -10.37900
 Alpha  occ. eigenvalues --  -10.37839 -10.36954 -10.36887 -10.36330 -10.35830
 Alpha  occ. eigenvalues --  -10.35577 -10.35034 -10.34667 -10.34539 -10.33890
 Alpha  occ. eigenvalues --  -10.33468 -10.32844 -10.32195 -10.31238 -10.31193
 Alpha  occ. eigenvalues --  -10.30144 -10.28690 -10.27816  -1.19885  -1.14044
 Alpha  occ. eigenvalues --   -1.13055  -1.13022  -1.12924  -1.10181  -1.09693
 Alpha  occ. eigenvalues --   -1.08386  -1.07835  -1.06665  -1.03521  -1.02657
 Alpha  occ. eigenvalues --   -1.02103  -0.99824  -0.99340  -0.98443  -0.98271
 Alpha  occ. eigenvalues --   -0.96083  -0.95452  -0.94269  -0.91261  -0.86623
 Alpha  occ. eigenvalues --   -0.85616  -0.85192  -0.84307  -0.83775  -0.83617
 Alpha  occ. eigenvalues --   -0.81567  -0.79103  -0.75918  -0.74574  -0.74286
 Alpha  occ. eigenvalues --   -0.73649  -0.73576  -0.73211  -0.72723  -0.69349
 Alpha  occ. eigenvalues --   -0.67854  -0.67138  -0.66713  -0.65716  -0.64692
 Alpha  occ. eigenvalues --   -0.64349  -0.63311  -0.63185  -0.62625  -0.61612
 Alpha  occ. eigenvalues --   -0.61350  -0.61153  -0.59740  -0.59637  -0.58861
 Alpha  occ. eigenvalues --   -0.58297  -0.58125  -0.58053  -0.57821  -0.56980
 Alpha  occ. eigenvalues --   -0.56622  -0.56071  -0.55456  -0.54712  -0.54364
 Alpha  occ. eigenvalues --   -0.54335  -0.53393  -0.53285  -0.53082  -0.52564
 Alpha  occ. eigenvalues --   -0.52229  -0.51971  -0.51722  -0.51569  -0.51112
 Alpha  occ. eigenvalues --   -0.50454  -0.49881  -0.49567  -0.48845  -0.48637
 Alpha  occ. eigenvalues --   -0.48459  -0.48382  -0.47945  -0.47926  -0.47514
 Alpha  occ. eigenvalues --   -0.47186  -0.46038  -0.45487  -0.44302  -0.42819
 Alpha  occ. eigenvalues --   -0.41514  -0.40080  -0.39726  -0.38845  -0.37166
 Alpha  occ. eigenvalues --   -0.37041  -0.36963  -0.35852  -0.35325  -0.35054
 Alpha  occ. eigenvalues --   -0.34947  -0.34509  -0.33380  -0.33147  -0.33080
 Alpha  occ. eigenvalues --   -0.32631  -0.32391  -0.32000  -0.31903  -0.31612
 Alpha  occ. eigenvalues --   -0.31243  -0.27649  -0.26898  -0.25186
 Alpha virt. eigenvalues --    0.03031   0.04815   0.06056   0.07925   0.08536
 Alpha virt. eigenvalues --    0.08969   0.09697   0.09987   0.11217   0.12282
 Alpha virt. eigenvalues --    0.12401   0.13216   0.14530   0.14711   0.15069

 Mulliken charges:
               1
     1  N   -0.313034
     2  C    0.180259
     3  C    0.045295
     4  N   -0.256248
     5  C    0.133694
     6  H    0.031472
     7  N   -0.256952
     8  C    0.115436
     9  H    0.026934
    10  N   -0.296625
    11  C    0.239293
    12  C    0.086212
    13  N   -0.038435
    14  H    0.107888
    15  H    0.089158
    16  H    0.029471
    17  H    0.035741
    18  H    0.027700
    19  N   -0.288528
    20  C    0.227756
    21  C    0.192659
    22  N   -0.078872
    23  H    0.104226
    24  H    0.111706
    25  N   -0.282783
    26  C    0.195251
    27  N   -0.104687
    28  H    0.122788
    29  C    0.125320
    30  O   -0.322861
    31  C    0.018862
    32  N   -0.223895
    33  C    0.111854
    34  H    0.025843
    35  H    0.021051
    36  H    0.018420
    37  H    0.012232
    38  H    0.049494
    39  H    0.066553
    40  H    0.093309
    41  H    0.032620
    42  C   -0.097820
    43  O   -0.264449
    44  C    0.187917
    45  H    0.132941
    46  N   -0.126205
    47  O   -0.348581
    48  C    0.344082
    49  H    0.045919
    50  C    0.165909
    51  C    0.028360
    52  N   -0.284587
    53  H    0.032528
    54  H    0.017486
    55  H   -0.018148
    56  H    0.116512
    57  H    0.120893
    58  N   -0.067766
    59  C    0.137096
    60  C    0.214204
    61  N   -0.283435
    62  H    0.055435
    63  C    0.158510
    64  N   -0.304161
    65  H    0.022855
    66  C    0.108416
    67  N   -0.250197
    68  C    0.024472
    69  C    0.200478
    70  N   -0.284244
 Sum of Mulliken charges =  -0.00000

 Dipole moment (field-independent basis, Debye):
    X=              4.3154    Y=              5.4914    Z=              4.8624  Tot=              8.5101
 Quadrupole moment (field-independent basis, Debye-Ang):
   XX=           -137.1941   YY=           -228.9601   ZZ=           -259.3394
   XY=             19.3696   XZ=             18.7953   YZ=             -6.6597

 Normal termination of Gaussian 16 at Fri Jan 19 01:34:19 2018.
