 Gaussian 16, Revision A.03,
 Gaussian 16:  EM64L-G16RevA.03 25-Dec-2016

 ---------------------------------------
 #p wb97xd/cc-pvdz sp scf=(maxcycles=20)
 ---------------------------------------

 ------------------
 Base pair stacking
 ------------------
 Symbolic Z-matrix:
 Charge =  0 Multiplicity = 1

                         Standard orientation:
 ---------------------------------------------------------------------
 Center     Atomic      Atomic             Coordinates (Angstroms)
 Number     Number       Type             X           Y           Z
 ---------------------------------------------------------------------
      1          7           0        4.503971   -2.408383   -0.441179
      2          6           0        5.765227   -2.463871   -1.205475
      3          6           0        2.387870   -2.194596    0.118923
      4          7           0        3.071305   -2.489549    1.289670
      5          6           0        4.318825   -2.606541    0.905366
      6          1           0        5.152705   -2.838517    1.568529
      7          7           0        0.678514   -1.688188   -1.425286
      8          6           0        1.633615   -1.670593   -2.360732
      9          1           0        1.290883   -1.451921   -3.371167
     10          7           0        2.942363   -1.881561   -2.235985
     11          6           0        3.257669   -2.141241   -0.956305
     12          6           0        1.027932   -1.952533   -0.147361
     13          7           0        0.075953   -1.970544    0.787835
     14          1           0        0.288991   -2.161744    1.746624
     15          1           0       -0.882108   -1.793634    0.562087
     16          1           0        6.171037   -3.373535   -1.116023
     17          1           0        5.580152   -2.275842   -2.169586
     18          1           0        6.402761   -1.780009   -0.850668
     19          7           0        5.623446    1.413837   -0.097027
     20          6           0        4.280592    1.668257   -0.238687
     21          6           0        6.678125    1.847647   -1.035192
     22          7           0        1.658693    3.078071   -2.027496
     23          1           0        0.665336    3.152947   -1.944591
     24          1           0        2.080961    3.507305   -2.826344
     25          7           0        3.703627    2.351792   -1.250582
     26          6           0        2.392402    2.431318   -1.109181
     27          7           0        1.697454    1.884023   -0.057984
     28          1           0        0.695386    1.994178   -0.031699
     29          6           0        2.270443    1.176639    0.994229
     30          8           0        1.552941    0.723321    1.894468
     31          6           0        3.678649    1.082867    0.856214
     32          7           0        4.624570    0.473211    1.668893
     33          6           0        5.760654    0.694822    1.065222
     34          1           0        6.732106    0.354913    1.425830
     35          1           0        7.154998    1.047129   -1.396526
     36          1           0        6.262633    2.355038   -1.788977
     37          1           0        7.329702    2.436186   -0.557817
     38          1           0       -4.316502    2.336422   -0.816874
     39          1           0       -4.192091    3.680689    0.315429
     40          1           0       -2.843170    3.304437   -0.757039
     41          1           0       -4.050177   -0.046680    3.354038
     42          6           0       -3.393055    0.477256    2.659829
     43          8           0       -1.402894   -0.457150    3.550481
     44          6           0       -1.979111    0.274183    2.745547
     45          1           0       -0.236506    0.866616    1.850743
     46          7           0       -1.239515    0.984200    1.821356
     47          8           0       -0.981756    2.423757    0.083992
     48          6           0       -1.717256    1.838638    0.859449
     49          1           0       -4.956378    1.493141    1.625523
     50          6           0       -3.888979    1.304457    1.732246
     51          6           0       -3.647408    2.885172   -0.170922
     52          7           0       -3.090664    1.982052    0.840093
     53          1           0       -6.743339   -0.390257   -3.857120
     54          1           0       -5.323860    0.411039   -3.785752
     55          1           0       -6.694434    1.131495   -3.269476
     56          1           0       -3.203280   -2.061200    2.446958
     57          1           0       -4.903083   -1.964698    2.340014
     58          7           0       -4.011685   -1.826682    1.906924
     59          6           0       -3.906767   -1.350984    0.664392
     60          6           0       -4.743085   -0.525924   -1.404802
     61          7           0       -3.532930   -0.350829   -1.960937
     62          1           0       -1.555091   -0.598946   -1.484266
     63          6           0       -2.572454   -0.709619   -1.111442
     64          7           0       -2.675493   -1.186284    0.133453
     65          1           0       -7.969925   -0.497021   -1.207649
     66          6           0       -6.900787   -0.603464   -1.021746
     67          7           0       -6.379383   -1.050791    0.094370
     68          6           0       -5.011849   -1.006769   -0.135123
     69          6           0       -6.201001    0.263684   -3.329653
     70          7           0       -5.968162   -0.267204   -1.972474
 ---------------------------------------------------------------------

 SCF Done:  E(RwB97XD) =  -2048.73527684     A.U. after   15 cycles

 The electronic state is 1-A.
 Alpha  occ. eigenvalues --  -19.25335 -19.22336 -19.20892 -14.52523 -14.51799
 Alpha  occ. eigenvalues --  -14.49475 -14.48375 -14.47722 -14.47506 -14.47141
 Alpha  occ. eigenvalues --  -14.46945 -14.45428 -14.44564 -14.44445 -14.42342
 Alpha  occ. eigenvalues --  -14.42208 -14.41601 -14.40922 -14.40608 -14.40391
 Alpha  occ. eigenvalues --  -10.44920 -10.41574 -10.40126 -10.39861 -10.38579
 Alpha  occ. eigenvalues --  -10.38035 -10.37373 -10.36659 -10.36014 -10.35391
 Alpha  occ. eigenvalues --  -10.34887 -10.34675 -10.34008 -10.33893 -10.33527
 Alpha  occ. eigenvalues --  -10.33171 -10.33087 -10.32827 -10.31626 -10.30912
 Alpha  occ. eigenvalues --  -10.30513 -10.28647 -10.28306  -1.18922  -1.15286
 Alpha  occ. eigenvalues --   -1.13565  -1.13194  -1.11152  -1.10943  -1.09511
 Alpha  occ. eigenvalues --   -1.08912  -1.08653  -1.05036  -1.04958  -1.02182
 Alpha  occ. eigenvalues --   -1.01011  -1.00348  -1.00049  -0.98954  -0.97188
 Alpha  occ. eigenvalues --   -0.97046  -0.96516  -0.92696  -0.90529  -0.87729
 Alpha  occ. eigenvalues --   -0.85933  -0.84700  -0.83687  -0.83206  -0.83021
 Alpha  occ. eigenvalues --   -0.82134  -0.78422  -0.77088  -0.75113  -0.74946
 Alpha  occ. eigenvalues --   -0.73971  -0.73017  -0.72691  -0.70917  -0.70472
 Alpha  occ. eigenvalues --   -0.67776  -0.66941  -0.66177  -0.66051  -0.64771
 Alpha  occ. eigenvalues --   -0.64362  -0.63603  -0.62921  -0.62539  -0.62158
 Alpha  occ. eigenvalues --   -0.60585  -0.60456  -0.60159  -0.59466  -0.59035
 Alpha  occ. eigenvalues --   -0.58964  -0.58639  -0.57540  -0.56412  -0.56001
 Alpha  occ. eigenvalues --   -0.55914  -0.55446  -0.55197  -0.54601  -0.54317
 Alpha  occ. eigenvalues --   -0.53959  -0.53717  -0.53652  -0.53333  -0.53096
 Alpha  occ. eigenvalues --   -0.52803  -0.52108  -0.51560  -0.50681  -0.50578
 Alpha  occ. eigenvalues --   -0.50242  -0.50006  -0.49852  -0.49359  -0.49007
 Alpha  occ. eigenvalues --   -0.48764  -0.48710  -0.48371  -0.47724  -0.47480
 Alpha  occ. eigenvalues --   -0.46794  -0.45937  -0.45432  -0.44862  -0.42438
 Alpha  occ. eigenvalues --   -0.41030  -0.40776  -0.39161  -0.38085  -0.37746
 Alpha  occ. eigenvalues --   -0.37581  -0.37556  -0.36861  -0.35802  -0.34791
 Alpha  occ. eigenvalues --   -0.34457  -0.34277  -0.33587  -0.33416  -0.33189
 Alpha  occ. eigenvalues --   -0.33116  -0.32789  -0.32059  -0.30985  -0.30758
 Alpha  occ. eigenvalues --   -0.30328  -0.29960  -0.26407  -0.25184
 Alpha virt. eigenvalues --    0.02749   0.04531   0.07158   0.08084   0.08526
 Alpha virt. eigenvalues --    0.08943   0.09523   0.10397   0.11036   0.12100
 Alpha virt. eigenvalues --    0.13066   0.13079   0.14194   0.14545   0.14980

 Mulliken charges:
               1
     1  N   -0.305890
     2  C    0.184376
     3  C    0.038857
     4  N   -0.239126
     5  C    0.149745
     6  H    0.024063
     7  N   -0.297236
     8  C    0.129650
     9  H    0.009539
    10  N   -0.285878
    11  C    0.239471
    12  C    0.082843
    13  N   -0.054653
    14  H    0.120859
    15  H    0.090387
    16  H    0.025232
    17  H    0.033044
    18  H    0.012224
    19  N   -0.310106
    20  C    0.259503
    21  C    0.181758
    22  N   -0.123737
    23  H    0.118642
    24  H    0.119767
    25  N   -0.312347
    26  C    0.252139
    27  N   -0.147280
    28  H    0.120536
    29  C    0.192757
    30  O   -0.319283
    31  C   -0.014951
    32  N   -0.214669
    33  C    0.108734
    34  H    0.022582
    35  H    0.020831
    36  H    0.032987
    37  H    0.027031
    38  H    0.054437
    39  H    0.056081
    40  H    0.074060
    41  H    0.011274
    42  C   -0.098716
    43  O   -0.282554
    44  C    0.178231
    45  H    0.130178
    46  N   -0.118277
    47  O   -0.354412
    48  C    0.343633
    49  H    0.044908
    50  C    0.159190
    51  C    0.046108
    52  N   -0.276777
    53  H    0.035115
    54  H    0.042432
    55  H    0.028577
    56  H    0.123478
    57  H    0.117404
    58  N   -0.051784
    59  C    0.079836
    60  C    0.236760
    61  N   -0.266741
    62  H    0.034151
    63  C    0.166128
    64  N   -0.304266
    65  H    0.039102
    66  C    0.138336
    67  N   -0.260671
    68  C    0.036136
    69  C    0.179068
    70  N   -0.312827
 Sum of Mulliken charges =  -0.00000

 Dipole moment (field-independent basis, Debye):
    X=             -5.4037    Y=              4.8549    Z=             -6.4298  Tot=              9.7011
 Quadrupole moment (field-independent basis, Debye-Ang):
   XX=           -146.4135   YY=           -232.3359   ZZ=           -250.2216
   XY=            -10.5938   XZ=             -1.4788   YZ=            -13.2379

 Normal termination of Gaussian 16 at Fri Jan 19 05:43:21 2018.
