 Gaussian 16, Revision A.03,
 Gaussian 16:  EM64L-G16RevA.03 25-Dec-2016

 ---------------------------------------
 #p wb97xd/cc-pvdz sp scf=(maxcycles=20)
 ---------------------------------------

 ------------------
 Base pair stacking
 ------------------
 Symbolic Z-matrix:
 Charge =  0 Multiplicity = 1

                         Standard orientation:
 ---------------------------------------------------------------------
 Center     Atomic      Atomic             Coordinates (Angstroms)
 Number     Number       Type             X           Y           Z
 ---------------------------------------------------------------------
      1          7           0       -6.825617   -0.785530    0.349768
      2          6           0       -8.095092   -0.038916    0.444715
      3          6           0       -4.704346   -1.356429    0.457479
      4          7           0       -5.373353   -2.447965   -0.077039
      5          6           0       -6.624568   -2.060328   -0.120542
      6          1           0       -7.449948   -2.669714   -0.489784
      7          7           0       -3.014613    0.067201    1.282710
      8          6           0       -3.980183    0.969272    1.486479
      9          1           0       -3.649743    1.916271    1.911047
     10          7           0       -5.286518    0.877606    1.245667
     11          6           0       -5.586340   -0.324100    0.725631
     12          6           0       -3.348559   -1.132170    0.758238
     13          7           0       -2.386112   -2.033950    0.554098
     14          1           0       -2.587575   -2.934788    0.167918
     15          1           0       -1.431428   -1.839945    0.780084
     16          1           0       -8.731362   -0.534419    1.036160
     17          1           0       -7.921633    0.867502    0.828708
     18          1           0       -8.496130    0.058014   -0.466202
     19          7           0       -3.238679    1.547575   -1.431088
     20          6           0       -1.898501    1.667535   -1.152547
     21          6           0       -4.281847    2.517235   -1.040901
     22          7           0        0.731735    3.434848    0.268797
     23          1           0        1.721425    3.333326    0.365945
     24          1           0        0.317872    4.252148    0.670614
     25          7           0       -1.314156    2.683229   -0.481012
     26          6           0       -0.008065    2.516795   -0.371344
     27          7           0        0.675411    1.438869   -0.879717
     28          1           0        1.674301    1.394578   -0.748460
     29          6           0        0.094672    0.382230   -1.574065
     30          8           0        0.801994   -0.543053   -1.991546
     31          6           0       -1.308153    0.546946   -1.699868
     32          7           0       -2.258579   -0.260280   -2.309754
     33          6           0       -3.385913    0.371706   -2.125569
     34          1           0       -4.357741    0.023234   -2.476855
     35          1           0       -4.954973    2.067431   -0.454921
     36          1           0       -3.860812    3.274102   -0.542749
     37          1           0       -4.734891    2.869277   -1.859216
     38          1           0        6.518791    1.446861    0.794557
     39          1           0        6.812823    2.058674   -0.831444
     40          1           0        5.298498    2.435084   -0.008958
     41          1           0        6.251206   -2.631738   -1.743168
     42          6           0        5.641520   -1.755207   -1.523605
     43          8           0        3.618549   -2.748948   -2.263336
     44          6           0        4.236518   -1.794405   -1.792430
     45          1           0        2.563909   -0.623244   -1.654213
     46          7           0        3.558730   -0.633731   -1.478265
     47          8           0        3.405936    1.495887   -0.704589
     48          6           0        4.088440    0.516691   -0.949606
     49          1           0        7.250335   -0.566646   -0.785466
     50          6           0        6.187201   -0.647454   -1.008115
     51          6           0        6.060222    1.683515   -0.154008
     52          7           0        5.449392    0.476876   -0.718492
     53          1           0        4.321192    2.121251    3.438902
     54          1           0        3.186323    2.593426    2.365944
     55          1           0        4.730623    2.383497    1.881008
     56          1           0        0.830181   -3.810785    0.665929
     57          1           0        2.480828   -3.828128    1.096262
     58          7           0        1.639014   -3.303671    0.963871
     59          6           0        1.597948   -1.986601    1.175531
     60          6           0        2.508237    0.129421    1.771829
     61          7           0        1.363859    0.807894    1.586038
     62          1           0       -0.573910    0.456955    1.018155
     63          6           0        0.392756   -0.013637    1.192399
     64          7           0        0.431899   -1.333052    0.979848
     65          1           0        5.622254   -0.325077    2.512424
     66          6           0        4.578268   -0.439161    2.219137
     67          7           0        4.019207   -1.575156    1.880540
     68          6           0        2.706597   -1.228785    1.594512
     69          6           0        4.013212    2.045829    2.490497
     70          7           0        3.721753    0.633790    2.175527
 ---------------------------------------------------------------------

 SCF Done:  E(RwB97XD) =  -2048.73081794     A.U. after   15 cycles

 The electronic state is 1-A.
 Alpha  occ. eigenvalues --  -19.26069 -19.21960 -19.20468 -14.52702 -14.51420
 Alpha  occ. eigenvalues --  -14.50123 -14.48115 -14.47912 -14.46754 -14.46326
 Alpha  occ. eigenvalues --  -14.46187 -14.44321 -14.43238 -14.43122 -14.42847
 Alpha  occ. eigenvalues --  -14.42744 -14.42273 -14.41797 -14.41353 -14.40498
 Alpha  occ. eigenvalues --  -10.45658 -10.40762 -10.40052 -10.38655 -10.37959
 Alpha  occ. eigenvalues --  -10.37709 -10.37021 -10.36640 -10.36187 -10.36038
 Alpha  occ. eigenvalues --  -10.35390 -10.34828 -10.34747 -10.34298 -10.33978
 Alpha  occ. eigenvalues --  -10.33478 -10.32947 -10.32117 -10.31360 -10.31054
 Alpha  occ. eigenvalues --  -10.29922 -10.29132 -10.27813  -1.19708  -1.14141
 Alpha  occ. eigenvalues --   -1.13018  -1.12989  -1.12727  -1.10228  -1.09553
 Alpha  occ. eigenvalues --   -1.08299  -1.07993  -1.06297  -1.03577  -1.02592
 Alpha  occ. eigenvalues --   -1.01761  -0.99922  -0.99361  -0.98264  -0.98229
 Alpha  occ. eigenvalues --   -0.96058  -0.95622  -0.93938  -0.91123  -0.86705
 Alpha  occ. eigenvalues --   -0.85306  -0.85209  -0.84199  -0.83638  -0.83547
 Alpha  occ. eigenvalues --   -0.81618  -0.78982  -0.76009  -0.74325  -0.74091
 Alpha  occ. eigenvalues --   -0.73764  -0.73504  -0.73291  -0.72387  -0.69394
 Alpha  occ. eigenvalues --   -0.67571  -0.67070  -0.66623  -0.65736  -0.64590
 Alpha  occ. eigenvalues --   -0.64008  -0.63360  -0.63226  -0.62518  -0.61394
 Alpha  occ. eigenvalues --   -0.61319  -0.61251  -0.59713  -0.59580  -0.58762
 Alpha  occ. eigenvalues --   -0.58035  -0.57944  -0.57832  -0.57665  -0.56631
 Alpha  occ. eigenvalues --   -0.56375  -0.56000  -0.55267  -0.54529  -0.54411
 Alpha  occ. eigenvalues --   -0.54190  -0.53282  -0.53183  -0.53000  -0.52465
 Alpha  occ. eigenvalues --   -0.52299  -0.52013  -0.51722  -0.51529  -0.51209
 Alpha  occ. eigenvalues --   -0.50249  -0.49813  -0.49486  -0.48826  -0.48520
 Alpha  occ. eigenvalues --   -0.48488  -0.48163  -0.48080  -0.47924  -0.47537
 Alpha  occ. eigenvalues --   -0.47209  -0.45897  -0.45423  -0.44248  -0.43161
 Alpha  occ. eigenvalues --   -0.41813  -0.39985  -0.39601  -0.38551  -0.37161
 Alpha  occ. eigenvalues --   -0.37023  -0.36932  -0.36311  -0.35455  -0.34903
 Alpha  occ. eigenvalues --   -0.34710  -0.34153  -0.33446  -0.33221  -0.33096
 Alpha  occ. eigenvalues --   -0.32532  -0.32483  -0.31815  -0.31714  -0.31647
 Alpha  occ. eigenvalues --   -0.31475  -0.28284  -0.26904  -0.25127
 Alpha virt. eigenvalues --    0.03051   0.04987   0.06459   0.08148   0.08468
 Alpha virt. eigenvalues --    0.09104   0.09711   0.10130   0.11126   0.11900
 Alpha virt. eigenvalues --    0.12657   0.13050   0.14595   0.14835   0.14974

 Mulliken charges:
               1
     1  N   -0.311758
     2  C    0.179842
     3  C    0.048861
     4  N   -0.254391
     5  C    0.131522
     6  H    0.030664
     7  N   -0.264152
     8  C    0.122550
     9  H    0.021738
    10  N   -0.294816
    11  C    0.238016
    12  C    0.091857
    13  N   -0.039913
    14  H    0.108077
    15  H    0.088468
    16  H    0.029585
    17  H    0.035927
    18  H    0.026638
    19  N   -0.293520
    20  C    0.244337
    21  C    0.185621
    22  N   -0.096285
    23  H    0.110694
    24  H    0.113054
    25  N   -0.290925
    26  C    0.208057
    27  N   -0.120345
    28  H    0.124010
    29  C    0.139125
    30  O   -0.323901
    31  C    0.011006
    32  N   -0.224589
    33  C    0.114628
    34  H    0.023991
    35  H    0.018099
    36  H    0.022350
    37  H    0.016027
    38  H    0.046465
    39  H    0.066085
    40  H    0.086412
    41  H    0.030994
    42  C   -0.091354
    43  O   -0.266704
    44  C    0.182753
    45  H    0.133314
    46  N   -0.124651
    47  O   -0.344933
    48  C    0.339910
    49  H    0.044429
    50  C    0.164747
    51  C    0.032690
    52  N   -0.280073
    53  H    0.032251
    54  H    0.030465
    55  H   -0.010975
    56  H    0.118507
    57  H    0.120921
    58  N   -0.063213
    59  C    0.132725
    60  C    0.218761
    61  N   -0.284985
    62  H    0.035892
    63  C    0.173068
    64  N   -0.305450
    65  H    0.027291
    66  C    0.111829
    67  N   -0.248274
    68  C    0.019029
    69  C    0.192676
    70  N   -0.290750
 Sum of Mulliken charges =  -0.00000

 Dipole moment (field-independent basis, Debye):
    X=              4.5620    Y=              5.5120    Z=              4.7039  Tot=              8.5627
 Quadrupole moment (field-independent basis, Debye-Ang):
   XX=           -139.8067   YY=           -227.3191   ZZ=           -259.7028
   XY=             17.3020   XZ=             17.1206   YZ=             -5.3619

 Normal termination of Gaussian 16 at Thu Jan 18 20:14:49 2018.
