 Gaussian 16, Revision A.03,
 Gaussian 16:  EM64L-G16RevA.03 25-Dec-2016

 ---------------------------------------
 #p wb97xd/cc-pvdz sp scf=(maxcycles=20)
 ---------------------------------------

 ------------------
 Base pair stacking
 ------------------
 Symbolic Z-matrix:
 Charge =  0 Multiplicity = 1

                         Standard orientation:
 ---------------------------------------------------------------------
 Center     Atomic      Atomic             Coordinates (Angstroms)
 Number     Number       Type             X           Y           Z
 ---------------------------------------------------------------------
      1          7           0       -5.135684   -2.150683    0.340394
      2          6           0       -6.418233   -2.108555    1.069302
      3          6           0       -2.996120   -2.080075   -0.164174
      4          7           0       -3.664213   -2.367271   -1.345658
      5          6           0       -4.926484   -2.398316   -0.994383
      6          1           0       -5.754614   -2.599029   -1.674718
      7          7           0       -1.301681   -1.632473    1.414262
      8          6           0       -2.278952   -1.530807    2.321004
      9          1           0       -1.951111   -1.303981    3.334577
     10          7           0       -3.594227   -1.666639    2.164432
     11          6           0       -3.889896   -1.943802    0.883732
     12          6           0       -1.631728   -1.912199    0.134462
     13          7           0       -0.657617   -2.014087   -0.772119
     14          1           0       -0.855785   -2.219769   -1.731100
     15          1           0        0.302945   -1.888357   -0.523785
     16          1           0       -6.875844   -2.994535    0.992952
     17          1           0       -6.248290   -1.904205    2.032885
     18          1           0       -7.003316   -1.398321    0.677855
     19          7           0       -5.031501    1.780329   -0.066084
     20          6           0       -3.680033    1.957953    0.107194
     21          6           0       -6.082985    2.303320    0.829212
     22          7           0       -1.026954    3.259451    1.931753
     23          1           0       -0.029000    3.272363    1.875479
     24          1           0       -1.443922    3.736029    2.706173
     25          7           0       -3.090334    2.634669    1.116339
     26          6           0       -1.773360    2.631522    1.010625
     27          7           0       -1.084632    2.013542   -0.004889
     28          1           0       -0.077387    2.062765   -0.005308
     29          6           0       -1.670714    1.311637   -1.053554
     30          8           0       -0.957864    0.790438   -1.920129
     31          6           0       -3.085233    1.306282   -0.953619
     32          7           0       -4.043992    0.731102   -1.776325
     33          6           0       -5.180500    1.037576   -1.211845
     34          1           0       -6.160624    0.746121   -1.590891
     35          1           0       -6.617110    1.543505    1.198280
     36          1           0       -5.658088    2.806477    1.580578
     37          1           0       -6.684533    2.915759    0.317475
     38          1           0        4.922926    2.127152    0.914184
     39          1           0        4.910916    3.443240   -0.257319
     40          1           0        3.513107    3.179423    0.785706
     41          1           0        4.625774   -0.355071   -3.196396
     42          6           0        3.983050    0.227033   -2.535873
     43          8           0        1.964791   -0.611967   -3.457715
     44          6           0        2.562241    0.106500   -2.656699
     45          1           0        0.835135    0.827656   -1.828834
     46          7           0        1.842263    0.885849   -1.773795
     47          8           0        1.625229    2.387751   -0.084314
     48          6           0        2.344660    1.737573   -0.822114
     49          1           0        5.576463    1.177020   -1.484976
     50          6           0        4.502863    1.049506   -1.617211
     51          6           0        4.306055    2.696076    0.234579
     52          7           0        3.723206    1.799083   -0.767137
     53          1           0        6.116562   -0.711139    4.022523
     54          1           0        4.750694    0.171216    3.888593
     55          1           0        6.175885    0.793221    3.392595
     56          1           0        2.653841   -2.348514   -2.333107
     57          1           0        4.352855   -2.350798   -2.179962
     58          7           0        3.460040   -2.147288   -1.776615
     59          6           0        3.350526   -1.630526   -0.550998
     60          6           0        4.178928   -0.797622    1.518244
     61          7           0        2.966984   -0.534496    2.034362
     62          1           0        0.991397   -0.677514    1.507880
     63          6           0        2.009899   -0.859549    1.167629
     64          7           0        2.117554   -1.377239   -0.060371
     65          1           0        7.405745   -0.967458    1.413320
     66          6           0        6.337551   -1.015087    1.199687
     67          7           0        5.820427   -1.462432    0.081582
     68          6           0        4.452362   -1.330090    0.270350
     69          6           0        5.629331   -0.041415    3.462092
     70          7           0        5.401610   -0.596364    2.113688
 ---------------------------------------------------------------------

 SCF Done:  E(RwB97XD) =  -2048.73094564     A.U. after   15 cycles

 The electronic state is 1-A.
 Alpha  occ. eigenvalues --  -19.25603 -19.22214 -19.20873 -14.52245 -14.52048
 Alpha  occ. eigenvalues --  -14.49162 -14.48655 -14.47754 -14.47102 -14.46982
 Alpha  occ. eigenvalues --  -14.46877 -14.45161 -14.44100 -14.44021 -14.42227
 Alpha  occ. eigenvalues --  -14.42099 -14.41205 -14.40950 -14.40930 -14.40355
 Alpha  occ. eigenvalues --  -10.45162 -10.41457 -10.40327 -10.39325 -10.38493
 Alpha  occ. eigenvalues --  -10.37743 -10.36933 -10.36906 -10.35512 -10.35393
 Alpha  occ. eigenvalues --  -10.35054 -10.34651 -10.33759 -10.33748 -10.33713
 Alpha  occ. eigenvalues --  -10.33297 -10.33133 -10.32355 -10.31366 -10.31222
 Alpha  occ. eigenvalues --  -10.30785 -10.28415 -10.28401  -1.19191  -1.14970
 Alpha  occ. eigenvalues --   -1.13482  -1.13450  -1.11182  -1.10915  -1.09078
 Alpha  occ. eigenvalues --   -1.08903  -1.08781  -1.05042  -1.04448  -1.02475
 Alpha  occ. eigenvalues --   -1.00683  -1.00357  -0.99964  -0.98793  -0.96962
 Alpha  occ. eigenvalues --   -0.96784  -0.96498  -0.92697  -0.90727  -0.87356
 Alpha  occ. eigenvalues --   -0.85665  -0.84462  -0.83885  -0.83455  -0.82882
 Alpha  occ. eigenvalues --   -0.82320  -0.78604  -0.76711  -0.74933  -0.74594
 Alpha  occ. eigenvalues --   -0.73862  -0.73218  -0.72827  -0.71001  -0.70022
 Alpha  occ. eigenvalues --   -0.67650  -0.66688  -0.66240  -0.66124  -0.64614
 Alpha  occ. eigenvalues --   -0.63934  -0.63795  -0.62831  -0.62637  -0.62027
 Alpha  occ. eigenvalues --   -0.60645  -0.60324  -0.60100  -0.59252  -0.59138
 Alpha  occ. eigenvalues --   -0.58833  -0.58593  -0.57334  -0.56523  -0.56222
 Alpha  occ. eigenvalues --   -0.55955  -0.55390  -0.55057  -0.54772  -0.54322
 Alpha  occ. eigenvalues --   -0.53890  -0.53831  -0.53404  -0.53204  -0.52990
 Alpha  occ. eigenvalues --   -0.52536  -0.52205  -0.51772  -0.50816  -0.50500
 Alpha  occ. eigenvalues --   -0.50266  -0.49927  -0.49721  -0.49367  -0.49099
 Alpha  occ. eigenvalues --   -0.48814  -0.48696  -0.48030  -0.47577  -0.47457
 Alpha  occ. eigenvalues --   -0.46925  -0.46174  -0.44769  -0.44673  -0.42851
 Alpha  occ. eigenvalues --   -0.41021  -0.40442  -0.39295  -0.38051  -0.37495
 Alpha  occ. eigenvalues --   -0.37438  -0.37136  -0.36964  -0.35965  -0.34578
 Alpha  occ. eigenvalues --   -0.34187  -0.33805  -0.33628  -0.33541  -0.33292
 Alpha  occ. eigenvalues --   -0.32956  -0.32405  -0.31827  -0.31521  -0.30871
 Alpha  occ. eigenvalues --   -0.30380  -0.29440  -0.26467  -0.24942
 Alpha virt. eigenvalues --    0.03606   0.04236   0.07129   0.07640   0.08586
 Alpha virt. eigenvalues --    0.09075   0.09574   0.10592   0.11122   0.11747
 Alpha virt. eigenvalues --    0.12844   0.13188   0.14207   0.14505   0.14908

 Mulliken charges:
               1
     1  N   -0.306363
     2  C    0.180795
     3  C    0.046071
     4  N   -0.235318
     5  C    0.133166
     6  H    0.022682
     7  N   -0.295826
     8  C    0.133111
     9  H    0.010527
    10  N   -0.288621
    11  C    0.238722
    12  C    0.085035
    13  N   -0.042556
    14  H    0.117523
    15  H    0.085743
    16  H    0.026762
    17  H    0.033937
    18  H    0.015598
    19  N   -0.308721
    20  C    0.260934
    21  C    0.181514
    22  N   -0.124788
    23  H    0.117857
    24  H    0.119467
    25  N   -0.312061
    26  C    0.250843
    27  N   -0.148548
    28  H    0.120374
    29  C    0.193326
    30  O   -0.324661
    31  C   -0.019149
    32  N   -0.211790
    33  C    0.116872
    34  H    0.019219
    35  H    0.022073
    36  H    0.032234
    37  H    0.025448
    38  H    0.049633
    39  H    0.058761
    40  H    0.075512
    41  H    0.016222
    42  C   -0.105172
    43  O   -0.288162
    44  C    0.166113
    45  H    0.127772
    46  N   -0.101305
    47  O   -0.352115
    48  C    0.339486
    49  H    0.044214
    50  C    0.176502
    51  C    0.046132
    52  N   -0.280593
    53  H    0.034845
    54  H    0.042438
    55  H    0.025088
    56  H    0.128656
    57  H    0.113503
    58  N   -0.034298
    59  C    0.067503
    60  C    0.234134
    61  N   -0.267337
    62  H    0.031087
    63  C    0.162003
    64  N   -0.298071
    65  H    0.036105
    66  C    0.128236
    67  N   -0.256426
    68  C    0.038578
    69  C    0.179173
    70  N   -0.309646
 Sum of Mulliken charges =  -0.00000

 Dipole moment (field-independent basis, Debye):
    X=              5.3085    Y=              4.6388    Z=              6.2361  Tot=              9.4120
 Quadrupole moment (field-independent basis, Debye-Ang):
   XX=           -146.8856   YY=           -232.2063   ZZ=           -250.5817
   XY=              7.9912   XZ=              5.0763   YZ=             13.5832

 Normal termination of Gaussian 16 at Fri Jan 19 04:16:03 2018.
