 Gaussian 16, Revision A.03,
 Gaussian 16:  EM64L-G16RevA.03 25-Dec-2016

 ---------------------------------------
 #p wb97xd/cc-pvdz sp scf=(maxcycles=20)
 ---------------------------------------

 ------------------
 Base pair stacking
 ------------------
 Symbolic Z-matrix:
 Charge =  0 Multiplicity = 1

                         Standard orientation:
 ---------------------------------------------------------------------
 Center     Atomic      Atomic             Coordinates (Angstroms)
 Number     Number       Type             X           Y           Z
 ---------------------------------------------------------------------
      1          7           0        6.009396   -0.998307   -0.819593
      2          6           0        7.297840   -0.290890   -0.951846
      3          6           0        3.865866   -1.490724   -0.829131
      4          7           0        4.524156   -2.631387   -0.392949
      5          6           0        5.789211   -2.289072   -0.404664
      6          1           0        6.611662   -2.944944   -0.117683
      7          7           0        2.184581    0.031444   -1.476624
      8          6           0        3.169239    0.910103   -1.691061
      9          1           0        2.849768    1.889189   -2.045442
     10          7           0        4.483106    0.761600   -1.534193
     11          6           0        4.768191   -0.475781   -1.095980
     12          6           0        2.504051   -1.205007   -1.035926
     13          7           0        1.522544   -2.083504   -0.821291
     14          1           0        1.712802   -3.010099   -0.495040
     15          1           0        0.564121   -1.845534   -0.979201
     16          1           0        7.879931   -0.775013   -1.605283
     17          1           0        7.135855    0.640211   -1.277306
     18          1           0        7.754495   -0.256720   -0.062861
     19          7           0        4.147547    1.320858    1.249919
     20          6           0        2.799266    1.495463    1.050692
     21          6           0        5.206884    2.227125    0.762913
     22          7           0        0.167325    3.339928   -0.265593
     23          1           0       -0.830121    3.282480   -0.297893
     24          1           0        0.591615    4.123581   -0.720114
     25          7           0        2.220322    2.516061    0.381923
     26          6           0        0.903698    2.408442    0.358900
     27          7           0        0.205519    1.380744    0.945333
     28          1           0       -0.800648    1.379805    0.877591
     29          6           0        0.780454    0.320151    1.638492
     30          8           0        0.059689   -0.556879    2.130461
     31          6           0        2.194459    0.421980    1.671693
     32          7           0        3.143937   -0.409819    2.249181
     33          6           0        4.284887    0.161818    1.974091
     34          1           0        5.260165   -0.221139    2.276505
     35          1           0        5.820476    1.727617    0.152328
     36          1           0        4.789973    2.987029    0.265929
     37          1           0        5.726313    2.582892    1.539077
     38          1           0       -5.725690    1.613292   -0.364271
     39          1           0       -5.888166    2.289356    1.254741
     40          1           0       -4.413381    2.567328    0.327854
     41          1           0       -5.483516   -2.391330    2.291092
     42          6           0       -4.849780   -1.552087    2.004245
     43          8           0       -2.831270   -2.616912    2.651461
     44          6           0       -3.433815   -1.649449    2.186994
     45          1           0       -1.721862   -0.563944    1.905518
     46          7           0       -2.725261   -0.532746    1.791791
     47          8           0       -2.525200    1.561758    0.937256
     48          6           0       -3.234584    0.624278    1.257533
     49          1           0       -6.446453   -0.312379    1.326324
     50          6           0       -5.376128   -0.436502    1.485575
     51          6           0       -5.197748    1.857716    0.545459
     52          7           0       -4.607836    0.641846    1.112387
     53          1           0       -5.183575    2.444798   -3.079221
     54          1           0       -3.971576    2.819986   -2.053358
     55          1           0       -5.491725    2.636449   -1.488075
     56          1           0       -1.758101   -3.742268   -0.831578
     57          1           0       -3.430503   -3.680744   -1.162331
     58          7           0       -2.563658   -3.192867   -1.053776
     59          6           0       -2.486473   -1.868445   -1.199074
     60          6           0       -3.351323    0.306103   -1.629332
     61          7           0       -2.173850    0.934608   -1.477749
     62          1           0       -0.220572    0.488463   -1.046164
     63          6           0       -1.212419    0.060801   -1.186174
     64          7           0       -1.287719   -1.266078   -1.040206
     65          1           0       -6.517785   -0.002592   -2.204113
     66          6           0       -5.463414   -0.167442   -1.980351
     67          7           0       -4.927844   -1.338228   -1.735179
     68          6           0       -3.588945   -1.052219   -1.510943
     69          6           0       -4.823929    2.308080   -2.156205
     70          7           0       -4.566865    0.872111   -1.932790
 ---------------------------------------------------------------------

 SCF Done:  E(RwB97XD) =  -2048.70929091     A.U. after   15 cycles

 The electronic state is 1-A.
 Alpha  occ. eigenvalues --  -19.25214 -19.21554 -19.20574 -14.52418 -14.52123
 Alpha  occ. eigenvalues --  -14.49789 -14.48356 -14.47611 -14.47398 -14.46741
 Alpha  occ. eigenvalues --  -14.46519 -14.45462 -14.44031 -14.43965 -14.43111
 Alpha  occ. eigenvalues --  -14.42223 -14.41767 -14.41459 -14.40765 -14.40552
 Alpha  occ. eigenvalues --  -10.44896 -10.41077 -10.39659 -10.39554 -10.38120
 Alpha  occ. eigenvalues --  -10.37989 -10.37336 -10.37058 -10.36238 -10.35322
 Alpha  occ. eigenvalues --  -10.34997 -10.34880 -10.34165 -10.33981 -10.33981
 Alpha  occ. eigenvalues --  -10.33586 -10.33044 -10.32517 -10.32187 -10.30536
 Alpha  occ. eigenvalues --  -10.29929 -10.29286 -10.27830  -1.19118  -1.15292
 Alpha  occ. eigenvalues --   -1.13123  -1.12575  -1.12273  -1.10348  -1.09187
 Alpha  occ. eigenvalues --   -1.08771  -1.08440  -1.05794  -1.04483  -1.02149
 Alpha  occ. eigenvalues --   -1.01311  -1.01067  -0.99590  -0.98399  -0.97895
 Alpha  occ. eigenvalues --   -0.96572  -0.96249  -0.93441  -0.90658  -0.87878
 Alpha  occ. eigenvalues --   -0.86312  -0.84889  -0.83794  -0.83546  -0.83287
 Alpha  occ. eigenvalues --   -0.81942  -0.78506  -0.76945  -0.74836  -0.74341
 Alpha  occ. eigenvalues --   -0.73763  -0.73478  -0.73082  -0.71837  -0.70317
 Alpha  occ. eigenvalues --   -0.67234  -0.67148  -0.66726  -0.66243  -0.64708
 Alpha  occ. eigenvalues --   -0.64205  -0.63726  -0.63529  -0.62685  -0.62412
 Alpha  occ. eigenvalues --   -0.61568  -0.61135  -0.60463  -0.59510  -0.59287
 Alpha  occ. eigenvalues --   -0.58422  -0.58115  -0.57643  -0.57421  -0.56508
 Alpha  occ. eigenvalues --   -0.56076  -0.55874  -0.55290  -0.54728  -0.54292
 Alpha  occ. eigenvalues --   -0.53959  -0.53511  -0.53308  -0.52888  -0.52796
 Alpha  occ. eigenvalues --   -0.52479  -0.52129  -0.51366  -0.51217  -0.50987
 Alpha  occ. eigenvalues --   -0.50025  -0.49720  -0.49413  -0.49148  -0.48880
 Alpha  occ. eigenvalues --   -0.48773  -0.48352  -0.48036  -0.47875  -0.47178
 Alpha  occ. eigenvalues --   -0.46864  -0.45857  -0.45524  -0.44239  -0.42665
 Alpha  occ. eigenvalues --   -0.41854  -0.40597  -0.39139  -0.37970  -0.37647
 Alpha  occ. eigenvalues --   -0.37456  -0.37126  -0.36922  -0.36052  -0.34689
 Alpha  occ. eigenvalues --   -0.34283  -0.34220  -0.33899  -0.33515  -0.32843
 Alpha  occ. eigenvalues --   -0.32442  -0.32384  -0.31662  -0.31612  -0.31160
 Alpha  occ. eigenvalues --   -0.30915  -0.29158  -0.26528  -0.25319
 Alpha virt. eigenvalues --    0.03296   0.04340   0.06917   0.07027   0.08579
 Alpha virt. eigenvalues --    0.08831   0.09750   0.10445   0.10929   0.12432
 Alpha virt. eigenvalues --    0.13262   0.13556   0.14179   0.14206   0.14778

 Mulliken charges:
               1
     1  N   -0.308636
     2  C    0.176840
     3  C    0.068921
     4  N   -0.248573
     5  C    0.124690
     6  H    0.028150
     7  N   -0.279925
     8  C    0.143761
     9  H    0.011708
    10  N   -0.290606
    11  C    0.222158
    12  C    0.082337
    13  N   -0.044462
    14  H    0.109731
    15  H    0.088660
    16  H    0.029636
    17  H    0.048371
    18  H    0.021737
    19  N   -0.280379
    20  C    0.213165
    21  C    0.211299
    22  N   -0.105868
    23  H    0.115252
    24  H    0.116000
    25  N   -0.295100
    26  C    0.217300
    27  N   -0.141297
    28  H    0.125150
    29  C    0.171737
    30  O   -0.322508
    31  C    0.001812
    32  N   -0.216438
    33  C    0.119704
    34  H    0.016838
    35  H   -0.009962
    36  H    0.028020
    37  H    0.016643
    38  H    0.040696
    39  H    0.055890
    40  H    0.069975
    41  H    0.026849
    42  C   -0.098400
    43  O   -0.267827
    44  C    0.169840
    45  H    0.132407
    46  N   -0.120580
    47  O   -0.328682
    48  C    0.325133
    49  H    0.041318
    50  C    0.169850
    51  C    0.048699
    52  N   -0.273239
    53  H    0.030935
    54  H    0.041984
    55  H    0.019275
    56  H    0.122423
    57  H    0.120367
    58  N   -0.059474
    59  C    0.114971
    60  C    0.199646
    61  N   -0.247384
    62  H    0.042384
    63  C    0.136630
    64  N   -0.300494
    65  H    0.037641
    66  C    0.113308
    67  N   -0.241572
    68  C    0.038396
    69  C    0.174586
    70  N   -0.301412
 Sum of Mulliken charges =  -0.00000

 Dipole moment (field-independent basis, Debye):
    X=             -4.8919    Y=              5.9333    Z=             -5.1261  Tot=              9.2418
 Quadrupole moment (field-independent basis, Debye-Ang):
   XX=           -146.1892   YY=           -225.9301   ZZ=           -263.5053
   XY=            -13.4132   XZ=              8.1290   YZ=              7.6419

 Normal termination of Gaussian 16 at Thu Jan 18 22:17:09 2018.
