 Gaussian 16, Revision A.03,
 Gaussian 16:  EM64L-G16RevA.03 25-Dec-2016

 ---------------------------------------
 #p wb97xd/cc-pvdz sp scf=(maxcycles=20)
 ---------------------------------------

 ------------------
 Base pair stacking
 ------------------
 Symbolic Z-matrix:
 Charge =  0 Multiplicity = 1

                         Standard orientation:
 ---------------------------------------------------------------------
 Center     Atomic      Atomic             Coordinates (Angstroms)
 Number     Number       Type             X           Y           Z
 ---------------------------------------------------------------------
      1          7           0        6.282930   -0.926273   -0.649486
      2          6           0        7.564152   -0.201017   -0.751742
      3          6           0        4.147256   -1.448456   -0.709078
      4          7           0        4.810952   -2.579856   -0.257210
      5          6           0        6.071052   -2.219980   -0.239397
      6          1           0        6.895590   -2.864344    0.066983
      7          7           0        2.460606    0.050174   -1.396278
      8          6           0        3.437706    0.942441   -1.587877
      9          1           0        3.113052    1.916998   -1.949975
     10          7           0        4.749474    0.812232   -1.400214
     11          6           0        5.041400   -0.421067   -0.955042
     12          6           0        2.786829   -1.181703   -0.947816
     13          7           0        1.812871   -2.073764   -0.755945
     14          1           0        2.008296   -2.997622   -0.425021
     15          1           0        0.855195   -1.849146   -0.936345
     16          1           0        8.168066   -0.676993   -1.391209
     17          1           0        7.396905    0.727748   -1.081222
     18          1           0        7.999343   -0.160492    0.147685
     19          7           0        3.849294    1.390361    1.316795
     20          6           0        2.503753    1.546198    1.085963
     21          6           0        4.907047    2.311270    0.854428
     22          7           0       -0.122013    3.353876   -0.292232
     23          1           0       -1.117531    3.282555   -0.347866
     24          1           0        0.301876    4.143345   -0.736939
     25          7           0        1.926504    2.558643    0.403476
     26          6           0        0.612398    2.432714    0.349657
     27          7           0       -0.084965    1.395411    0.919910
     28          1           0       -1.089158    1.380479    0.828613
     29          6           0        0.488259    0.342925    1.626690
     30          8           0       -0.231581   -0.544045    2.101942
     31          6           0        1.899546    0.464409    1.692991
     32          7           0        2.846707   -0.354109    2.292832
     33          6           0        3.985730    0.233346    2.044367
     34          1           0        4.958885   -0.136017    2.369667
     35          1           0        5.541655    1.820339    0.258566
     36          1           0        4.491371    3.065301    0.347562
     37          1           0        5.403154    2.674223    1.642438
     38          1           0       -5.986522    1.545452   -0.528363
     39          1           0       -6.196270    2.219191    1.086166
     40          1           0       -4.704181    2.517649    0.194002
     41          1           0       -5.750979   -2.455405    2.133250
     42          6           0       -5.122423   -1.607437    1.861059
     43          8           0       -3.105032   -2.644088    2.555741
     44          6           0       -3.709915   -1.685083    2.076965
     45          1           0       -2.007092   -0.575883    1.835324
     46          7           0       -3.007890   -0.558636    1.698103
     47          8           0       -2.817000    1.538438    0.847791
     48          6           0       -3.520593    0.591191    1.151677
     49          1           0       -6.719856   -0.390050    1.145516
     50          6           0       -5.651935   -0.499275    1.329826
     51          6           0       -5.483490    1.797198    0.393405
     52          7           0       -4.890183    0.589642    0.974392
     53          1           0       -4.900818    2.360819   -3.171855
     54          1           0       -3.718525    2.752836   -2.118009
     55          1           0       -5.248794    2.548182   -1.588437
     56          1           0       -1.443251   -3.777999   -0.842537
     57          1           0       -3.108139   -3.739734   -1.212393
     58          7           0       -2.250953   -3.239851   -1.083733
     59          6           0       -2.188796   -1.914482   -1.227621
     60          6           0       -3.073477    0.247827   -1.678740
     61          7           0       -1.908740    0.892644   -1.499804
     62          1           0        0.039913    0.473712   -1.022444
     63          6           0       -0.942338    0.032290   -1.185504
     64          7           0       -1.002594   -1.295504   -1.040910
     65          1           0       -6.221004   -0.104877   -2.327447
     66          6           0       -5.169982   -0.255056   -2.078982
     67          7           0       -4.624069   -1.418277   -1.820944
     68          6           0       -3.294899   -1.113668   -1.565502
     69          6           0       -4.561023    2.229122   -2.240622
     70          7           0       -4.289334    0.796865   -2.010772
 ---------------------------------------------------------------------

 SCF Done:  E(RwB97XD) =  -2048.71034150     A.U. after   15 cycles

 The electronic state is 1-A.
 Alpha  occ. eigenvalues --  -19.25474 -19.21721 -19.20506 -14.52352 -14.52146
 Alpha  occ. eigenvalues --  -14.49993 -14.48240 -14.47568 -14.47438 -14.46541
 Alpha  occ. eigenvalues --  -14.46258 -14.45103 -14.43736 -14.43662 -14.43195
 Alpha  occ. eigenvalues --  -14.42462 -14.41733 -14.41685 -14.41010 -14.40456
 Alpha  occ. eigenvalues --  -10.45168 -10.40896 -10.39811 -10.39340 -10.37982
 Alpha  occ. eigenvalues --  -10.37640 -10.37503 -10.36736 -10.36394 -10.35620
 Alpha  occ. eigenvalues --  -10.35118 -10.35088 -10.34363 -10.33889 -10.33782
 Alpha  occ. eigenvalues --  -10.33556 -10.32997 -10.32220 -10.32175 -10.30706
 Alpha  occ. eigenvalues --  -10.29565 -10.29345 -10.27686  -1.19329  -1.14890
 Alpha  occ. eigenvalues --   -1.13049  -1.12734  -1.12495  -1.10282  -1.09283
 Alpha  occ. eigenvalues --   -1.08626  -1.08317  -1.05993  -1.04231  -1.02324
 Alpha  occ. eigenvalues --   -1.01532  -1.00672  -0.99415  -0.98301  -0.98069
 Alpha  occ. eigenvalues --   -0.96289  -0.96105  -0.93665  -0.90868  -0.87549
 Alpha  occ. eigenvalues --   -0.86003  -0.85063  -0.83828  -0.83640  -0.83398
 Alpha  occ. eigenvalues --   -0.81687  -0.78706  -0.76655  -0.74587  -0.74211
 Alpha  occ. eigenvalues --   -0.73929  -0.73415  -0.73217  -0.72067  -0.70052
 Alpha  occ. eigenvalues --   -0.67366  -0.67056  -0.66560  -0.66240  -0.64768
 Alpha  occ. eigenvalues --   -0.63956  -0.63701  -0.63467  -0.62598  -0.62201
 Alpha  occ. eigenvalues --   -0.61436  -0.61209  -0.60321  -0.59411  -0.59278
 Alpha  occ. eigenvalues --   -0.58310  -0.57951  -0.57573  -0.57323  -0.56623
 Alpha  occ. eigenvalues --   -0.56248  -0.55976  -0.55314  -0.54896  -0.54442
 Alpha  occ. eigenvalues --   -0.54083  -0.53360  -0.53222  -0.53039  -0.52635
 Alpha  occ. eigenvalues --   -0.52393  -0.52103  -0.51430  -0.51212  -0.50996
 Alpha  occ. eigenvalues --   -0.50119  -0.49670  -0.49340  -0.49145  -0.48899
 Alpha  occ. eigenvalues --   -0.48543  -0.48329  -0.48022  -0.47893  -0.47201
 Alpha  occ. eigenvalues --   -0.47095  -0.45820  -0.45287  -0.44205  -0.42900
 Alpha  occ. eigenvalues --   -0.41863  -0.40387  -0.39290  -0.38159  -0.37413
 Alpha  occ. eigenvalues --   -0.37267  -0.37145  -0.36916  -0.35856  -0.34672
 Alpha  occ. eigenvalues --   -0.34452  -0.34168  -0.33793  -0.33437  -0.32925
 Alpha  occ. eigenvalues --   -0.32446  -0.32095  -0.31625  -0.31611  -0.31348
 Alpha  occ. eigenvalues --   -0.31193  -0.29111  -0.26770  -0.25075
 Alpha virt. eigenvalues --    0.02985   0.04711   0.06817   0.07239   0.08574
 Alpha virt. eigenvalues --    0.08896   0.09876   0.10257   0.11131   0.12149
 Alpha virt. eigenvalues --    0.13113   0.13280   0.14298   0.14360   0.14865

 Mulliken charges:
               1
     1  N   -0.311710
     2  C    0.176561
     3  C    0.062085
     4  N   -0.250043
     5  C    0.126274
     6  H    0.029338
     7  N   -0.274262
     8  C    0.137496
     9  H    0.015272
    10  N   -0.295192
    11  C    0.230039
    12  C    0.087920
    13  N   -0.042472
    14  H    0.109145
    15  H    0.089498
    16  H    0.030754
    17  H    0.042597
    18  H    0.024227
    19  N   -0.284994
    20  C    0.219455
    21  C    0.201390
    22  N   -0.102441
    23  H    0.114018
    24  H    0.114392
    25  N   -0.290801
    26  C    0.206641
    27  N   -0.143548
    28  H    0.133832
    29  C    0.159545
    30  O   -0.323648
    31  C    0.008206
    32  N   -0.220381
    33  C    0.121269
    34  H    0.019719
    35  H    0.012187
    36  H    0.024742
    37  H    0.012310
    38  H    0.031093
    39  H    0.060563
    40  H    0.071030
    41  H    0.028267
    42  C   -0.094643
    43  O   -0.267009
    44  C    0.174567
    45  H    0.133267
    46  N   -0.123524
    47  O   -0.332096
    48  C    0.327189
    49  H    0.042387
    50  C    0.167882
    51  C    0.056076
    52  N   -0.274462
    53  H    0.029095
    54  H    0.037962
    55  H    0.013547
    56  H    0.121313
    57  H    0.120598
    58  N   -0.060465
    59  C    0.122461
    60  C    0.207050
    61  N   -0.264537
    62  H    0.042773
    63  C    0.146525
    64  N   -0.305790
    65  H    0.037521
    66  C    0.111201
    67  N   -0.241586
    68  C    0.028772
    69  C    0.178503
    70  N   -0.294951
 Sum of Mulliken charges =  -0.00000

 Dipole moment (field-independent basis, Debye):
    X=             -4.6873    Y=              5.6567    Z=             -5.0970  Tot=              8.9414
 Quadrupole moment (field-independent basis, Debye-Ang):
   XX=           -144.2882   YY=           -226.3957   ZZ=           -262.8524
   XY=            -14.8788   XZ=             10.7513   YZ=              7.1402

 Normal termination of Gaussian 16 at Thu Jan 18 23:07:08 2018.
