 Gaussian 16, Revision A.03,
 Gaussian 16:  EM64L-G16RevA.03 25-Dec-2016

 ---------------------------------------
 #p wb97xd/cc-pvdz sp scf=(maxcycles=20)
 ---------------------------------------

 ------------------
 Base pair stacking
 ------------------
 Symbolic Z-matrix:
 Charge =  0 Multiplicity = 1

                         Standard orientation:
 ---------------------------------------------------------------------
 Center     Atomic      Atomic             Coordinates (Angstroms)
 Number     Number       Type             X           Y           Z
 ---------------------------------------------------------------------
      1          7           0        5.442846   -1.044317   -1.215574
      2          6           0        6.741112   -0.360786   -1.374676
      3          6           0        3.289318   -1.484589   -1.139377
      4          7           0        3.938693   -2.664652   -0.806991
      5          6           0        5.210122   -2.352173   -0.866199
      6          1           0        6.028564   -3.043348   -0.662769
      7          7           0        1.617914    0.113022   -1.605202
      8          6           0        2.613224    0.979552   -1.819887
      9          1           0        2.302035    1.985458   -2.098387
     10          7           0        3.929024    0.790933   -1.742567
     11          6           0        4.203354   -0.476970   -1.393883
     12          6           0        1.926724   -1.154912   -1.255826
     13          7           0        0.934581   -2.021352   -1.041088
     14          1           0        1.116719   -2.970142   -0.780630
     15          1           0       -0.024055   -1.751772   -1.133197
     16          1           0        7.275275   -0.818264   -2.085703
     17          1           0        6.587350    0.591784   -1.635592
     18          1           0        7.244134   -0.391003   -0.510942
     19          7           0        4.740534    1.099647    1.120523
     20          6           0        3.388863    1.317674    1.004345
     21          6           0        5.796957    2.008377    0.631742
     22          7           0        0.742268    3.299611   -0.058292
     23          1           0       -0.256684    3.267737   -0.040494
     24          1           0        1.163137    4.098988   -0.487911
     25          7           0        2.803402    2.390065    0.428789
     26          6           0        1.484961    2.315091    0.469959
     27          7           0        0.791011    1.270684    1.031359
     28          1           0       -0.216982    1.297548    1.017616
     29          6           0        1.372677    0.157018    1.629077
     30          8           0        0.655286   -0.730824    2.106403
     31          6           0        2.788712    0.223296    1.592522
     32          7           0        3.744372   -0.663935    2.068370
     33          6           0        4.884339   -0.103824    1.766771
     34          1           0        5.863442   -0.527188    1.993483
     35          1           0        6.364388    1.532216   -0.039154
     36          1           0        5.375220    2.806453    0.203402
     37          1           0        6.365374    2.304398    1.398611
     38          1           0       -5.191937    1.721460    0.056981
     39          1           0       -5.251874    2.302423    1.719375
     40          1           0       -3.820394    2.600884    0.732887
     41          1           0       -4.919107   -2.440415    2.455082
     42          6           0       -4.278943   -1.600601    2.184672
     43          8           0       -2.258682   -2.749767    2.659107
     44          6           0       -2.858501   -1.742135    2.285341
     45          1           0       -1.135105   -0.682318    1.977095
     46          7           0       -2.141870   -0.620672    1.919252
     47          8           0       -1.930611    1.516195    1.180082
     48          6           0       -2.647178    0.578112    1.482083
     49          1           0       -5.875002   -0.285012    1.667358
     50          6           0       -4.801555   -0.443696    1.761515
     51          6           0       -4.611052    1.898132    0.949973
     52          7           0       -4.025166    0.636751    1.411922
     53          1           0       -5.756490    2.791560   -2.666299
     54          1           0       -4.483185    3.075605   -1.686437
     55          1           0       -5.976229    2.894247   -1.052416
     56          1           0       -2.385315   -3.598684   -0.973508
     57          1           0       -4.070413   -3.477933   -1.210090
     58          7           0       -3.186368   -3.018052   -1.119528
     59          6           0       -3.081477   -1.689473   -1.190485
     60          6           0       -3.909112    0.526827   -1.445018
     61          7           0       -2.708983    1.117124   -1.319900
     62          1           0       -0.748514    0.599870   -1.020483
     63          6           0       -1.757375    0.204920   -1.132165
     64          7           0       -1.860426   -1.126192   -1.060791
     65          1           0       -7.108299    0.328044   -1.866730
     66          6           0       -6.048509    0.125208   -1.709796
     67          7           0       -5.532384   -1.070517   -1.563023
     68          6           0       -4.176469   -0.830186   -1.394303
     69          6           0       -5.353099    2.591058   -1.773509
     70          7           0       -5.123239    1.138576   -1.649137
 ---------------------------------------------------------------------

 SCF Done:  E(RwB97XD) =  -2048.70692975     A.U. after   15 cycles

 The electronic state is 1-A.
 Alpha  occ. eigenvalues --  -19.24987 -19.21414 -19.20555 -14.52723 -14.51789
 Alpha  occ. eigenvalues --  -14.49305 -14.48767 -14.48060 -14.47239 -14.46663
 Alpha  occ. eigenvalues --  -14.46581 -14.45674 -14.44521 -14.44339 -14.43085
 Alpha  occ. eigenvalues --  -14.41744 -14.41741 -14.41196 -14.40981 -14.40858
 Alpha  occ. eigenvalues --  -10.44670 -10.40984 -10.39988 -10.39524 -10.38239
 Alpha  occ. eigenvalues --  -10.38166 -10.37362 -10.37105 -10.36130 -10.36049
 Alpha  occ. eigenvalues --  -10.34585 -10.34424 -10.34238 -10.33842 -10.33707
 Alpha  occ. eigenvalues --  -10.33626 -10.33523 -10.32754 -10.32028 -10.30692
 Alpha  occ. eigenvalues --  -10.30488 -10.28917 -10.28146  -1.18886  -1.15780
 Alpha  occ. eigenvalues --   -1.13165  -1.12436  -1.11862  -1.10561  -1.09457
 Alpha  occ. eigenvalues --   -1.08707  -1.08497  -1.05710  -1.04925  -1.01947
 Alpha  occ. eigenvalues --   -1.01493  -1.01121  -0.99658  -0.98433  -0.97628
 Alpha  occ. eigenvalues --   -0.97029  -0.96547  -0.93389  -0.90395  -0.88042
 Alpha  occ. eigenvalues --   -0.86559  -0.84813  -0.84002  -0.83301  -0.83061
 Alpha  occ. eigenvalues --   -0.82289  -0.78280  -0.77282  -0.75115  -0.74588
 Alpha  occ. eigenvalues --   -0.73645  -0.73444  -0.72819  -0.71668  -0.70683
 Alpha  occ. eigenvalues --   -0.67398  -0.67028  -0.66937  -0.66188  -0.64606
 Alpha  occ. eigenvalues --   -0.64332  -0.63996  -0.63382  -0.62652  -0.62516
 Alpha  occ. eigenvalues --   -0.61725  -0.61162  -0.60737  -0.59820  -0.59131
 Alpha  occ. eigenvalues --   -0.58846  -0.58401  -0.58226  -0.57260  -0.56438
 Alpha  occ. eigenvalues --   -0.55846  -0.55695  -0.55409  -0.54457  -0.54106
 Alpha  occ. eigenvalues --   -0.53974  -0.53838  -0.53385  -0.53193  -0.52850
 Alpha  occ. eigenvalues --   -0.52405  -0.52259  -0.51516  -0.51215  -0.50749
 Alpha  occ. eigenvalues --   -0.50251  -0.49852  -0.49498  -0.49071  -0.48824
 Alpha  occ. eigenvalues --   -0.48552  -0.48237  -0.48111  -0.47862  -0.47161
 Alpha  occ. eigenvalues --   -0.47052  -0.46023  -0.45291  -0.44733  -0.42808
 Alpha  occ. eigenvalues --   -0.41499  -0.41010  -0.38863  -0.37738  -0.37680
 Alpha  occ. eigenvalues --   -0.37629  -0.37080  -0.36594  -0.36083  -0.34900
 Alpha  occ. eigenvalues --   -0.34731  -0.34483  -0.34002  -0.33542  -0.32842
 Alpha  occ. eigenvalues --   -0.32445  -0.31954  -0.31766  -0.31480  -0.31232
 Alpha  occ. eigenvalues --   -0.30869  -0.29685  -0.26836  -0.24839
 Alpha virt. eigenvalues --    0.03109   0.04234   0.06852   0.07368   0.08611
 Alpha virt. eigenvalues --    0.09041   0.09775   0.10051   0.10805   0.12805
 Alpha virt. eigenvalues --    0.13043   0.13439   0.14072   0.14539   0.14633

 Mulliken charges:
               1
     1  N   -0.300143
     2  C    0.183447
     3  C    0.080852
     4  N   -0.248767
     5  C    0.128550
     6  H    0.025066
     7  N   -0.280509
     8  C    0.138819
     9  H    0.004235
    10  N   -0.274980
    11  C    0.209157
    12  C    0.072294
    13  N   -0.045806
    14  H    0.110748
    15  H    0.085250
    16  H    0.026320
    17  H    0.048355
    18  H    0.017756
    19  N   -0.281577
    20  C    0.221647
    21  C    0.206347
    22  N   -0.108019
    23  H    0.119079
    24  H    0.117953
    25  N   -0.278445
    26  C    0.199221
    27  N   -0.116201
    28  H    0.113930
    29  C    0.168651
    30  O   -0.321393
    31  C    0.007821
    32  N   -0.213437
    33  C    0.109563
    34  H    0.017712
    35  H   -0.031722
    36  H    0.034554
    37  H    0.023125
    38  H    0.052762
    39  H    0.049475
    40  H    0.075912
    41  H    0.025111
    42  C   -0.101256
    43  O   -0.268687
    44  C    0.167747
    45  H    0.129165
    46  N   -0.109258
    47  O   -0.336042
    48  C    0.325136
    49  H    0.043421
    50  C    0.168044
    51  C    0.038247
    52  N   -0.270748
    53  H    0.033193
    54  H    0.043742
    55  H    0.024045
    56  H    0.123625
    57  H    0.120055
    58  N   -0.059344
    59  C    0.101586
    60  C    0.178139
    61  N   -0.250282
    62  H    0.011952
    63  C    0.165952
    64  N   -0.295111
    65  H    0.036195
    66  C    0.119601
    67  N   -0.247765
    68  C    0.058158
    69  C    0.182160
    70  N   -0.304380
 Sum of Mulliken charges =  -0.00000

 Dipole moment (field-independent basis, Debye):
    X=             -5.1756    Y=              6.5300    Z=             -4.5996  Tot=              9.5176
 Quadrupole moment (field-independent basis, Debye-Ang):
   XX=           -147.9399   YY=           -227.0495   ZZ=           -262.8820
   XY=            -10.4196   XZ=              0.8745   YZ=             10.3989

 Normal termination of Gaussian 16 at Thu Jan 18 22:30:29 2018.
