 Gaussian 16, Revision A.03,
 Gaussian 16:  EM64L-G16RevA.03 25-Dec-2016

 ---------------------------------------
 #p wb97xd/cc-pvdz sp scf=(maxcycles=20)
 ---------------------------------------

 ------------------
 Base pair stacking
 ------------------
 Symbolic Z-matrix:
 Charge =  0 Multiplicity = 1

                         Standard orientation:
 ---------------------------------------------------------------------
 Center     Atomic      Atomic             Coordinates (Angstroms)
 Number     Number       Type             X           Y           Z
 ---------------------------------------------------------------------
      1          7           0       -5.446993   -1.772015    0.652536
      2          6           0       -6.742452   -1.443972    1.278796
      3          6           0       -3.295456   -1.953149    0.233749
      4          7           0       -3.949307   -2.585684   -0.813679
      5          6           0       -5.219363   -2.451236   -0.519459
      6          1           0       -6.040359   -2.831737   -1.127825
      7          7           0       -1.618093   -1.078672    1.642547
      8          6           0       -2.609915   -0.647911    2.428878
      9          1           0       -2.294888   -0.114278    3.324558
     10          7           0       -3.926281   -0.776762    2.275619
     11          6           0       -4.205481   -1.446678    1.145269
     12          6           0       -1.931764   -1.749398    0.512580
     13          7           0       -0.943097   -2.180182   -0.273638
     14          1           0       -1.128876   -2.680969   -1.119762
     15          1           0        0.016459   -2.017132   -0.043824
     16          1           0       -7.240837   -2.287715    1.478498
     17          1           0       -6.585035   -0.941860    2.128635
     18          1           0       -7.283002   -0.879233    0.655193
     19          7           0       -4.728693    1.767947   -0.526171
     20          6           0       -3.375667    1.931718   -0.351346
     21          6           0       -5.779324    2.458508    0.248434
     22          7           0       -0.716569    3.431915    1.304040
     23          1           0        0.282157    3.406551    1.270272
     24          1           0       -1.132357    4.038784    1.981946
     25          7           0       -2.783425    2.744456    0.550174
     26          6           0       -1.465482    2.686014    0.477812
     27          7           0       -0.778176    1.892973   -0.408867
     28          1           0        0.229966    1.912147   -0.393110
     29          6           0       -1.366881    1.048910   -1.345268
     30          8           0       -0.655141    0.374604   -2.099906
     31          6           0       -2.782457    1.100878   -1.279573
     32          7           0       -3.743726    0.429029   -2.022197
     33          6           0       -4.880114    0.855247   -1.541404
     34          1           0       -5.861878    0.535287   -1.892170
     35          1           0       -6.344776    1.783823    0.721568
     36          1           0       -5.352533    3.063371    0.919446
     37          1           0       -6.350822    2.997924   -0.369008
     38          1           0        5.211444    1.977988    0.623364
     39          1           0        5.264447    3.088302   -0.743758
     40          1           0        3.839326    3.036489    0.294372
     41          1           0        4.911359   -1.123312   -3.042495
     42          6           0        4.275557   -0.424092   -2.499273
     43          8           0        2.248827   -1.341316   -3.322775
     44          6           0        2.854118   -0.521068   -2.633131
     45          1           0        1.136077    0.373815   -1.972951
     46          7           0        2.143339    0.410749   -1.903901
     47          8           0        1.943442    2.170491   -0.482456
     48          6           0        2.655128    1.389448   -1.089194
     49          1           0        5.878911    0.635743   -1.576343
     50          6           0        4.804427    0.519935   -1.712062
     51          6           0        4.626390    2.447913   -0.153131
     52          7           0        4.033668    1.418849   -1.011872
     53          1           0        5.774064    0.359909    4.085652
     54          1           0        4.456309    1.201604    3.619622
     55          1           0        5.921213    1.571318    3.002023
     56          1           0        2.383258   -3.135009   -1.513761
     57          1           0        4.076151   -3.152450   -1.304184
     58          7           0        3.185247   -2.793762   -1.023359
     59          6           0        3.072799   -1.900095   -0.038529
     60          6           0        3.892854   -0.467685    1.675375
     61          7           0        2.683591   -0.003472    2.031199
     62          1           0        0.716053   -0.234872    1.505971
     63          6           0        1.732053   -0.557461    1.282481
     64          7           0        1.842656   -1.452711    0.295632
     65          1           0        7.109098   -0.786735    1.753603
     66          6           0        6.045073   -0.860549    1.527010
     67          7           0        5.532698   -1.629301    0.597402
     68          6           0        4.168732   -1.389802    0.680818
     69          6           0        5.333141    0.827251    3.319381
     70          7           0        5.109813   -0.129692    2.218290
 ---------------------------------------------------------------------

 SCF Done:  E(RwB97XD) =  -2048.74764933     A.U. after   15 cycles

 The electronic state is 1-A.
 Alpha  occ. eigenvalues --  -19.25587 -19.21751 -19.20701 -14.52255 -14.52196
 Alpha  occ. eigenvalues --  -14.48975 -14.48969 -14.47581 -14.47169 -14.46944
 Alpha  occ. eigenvalues --  -14.46719 -14.45126 -14.43969 -14.43860 -14.42392
 Alpha  occ. eigenvalues --  -14.42063 -14.41341 -14.41169 -14.41027 -14.40546
 Alpha  occ. eigenvalues --  -10.45177 -10.41289 -10.39961 -10.39313 -10.38338
 Alpha  occ. eigenvalues --  -10.37731 -10.37299 -10.36867 -10.35646 -10.35440
 Alpha  occ. eigenvalues --  -10.35180 -10.34485 -10.34097 -10.33895 -10.33563
 Alpha  occ. eigenvalues --  -10.33541 -10.33345 -10.32247 -10.31519 -10.31147
 Alpha  occ. eigenvalues --  -10.30642 -10.28666 -10.28237  -1.19181  -1.14960
 Alpha  occ. eigenvalues --   -1.13283  -1.12924  -1.11495  -1.10731  -1.09068
 Alpha  occ. eigenvalues --   -1.08793  -1.08634  -1.05270  -1.04279  -1.02299
 Alpha  occ. eigenvalues --   -1.00662  -1.00614  -0.99798  -0.98615  -0.97127
 Alpha  occ. eigenvalues --   -0.96725  -0.96379  -0.92927  -0.90692  -0.87332
 Alpha  occ. eigenvalues --   -0.85702  -0.84300  -0.84151  -0.83520  -0.82749
 Alpha  occ. eigenvalues --   -0.82550  -0.78576  -0.76625  -0.74756  -0.74453
 Alpha  occ. eigenvalues --   -0.73695  -0.73117  -0.73102  -0.71253  -0.69958
 Alpha  occ. eigenvalues --   -0.67476  -0.66513  -0.66382  -0.66236  -0.64440
 Alpha  occ. eigenvalues --   -0.63800  -0.63717  -0.62908  -0.62688  -0.61853
 Alpha  occ. eigenvalues --   -0.61009  -0.60522  -0.60054  -0.59209  -0.59126
 Alpha  occ. eigenvalues --   -0.58606  -0.58442  -0.57488  -0.56781  -0.56193
 Alpha  occ. eigenvalues --   -0.55843  -0.55639  -0.55038  -0.54734  -0.54223
 Alpha  occ. eigenvalues --   -0.53765  -0.53675  -0.53333  -0.53055  -0.52816
 Alpha  occ. eigenvalues --   -0.52486  -0.52254  -0.52070  -0.51027  -0.50501
 Alpha  occ. eigenvalues --   -0.50281  -0.49784  -0.49498  -0.49233  -0.49038
 Alpha  occ. eigenvalues --   -0.48896  -0.48446  -0.47848  -0.47696  -0.47394
 Alpha  occ. eigenvalues --   -0.47169  -0.46143  -0.44950  -0.44340  -0.43160
 Alpha  occ. eigenvalues --   -0.41261  -0.40379  -0.39225  -0.37731  -0.37350
 Alpha  occ. eigenvalues --   -0.37288  -0.37175  -0.37104  -0.36013  -0.34498
 Alpha  occ. eigenvalues --   -0.34179  -0.33880  -0.33561  -0.33493  -0.33133
 Alpha  occ. eigenvalues --   -0.32730  -0.32298  -0.31897  -0.31677  -0.31080
 Alpha  occ. eigenvalues --   -0.30627  -0.29352  -0.26401  -0.25117
 Alpha virt. eigenvalues --    0.03325   0.04473   0.07279   0.07556   0.08535
 Alpha virt. eigenvalues --    0.09236   0.09630   0.10645   0.10836   0.11965
 Alpha virt. eigenvalues --    0.13059   0.13473   0.14167   0.14312   0.14930

 Mulliken charges:
               1
     1  N   -0.305480
     2  C    0.178297
     3  C    0.055245
     4  N   -0.239642
     5  C    0.126192
     6  H    0.024155
     7  N   -0.292886
     8  C    0.136080
     9  H    0.011021
    10  N   -0.287711
    11  C    0.231628
    12  C    0.087549
    13  N   -0.042664
    14  H    0.114436
    15  H    0.086205
    16  H    0.028298
    17  H    0.035344
    18  H    0.018367
    19  N   -0.303521
    20  C    0.258675
    21  C    0.183657
    22  N   -0.124359
    23  H    0.118089
    24  H    0.118764
    25  N   -0.309545
    26  C    0.247498
    27  N   -0.144520
    28  H    0.118362
    29  C    0.188547
    30  O   -0.325487
    31  C   -0.020334
    32  N   -0.212910
    33  C    0.119109
    34  H    0.018097
    35  H    0.018803
    36  H    0.032392
    37  H    0.024067
    38  H    0.042698
    39  H    0.060260
    40  H    0.077136
    41  H    0.020969
    42  C   -0.100219
    43  O   -0.279536
    44  C    0.157266
    45  H    0.129613
    46  N   -0.103345
    47  O   -0.347820
    48  C    0.336986
    49  H    0.044246
    50  C    0.176863
    51  C    0.045635
    52  N   -0.277010
    53  H    0.034914
    54  H    0.042317
    55  H    0.022800
    56  H    0.127487
    57  H    0.115870
    58  N   -0.036139
    59  C    0.067603
    60  C    0.225443
    61  N   -0.265779
    62  H    0.028546
    63  C    0.158017
    64  N   -0.294567
    65  H    0.034777
    66  C    0.120483
    67  N   -0.251912
    68  C    0.042815
    69  C    0.178563
    70  N   -0.304798
 Sum of Mulliken charges =  -0.00000

 Dipole moment (field-independent basis, Debye):
    X=              5.2985    Y=              5.1178    Z=              5.6349  Tot=              9.2746
 Quadrupole moment (field-independent basis, Debye-Ang):
   XX=           -146.3747   YY=           -226.8142   ZZ=           -257.5085
   XY=              8.8472   XZ=              6.3918   YZ=              8.9743

 Normal termination of Gaussian 16 at Thu Jan 18 18:23:27 2018.
