 Gaussian 16, Revision A.03,
 Gaussian 16:  EM64L-G16RevA.03 25-Dec-2016

 ---------------------------------------
 #p wb97xd/cc-pvdz sp scf=(maxcycles=20)
 ---------------------------------------

 ------------------
 Base pair stacking
 ------------------
 Symbolic Z-matrix:
 Charge =  0 Multiplicity = 1

                         Standard orientation:
 ---------------------------------------------------------------------
 Center     Atomic      Atomic             Coordinates (Angstroms)
 Number     Number       Type             X           Y           Z
 ---------------------------------------------------------------------
      1          7           0        4.852782   -0.987076   -1.651473
      2          6           0        6.151361   -0.320732   -1.869805
      3          6           0        2.700416   -1.392092   -1.449978
      4          7           0        3.346236   -2.595594   -1.206599
      5          6           0        4.617104   -2.303418   -1.337728
      6          1           0        5.433008   -3.016355   -1.215412
      7          7           0        1.034650    0.251791   -1.742886
      8          6           0        2.031025    1.108486   -1.989616
      9          1           0        1.722620    2.129920   -2.208279
     10          7           0        3.345012    0.893868   -2.006700
     11          6           0        3.615965   -0.391443   -1.725647
     12          6           0        1.340032   -1.034177   -1.463402
     13          7           0        0.346807   -1.890842   -1.216843
     14          1           0        0.526439   -2.852223   -1.005449
     15          1           0       -0.610181   -1.601030   -1.235004
     16          1           0        6.628591   -0.759102   -2.631550
     17          1           0        6.000092    0.643956   -2.083375
     18          1           0        6.709062   -0.393843   -1.042983
     19          7           0        5.320137    0.896446    0.973466
     20          6           0        3.969166    1.147075    0.964036
     21          6           0        6.367157    1.843662    0.540781
     22          7           0        1.311166    3.285050    0.311459
     23          1           0        0.314303    3.265847    0.383187
     24          1           0        1.724703    4.125700   -0.039276
     25          7           0        3.375983    2.291572    0.561154
     26          6           0        2.060568    2.231354    0.669254
     27          7           0        1.376465    1.135134    1.135958
     28          1           0        0.370097    1.178266    1.184282
     29          6           0        1.966189   -0.053028    1.555903
     30          8           0        1.257400   -0.983054    1.960130
     31          6           0        3.379077   -0.003442    1.445607
     32          7           0        4.340259   -0.957184    1.751209
     33          6           0        5.473538   -0.380463    1.455773
     34          1           0        6.454320   -0.843183    1.570842
     35          1           0        6.885734    1.447030   -0.215911
     36          1           0        5.939657    2.695200    0.240122
     37          1           0        6.983826    2.032951    1.304127
     38          1           0       -4.640321    1.791989    0.574553
     39          1           0       -4.594652    2.160971    2.296882
     40          1           0       -3.214328    2.559638    1.273584
     41          1           0       -4.324740   -2.641031    2.417195
     42          6           0       -3.682529   -1.783424    2.216435
     43          8           0       -1.664453   -3.012432    2.426219
     44          6           0       -2.262100   -1.957250    2.216007
     45          1           0       -0.535931   -0.892522    1.942138
     46          7           0       -1.542771   -0.809380    1.951014
     47          8           0       -1.326611    1.399917    1.471977
     48          6           0       -2.045467    0.441999    1.696262
     49          1           0       -5.275945   -0.390164    1.960195
     50          6           0       -4.202628   -0.575101    1.971351
     51          6           0       -4.006766    1.846893    1.447293
     52          7           0       -3.423618    0.529140    1.714135
     53          1           0       -6.337922    3.099329   -2.211032
     54          1           0       -4.997826    3.322057   -1.307350
     55          1           0       -6.449584    3.142090   -0.583418
     56          1           0       -2.992658   -3.411007   -0.990296
     57          1           0       -4.686836   -3.251421   -1.110181
     58          7           0       -3.789694   -2.811076   -1.060745
     59          6           0       -3.662929   -1.482778   -1.087652
     60          6           0       -4.460636    0.756036   -1.202011
     61          7           0       -3.243254    1.319752   -1.134014
     62          1           0       -1.278220    0.756703   -0.984847
     63          6           0       -2.299972    0.384260   -1.044601
     64          7           0       -2.424918   -0.946616   -1.017510
     65          1           0       -7.683903    0.630325   -1.418618
     66          6           0       -6.620412    0.402846   -1.339950
     67          7           0       -6.119989   -0.806629   -1.273422
     68          6           0       -4.751383   -0.597007   -1.185636
     69          6           0       -5.881155    2.856688   -1.355169
     70          7           0       -5.672943    1.396613   -1.301885
 ---------------------------------------------------------------------

 SCF Done:  E(RwB97XD) =  -2048.72932996     A.U. after   15 cycles

 The electronic state is 1-A.
 Alpha  occ. eigenvalues --  -19.25110 -19.21341 -19.20668 -14.52919 -14.51620
 Alpha  occ. eigenvalues --  -14.49246 -14.49066 -14.48374 -14.47092 -14.46623
 Alpha  occ. eigenvalues --  -14.46615 -14.45686 -14.44644 -14.44542 -14.42952
 Alpha  occ. eigenvalues --  -14.41712 -14.41446 -14.41394 -14.41347 -14.40935
 Alpha  occ. eigenvalues --  -10.44714 -10.40987 -10.40289 -10.39426 -10.38264
 Alpha  occ. eigenvalues --  -10.38263 -10.37500 -10.37001 -10.36174 -10.35994
 Alpha  occ. eigenvalues --  -10.34473 -10.34435 -10.34261 -10.33815 -10.33748
 Alpha  occ. eigenvalues --  -10.33719 -10.33553 -10.33001 -10.31640 -10.31400
 Alpha  occ. eigenvalues --  -10.30275 -10.28848 -10.28340  -1.18776  -1.15707
 Alpha  occ. eigenvalues --   -1.13270  -1.12350  -1.11640  -1.10881  -1.09680
 Alpha  occ. eigenvalues --   -1.08607  -1.08465  -1.05642  -1.05181  -1.01752
 Alpha  occ. eigenvalues --   -1.01376  -1.01016  -0.99672  -0.98568  -0.97426
 Alpha  occ. eigenvalues --   -0.97204  -0.96843  -0.93323  -0.90226  -0.88053
 Alpha  occ. eigenvalues --   -0.86371  -0.84789  -0.84074  -0.83217  -0.82747
 Alpha  occ. eigenvalues --   -0.82578  -0.78115  -0.77407  -0.75292  -0.74827
 Alpha  occ. eigenvalues --   -0.73664  -0.73325  -0.72621  -0.71552  -0.70755
 Alpha  occ. eigenvalues --   -0.67471  -0.67176  -0.66782  -0.65849  -0.64597
 Alpha  occ. eigenvalues --   -0.64477  -0.63404  -0.63260  -0.62606  -0.61846
 Alpha  occ. eigenvalues --   -0.61725  -0.61038  -0.60787  -0.59922  -0.58959
 Alpha  occ. eigenvalues --   -0.58893  -0.58737  -0.58314  -0.57118  -0.56156
 Alpha  occ. eigenvalues --   -0.55723  -0.55591  -0.55097  -0.54757  -0.54248
 Alpha  occ. eigenvalues --   -0.54134  -0.53885  -0.53264  -0.53228  -0.52987
 Alpha  occ. eigenvalues --   -0.52792  -0.52219  -0.51462  -0.50964  -0.50446
 Alpha  occ. eigenvalues --   -0.50359  -0.50062  -0.49410  -0.49247  -0.49014
 Alpha  occ. eigenvalues --   -0.48650  -0.48515  -0.48110  -0.47819  -0.47479
 Alpha  occ. eigenvalues --   -0.47072  -0.46066  -0.45136  -0.44864  -0.42641
 Alpha  occ. eigenvalues --   -0.41349  -0.40979  -0.38846  -0.38015  -0.37934
 Alpha  occ. eigenvalues --   -0.37784  -0.37203  -0.36834  -0.35808  -0.34948
 Alpha  occ. eigenvalues --   -0.34600  -0.34240  -0.33934  -0.33710  -0.32970
 Alpha  occ. eigenvalues --   -0.32826  -0.32443  -0.31927  -0.31298  -0.31070
 Alpha  occ. eigenvalues --   -0.30580  -0.30246  -0.27120  -0.24658
 Alpha virt. eigenvalues --    0.03607   0.03880   0.06525   0.06816   0.08152
 Alpha virt. eigenvalues --    0.09182   0.09812   0.10098   0.11369   0.12679
 Alpha virt. eigenvalues --    0.12996   0.13205   0.14089   0.14529   0.14945

 Mulliken charges:
               1
     1  N   -0.295290
     2  C    0.183199
     3  C    0.067171
     4  N   -0.248483
     5  C    0.142316
     6  H    0.025611
     7  N   -0.281215
     8  C    0.130656
     9  H    0.001181
    10  N   -0.265706
    11  C    0.219383
    12  C    0.066876
    13  N   -0.048711
    14  H    0.113060
    15  H    0.084673
    16  H    0.027832
    17  H    0.037686
    18  H    0.007447
    19  N   -0.296169
    20  C    0.235911
    21  C    0.186665
    22  N   -0.105588
    23  H    0.120177
    24  H    0.119302
    25  N   -0.272026
    26  C    0.180827
    27  N   -0.112069
    28  H    0.120187
    29  C    0.170737
    30  O   -0.319240
    31  C    0.002026
    32  N   -0.210848
    33  C    0.100202
    34  H    0.024105
    35  H   -0.002382
    36  H    0.036117
    37  H    0.026063
    38  H    0.025976
    39  H    0.047178
    40  H    0.076684
    41  H    0.021782
    42  C   -0.103089
    43  O   -0.271639
    44  C    0.172819
    45  H    0.128859
    46  N   -0.110900
    47  O   -0.344699
    48  C    0.316004
    49  H    0.044920
    50  C    0.160791
    51  C    0.070274
    52  N   -0.272082
    53  H    0.037311
    54  H    0.042987
    55  H    0.031790
    56  H    0.124812
    57  H    0.119793
    58  N   -0.059125
    59  C    0.108494
    60  C    0.200506
    61  N   -0.267530
    62  H    0.021488
    63  C    0.175996
    64  N   -0.307611
    65  H    0.038536
    66  C    0.134350
    67  N   -0.253797
    68  C    0.047230
    69  C    0.179752
    70  N   -0.309545
 Sum of Mulliken charges =  -0.00000

 Dipole moment (field-independent basis, Debye):
    X=             -5.4811    Y=              7.2184    Z=             -3.3004  Tot=              9.6457
 Quadrupole moment (field-independent basis, Debye-Ang):
   XX=           -147.7977   YY=           -229.4892   ZZ=           -259.2738
   XY=             -6.8715   XZ=             -7.2719   YZ=             13.8565

 Normal termination of Gaussian 16 at Thu Jan 18 19:38:18 2018.
