 Gaussian 16, Revision A.03,
 Gaussian 16:  EM64L-G16RevA.03 25-Dec-2016

 ---------------------------------------
 #p wb97xd/cc-pvdz sp scf=(maxcycles=20)
 ---------------------------------------

 ------------------
 Base pair stacking
 ------------------
 Symbolic Z-matrix:
 Charge =  0 Multiplicity = 1

                         Standard orientation:
 ---------------------------------------------------------------------
 Center     Atomic      Atomic             Coordinates (Angstroms)
 Number     Number       Type             X           Y           Z
 ---------------------------------------------------------------------
      1          7           0        5.728972   -1.044596   -1.007401
      2          6           0        7.023216   -0.352113   -1.160320
      3          6           0        3.579327   -1.508274   -0.970501
      4          7           0        4.232793   -2.665152   -0.571302
      5          6           0        5.501719   -2.339504   -0.609514
      6          1           0        6.322112   -3.011228   -0.355219
      7          7           0        1.903171    0.047338   -1.547990
      8          6           0        2.894023    0.916524   -1.772279
      9          1           0        2.579117    1.905918   -2.101230
     10          7           0        4.209292    0.747830   -1.651797
     11          6           0        4.488431   -0.500818   -1.242682
     12          6           0        2.216744   -1.200876   -1.137263
     13          7           0        1.229058   -2.069942   -0.912855
     14          1           0        1.414807   -3.004636   -0.607795
     15          1           0        0.270276   -1.816505   -1.041941
     16          1           0        7.581802   -0.832220   -1.836828
     17          1           0        6.865797    0.586702   -1.465242
     18          1           0        7.502755   -0.339815   -0.282888
     19          7           0        4.445509    1.224118    1.182895
     20          6           0        3.095119    1.420118    1.021399
     21          6           0        5.504454    2.124759    0.684718
     22          7           0        0.456127    3.322464   -0.194550
     23          1           0       -0.542513    3.278843   -0.202236
     24          1           0        0.879437    4.108371   -0.646068
     25          7           0        2.513416    2.460038    0.385601
     26          6           0        1.195280    2.370329    0.394506
     27          7           0        0.498202    1.341726    0.980662
     28          1           0       -0.509279    1.355346    0.938774
     29          6           0        1.075977    0.261450    1.640249
     30          8           0        0.355978   -0.614545    2.135194
     31          6           0        2.491623    0.343893    1.638918
     32          7           0        3.443988   -0.510573    2.177265
     33          6           0        4.585298    0.050675    1.882982
     34          1           0        5.562604   -0.350516    2.153537
     35          1           0        6.095412    1.628084    0.049986
     36          1           0        5.085517    2.898854    0.211926
     37          1           0        6.048284    2.459753    1.453386
     38          1           0       -5.460630    1.676224   -0.172014
     39          1           0       -5.572600    2.325489    1.462166
     40          1           0       -4.118189    2.600308    0.502720
     41          1           0       -5.206001   -2.377833    2.406034
     42          6           0       -4.568307   -1.542109    2.117689
     43          8           0       -2.548794   -2.644968    2.694225
     44          6           0       -3.149623   -1.661482    2.262318
     45          1           0       -1.430646   -0.593964    1.955961
     46          7           0       -2.436090   -0.547434    1.868586
     47          8           0       -2.229099    1.559084    1.045830
     48          6           0       -2.942899    0.625566    1.367825
     49          1           0       -6.164537   -0.269463    1.502699
     50          6           0       -5.092315   -0.410592    1.632225
     51          6           0       -4.906433    1.897413    0.727983
     52          7           0       -4.319035    0.663927    1.258294
     53          1           0       -5.469542    2.586384   -2.918634
     54          1           0       -4.226817    2.927163   -1.917839
     55          1           0       -5.734476    2.753799   -1.317011
     56          1           0       -2.073248   -3.684588   -0.867851
     57          1           0       -3.752508   -3.594993   -1.154441
     58          7           0       -2.876582   -3.120666   -1.059688
     59          6           0       -2.784940   -1.795010   -1.183811
     60          6           0       -3.630529    0.398131   -1.553759
     61          7           0       -2.441075    1.008149   -1.421506
     62          1           0       -0.483753    0.528526   -1.048047
     63          6           0       -1.484623    0.116613   -1.169979
     64          7           0       -1.574390   -1.211528   -1.045286
     65          1           0       -6.814520    0.141751   -2.052382
     66          6           0       -5.757169   -0.041034   -1.858647
     67          7           0       -5.231655   -1.222998   -1.647748
     68          6           0       -3.883690   -0.958810   -1.453005
     69          6           0       -5.088452    2.428518   -2.007676
     70          7           0       -4.845518    0.985512   -1.816006
 ---------------------------------------------------------------------

 SCF Done:  E(RwB97XD) =  -2048.70871427     A.U. after   15 cycles

 The electronic state is 1-A.
 Alpha  occ. eigenvalues --  -19.25076 -19.21463 -19.20591 -14.52590 -14.51957
 Alpha  occ. eigenvalues --  -14.49528 -14.48525 -14.47784 -14.47328 -14.46752
 Alpha  occ. eigenvalues --  -14.46681 -14.45632 -14.44254 -14.44192 -14.43048
 Alpha  occ. eigenvalues --  -14.41962 -14.41830 -14.41278 -14.40744 -14.40672
 Alpha  occ. eigenvalues --  -10.44743 -10.41121 -10.39739 -10.39581 -10.38190
 Alpha  occ. eigenvalues --  -10.38183 -10.37259 -10.37200 -10.36132 -10.35700
 Alpha  occ. eigenvalues --  -10.34623 -10.34396 -10.34274 -10.34121 -10.33982
 Alpha  occ. eigenvalues --  -10.33548 -10.33243 -10.32664 -10.32114 -10.30506
 Alpha  occ. eigenvalues --  -10.30379 -10.29050 -10.28022  -1.18991  -1.15599
 Alpha  occ. eigenvalues --   -1.13166  -1.12492  -1.12039  -1.10442  -1.09268
 Alpha  occ. eigenvalues --   -1.08783  -1.08510  -1.05681  -1.04699  -1.02046
 Alpha  occ. eigenvalues --   -1.01355  -1.01156  -0.99688  -0.98450  -0.97726
 Alpha  occ. eigenvalues --   -0.96812  -0.96408  -0.93334  -0.90510  -0.88019
 Alpha  occ. eigenvalues --   -0.86502  -0.84770  -0.83947  -0.83314  -0.83209
 Alpha  occ. eigenvalues --   -0.82163  -0.78377  -0.77143  -0.74988  -0.74480
 Alpha  occ. eigenvalues --   -0.73599  -0.73554  -0.72950  -0.71695  -0.70512
 Alpha  occ. eigenvalues --   -0.67333  -0.67025  -0.66866  -0.66283  -0.64657
 Alpha  occ. eigenvalues --   -0.64358  -0.63894  -0.63430  -0.62728  -0.62517
 Alpha  occ. eigenvalues --   -0.61683  -0.61108  -0.60605  -0.59662  -0.59209
 Alpha  occ. eigenvalues --   -0.58589  -0.58280  -0.58030  -0.57301  -0.56407
 Alpha  occ. eigenvalues --   -0.55915  -0.55860  -0.55387  -0.54341  -0.54197
 Alpha  occ. eigenvalues --   -0.53914  -0.53811  -0.53394  -0.53054  -0.52780
 Alpha  occ. eigenvalues --   -0.52420  -0.52115  -0.51469  -0.51286  -0.50902
 Alpha  occ. eigenvalues --   -0.50074  -0.49803  -0.49489  -0.49080  -0.48890
 Alpha  occ. eigenvalues --   -0.48559  -0.48395  -0.48087  -0.47822  -0.47144
 Alpha  occ. eigenvalues --   -0.46760  -0.45914  -0.45693  -0.44454  -0.42667
 Alpha  occ. eigenvalues --   -0.41669  -0.40838  -0.39009  -0.37825  -0.37677
 Alpha  occ. eigenvalues --   -0.37589  -0.37095  -0.36802  -0.36131  -0.34805
 Alpha  occ. eigenvalues --   -0.34458  -0.34362  -0.33850  -0.33558  -0.32837
 Alpha  occ. eigenvalues --   -0.32435  -0.32212  -0.31734  -0.31444  -0.31134
 Alpha  occ. eigenvalues --   -0.30983  -0.29283  -0.26539  -0.25265
 Alpha virt. eigenvalues --    0.03604   0.03853   0.07018   0.07397   0.08683
 Alpha virt. eigenvalues --    0.09099   0.09457   0.10154   0.10736   0.12670
 Alpha virt. eigenvalues --    0.13408   0.13432   0.14122   0.14310   0.14619

 Mulliken charges:
               1
     1  N   -0.303935
     2  C    0.179683
     3  C    0.076027
     4  N   -0.248115
     5  C    0.125204
     6  H    0.026550
     7  N   -0.282464
     8  C    0.144205
     9  H    0.007689
    10  N   -0.284724
    11  C    0.212793
    12  C    0.078208
    13  N   -0.046253
    14  H    0.109954
    15  H    0.086469
    16  H    0.027541
    17  H    0.052135
    18  H    0.019878
    19  N   -0.277713
    20  C    0.214898
    21  C    0.213819
    22  N   -0.108793
    23  H    0.117632
    24  H    0.117177
    25  N   -0.293267
    26  C    0.219619
    27  N   -0.131670
    28  H    0.116388
    29  C    0.173768
    30  O   -0.321755
    31  C    0.004324
    32  N   -0.214559
    33  C    0.115384
    34  H    0.015567
    35  H   -0.030554
    36  H    0.032177
    37  H    0.021418
    38  H    0.054385
    39  H    0.052297
    40  H    0.071573
    41  H    0.026047
    42  C   -0.100339
    43  O   -0.268163
    44  C    0.167348
    45  H    0.130825
    46  N   -0.114034
    47  O   -0.329691
    48  C    0.324366
    49  H    0.041394
    50  C    0.169555
    51  C    0.037283
    52  N   -0.270683
    53  H    0.032246
    54  H    0.043652
    55  H    0.020950
    56  H    0.123081
    57  H    0.120093
    58  N   -0.059638
    59  C    0.105631
    60  C    0.188646
    61  N   -0.243609
    62  H    0.027618
    63  C    0.149916
    64  N   -0.295467
    65  H    0.036632
    66  C    0.116211
    67  N   -0.244303
    68  C    0.049729
    69  C    0.177621
    70  N   -0.305876
 Sum of Mulliken charges =  -0.00000

 Dipole moment (field-independent basis, Debye):
    X=             -5.0765    Y=              6.2518    Z=             -4.9486  Tot=              9.4522
 Quadrupole moment (field-independent basis, Debye-Ang):
   XX=           -147.3533   YY=           -226.0531   ZZ=           -263.5778
   XY=            -11.9748   XZ=              4.8553   YZ=              8.5882

 Normal termination of Gaussian 16 at Thu Jan 18 21:52:10 2018.
