 Gaussian 16, Revision A.03,
 Gaussian 16:  EM64L-G16RevA.03 25-Dec-2016

 ---------------------------------------
 #p wb97xd/cc-pvdz sp scf=(maxcycles=20)
 ---------------------------------------

 ------------------
 Base pair stacking
 ------------------
 Symbolic Z-matrix:
 Charge =  0 Multiplicity = 1

                         Standard orientation:
 ---------------------------------------------------------------------
 Center     Atomic      Atomic             Coordinates (Angstroms)
 Number     Number       Type             X           Y           Z
 ---------------------------------------------------------------------
      1          7           0        4.534805   -1.231986   -1.779913
      2          6           0        5.822055   -0.637191   -2.188818
      3          6           0        2.394617   -1.563388   -1.396396
      4          7           0        3.049291   -2.703768   -0.954060
      5          6           0        4.312475   -2.458466   -1.202824
      6          1           0        5.131945   -3.143598   -0.983702
      7          7           0        0.719796    0.011608   -1.922975
      8          6           0        1.704225    0.791188   -2.382035
      9          1           0        1.387362    1.753760   -2.781179
     10          7           0        3.015131    0.561331   -2.421871
     11          6           0        3.297164   -0.647315   -1.908004
     12          6           0        1.036140   -1.198416   -1.412252
     13          7           0        0.054855   -1.978044   -0.953512
     14          1           0        0.242863   -2.881584   -0.566874
     15          1           0       -0.901151   -1.685714   -0.980664
     16          1           0        6.258790   -1.221984   -2.872523
     17          1           0        5.662266    0.268815   -2.579660
     18          1           0        6.421060   -0.553868   -1.392417
     19          7           0        5.614019    0.963736    0.798194
     20          6           0        4.266787    1.232680    0.824056
     21          6           0        6.659270    1.885198    0.309252
     22          7           0        1.617764    3.390004    0.199253
     23          1           0        0.623459    3.386371    0.302202
     24          1           0        2.031053    4.215748   -0.185500
     25          7           0        3.676256    2.374728    0.410475
     26          6           0        2.364191    2.335413    0.560637
     27          7           0        1.680780    1.260857    1.076186
     28          1           0        0.677060    1.319080    1.154423
     29          6           0        2.267813    0.075627    1.508028
     30          8           0        1.559940   -0.834029    1.957659
     31          6           0        3.677096    0.102919    1.352934
     32          7           0        4.634859   -0.855996    1.653073
     33          6           0        5.765777   -0.302610    1.308101
     34          1           0        6.743553   -0.775770    1.404660
     35          1           0        7.148761    1.462497   -0.452663
     36          1           0        6.233703    2.734711    0.000217
     37          1           0        7.301866    2.085138    1.048094
     38          1           0       -4.341531    1.986336    0.684141
     39          1           0       -4.237339    2.397965    2.394217
     40          1           0       -2.884556    2.751614    1.318905
     41          1           0       -4.026318   -2.402746    2.629162
     42          6           0       -3.379584   -1.559425    2.386762
     43          8           0       -1.372103   -2.810492    2.565577
     44          6           0       -1.962240   -1.752791    2.346944
     45          1           0       -0.231746   -0.719240    1.992710
     46          7           0       -1.236650   -0.622011    2.030540
     47          8           0       -1.006823    1.571316    1.488587
     48          6           0       -1.730730    0.629366    1.759439
     49          1           0       -4.961951   -0.151202    2.144215
     50          6           0       -3.891306   -0.350597    2.126969
     51          6           0       -3.680392    2.054476    1.535204
     52          7           0       -3.106400    0.735949    1.817605
     53          1           0       -6.660596    2.802343   -2.574135
     54          1           0       -5.275623    3.181244   -1.799295
     55          1           0       -6.688950    3.164209   -0.983018
     56          1           0       -3.272125   -3.383534   -0.267885
     57          1           0       -4.969857   -3.229793   -0.332554
     58          7           0       -4.070354   -2.799291   -0.414990
     59          6           0       -3.942128   -1.503610   -0.708105
     60          6           0       -4.739569    0.679109   -1.219572
     61          7           0       -3.519026    1.230291   -1.323920
     62          1           0       -1.550228    0.683361   -1.164893
     63          6           0       -2.574536    0.318946   -1.099697
     64          7           0       -2.700936   -0.979262   -0.805974
     65          1           0       -7.969967    0.552835   -1.247150
     66          6           0       -6.904366    0.332169   -1.178259
     67          7           0       -6.403933   -0.846905   -0.900756
     68          6           0       -5.032158   -0.640902   -0.923780
     69          6           0       -6.161296    2.726343   -1.711048
     70          7           0       -5.953937    1.302516   -1.382874
 ---------------------------------------------------------------------

 SCF Done:  E(RwB97XD) =  -2048.75036947     A.U. after   15 cycles

 The electronic state is 1-A.
 Alpha  occ. eigenvalues --  -19.25179 -19.21488 -19.20730 -14.52793 -14.51650
 Alpha  occ. eigenvalues --  -14.49456 -14.48793 -14.48286 -14.47157 -14.46888
 Alpha  occ. eigenvalues --  -14.46732 -14.45592 -14.44698 -14.44619 -14.42824
 Alpha  occ. eigenvalues --  -14.42052 -14.41597 -14.41357 -14.41157 -14.40852
 Alpha  occ. eigenvalues --  -10.44760 -10.41311 -10.40226 -10.39530 -10.38414
 Alpha  occ. eigenvalues --  -10.38181 -10.37537 -10.36911 -10.36214 -10.35895
 Alpha  occ. eigenvalues --  -10.34757 -10.34184 -10.34023 -10.33978 -10.33974
 Alpha  occ. eigenvalues --  -10.33610 -10.33522 -10.33014 -10.31667 -10.31228
 Alpha  occ. eigenvalues --  -10.30285 -10.28760 -10.28526  -1.18745  -1.15525
 Alpha  occ. eigenvalues --   -1.13404  -1.12463  -1.11398  -1.11061  -1.09659
 Alpha  occ. eigenvalues --   -1.08699  -1.08475  -1.05501  -1.05139  -1.01790
 Alpha  occ. eigenvalues --   -1.01207  -1.00865  -0.99817  -0.98778  -0.97288
 Alpha  occ. eigenvalues --   -0.97117  -0.96946  -0.93185  -0.90248  -0.87946
 Alpha  occ. eigenvalues --   -0.86179  -0.84671  -0.84080  -0.83115  -0.82695
 Alpha  occ. eigenvalues --   -0.82550  -0.78137  -0.77296  -0.75198  -0.74989
 Alpha  occ. eigenvalues --   -0.73767  -0.73169  -0.72642  -0.71380  -0.70663
 Alpha  occ. eigenvalues --   -0.67592  -0.67067  -0.66594  -0.65854  -0.64630
 Alpha  occ. eigenvalues --   -0.64471  -0.63371  -0.63046  -0.62751  -0.61967
 Alpha  occ. eigenvalues --   -0.60950  -0.60817  -0.60590  -0.59778  -0.58884
 Alpha  occ. eigenvalues --   -0.58859  -0.58472  -0.58315  -0.56868  -0.55918
 Alpha  occ. eigenvalues --   -0.55705  -0.55565  -0.55504  -0.54448  -0.54224
 Alpha  occ. eigenvalues --   -0.54199  -0.53868  -0.53357  -0.53149  -0.53064
 Alpha  occ. eigenvalues --   -0.52755  -0.51964  -0.51541  -0.50670  -0.50597
 Alpha  occ. eigenvalues --   -0.50439  -0.50227  -0.49493  -0.49280  -0.49138
 Alpha  occ. eigenvalues --   -0.48799  -0.48486  -0.48229  -0.47605  -0.47234
 Alpha  occ. eigenvalues --   -0.47180  -0.45888  -0.45339  -0.45132  -0.42661
 Alpha  occ. eigenvalues --   -0.41402  -0.40965  -0.38938  -0.38049  -0.37831
 Alpha  occ. eigenvalues --   -0.37744  -0.37383  -0.37187  -0.35635  -0.34959
 Alpha  occ. eigenvalues --   -0.34585  -0.34171  -0.33690  -0.33548  -0.33125
 Alpha  occ. eigenvalues --   -0.33027  -0.32590  -0.32031  -0.31139  -0.31092
 Alpha  occ. eigenvalues --   -0.30768  -0.30353  -0.26761  -0.25188
 Alpha virt. eigenvalues --    0.03098   0.04489   0.06582   0.07528   0.08577
 Alpha virt. eigenvalues --    0.09040   0.09582   0.10131   0.10688   0.12507
 Alpha virt. eigenvalues --    0.13149   0.13516   0.14033   0.14495   0.14775

 Mulliken charges:
               1
     1  N   -0.298583
     2  C    0.187894
     3  C    0.048925
     4  N   -0.245834
     5  C    0.148685
     6  H    0.026259
     7  N   -0.288907
     8  C    0.123596
     9  H    0.006550
    10  N   -0.275466
    11  C    0.232474
    12  C    0.078779
    13  N   -0.054369
    14  H    0.116471
    15  H    0.087049
    16  H    0.026703
    17  H    0.034477
    18  H    0.003708
    19  N   -0.303397
    20  C    0.248099
    21  C    0.183918
    22  N   -0.117073
    23  H    0.119371
    24  H    0.119348
    25  N   -0.298133
    26  C    0.231390
    27  N   -0.131578
    28  H    0.120096
    29  C    0.183508
    30  O   -0.318579
    31  C   -0.008938
    32  N   -0.212781
    33  C    0.099383
    34  H    0.023919
    35  H    0.010434
    36  H    0.035069
    37  H    0.028172
    38  H    0.048654
    39  H    0.050590
    40  H    0.073980
    41  H    0.017896
    42  C   -0.100315
    43  O   -0.275006
    44  C    0.174169
    45  H    0.130433
    46  N   -0.118776
    47  O   -0.347575
    48  C    0.327924
    49  H    0.046291
    50  C    0.155206
    51  C    0.054903
    52  N   -0.271246
    53  H    0.037355
    54  H    0.041912
    55  H    0.030111
    56  H    0.125633
    57  H    0.118725
    58  N   -0.057552
    59  C    0.098784
    60  C    0.212586
    61  N   -0.265139
    62  H    0.032208
    63  C    0.166669
    64  N   -0.307005
    65  H    0.039592
    66  C    0.138821
    67  N   -0.257557
    68  C    0.039326
    69  C    0.177764
    70  N   -0.310001
 Sum of Mulliken charges =  -0.00000

 Dipole moment (field-independent basis, Debye):
    X=             -5.5699    Y=              7.3320    Z=             -2.9373  Tot=              9.6648
 Quadrupole moment (field-independent basis, Debye-Ang):
   XX=           -147.3742   YY=           -227.2455   ZZ=           -258.9598
   XY=             -6.0103   XZ=             -9.8392   YZ=             10.4753

 Normal termination of Gaussian 16 at Thu Jan 18 16:44:16 2018.
