 Gaussian 16, Revision A.03,
 Gaussian 16:  EM64L-G16RevA.03 25-Dec-2016

 ---------------------------------------
 #p wb97xd/cc-pvdz sp scf=(maxcycles=20)
 ---------------------------------------

 ------------------
 Base pair stacking
 ------------------
 Symbolic Z-matrix:
 Charge =  0 Multiplicity = 1

                         Standard orientation:
 ---------------------------------------------------------------------
 Center     Atomic      Atomic             Coordinates (Angstroms)
 Number     Number       Type             X           Y           Z
 ---------------------------------------------------------------------
      1          7           0        5.443538   -1.306254   -1.115814
      2          6           0        6.742437   -0.700156   -1.467274
      3          6           0        3.289368   -1.690772   -0.894414
      4          7           0        3.938179   -2.750105   -0.276692
      5          6           0        5.210016   -2.476053   -0.434803
      6          1           0        6.028214   -3.098475   -0.071351
      7          7           0        1.618582   -0.253057   -1.733697
      8          6           0        2.614569    0.518225   -2.181718
      9          1           0        2.303907    1.420139   -2.707351
     10          7           0        3.930506    0.343488   -2.078400
     11          6           0        4.204150   -0.792812   -1.416296
     12          6           0        1.926708   -1.389536   -1.071456
     13          7           0        0.933888   -2.160757   -0.623467
     14          1           0        1.115509   -3.010960   -0.128104
     15          1           0       -0.024763   -1.915130   -0.767649
     16          1           0        7.261664   -1.331856   -2.043069
     17          1           0        6.589201    0.153300   -1.964506
     18          1           0        7.260298   -0.509697   -0.633289
     19          7           0        4.737590    1.343117    1.006022
     20          6           0        3.385584    1.549090    0.872995
     21          6           0        5.792589    2.204532    0.435363
     22          7           0        0.735897    3.425669   -0.359624
     23          1           0       -0.263011    3.395045   -0.337283
     24          1           0        1.155514    4.183216   -0.860390
     25          7           0        2.798445    2.564847    0.203992
     26          6           0        1.480127    2.493242    0.254049
     27          7           0        0.787810    1.503437    0.908660
     28          1           0       -0.220219    1.528448    0.894304
     29          6           0        1.371207    0.448567    1.603472
     30          8           0        0.655204   -0.392901    2.160247
     31          6           0        2.787137    0.511984    1.558604
     32          7           0        3.744180   -0.328176    2.110956
     33          6           0        4.883261    0.202984    1.758039
     34          1           0        5.863023   -0.197696    2.020330
     35          1           0        6.359197    1.670037   -0.190792
     36          1           0        5.369609    2.960473   -0.062544
     37          1           0        6.362102    2.568874    1.171382
     38          1           0       -5.197069    1.861425   -0.092014
     39          1           0       -5.254574    2.590065    1.511239
     40          1           0       -3.824960    2.798956    0.499342
     41          1           0       -4.917472   -2.066817    2.671552
     42          6           0       -4.278315   -1.254530    2.325303
     43          8           0       -2.256499   -2.355158    2.898030
     44          6           0       -2.857600   -1.385695    2.435871
     45          1           0       -1.135428   -0.357168    2.030192
     46          7           0       -2.142329   -0.301507    1.968782
     47          8           0       -1.933724    1.760010    1.039354
     48          6           0       -2.649169    0.852672    1.426055
     49          1           0       -5.876104    0.008187    1.694114
     50          6           0       -4.802395   -0.140816    1.800346
     51          6           0       -4.614797    2.118286    0.780362
     52          7           0       -4.027307    0.904052    1.353283
     53          1           0       -5.758914    2.128773   -3.340465
     54          1           0       -4.467207    2.645411   -2.488016
     55          1           0       -5.949890    2.649506   -1.805600
     56          1           0       -2.392640   -3.634155   -0.096633
     57          1           0       -4.080946   -3.562766   -0.330346
     58          7           0       -3.193030   -3.103714   -0.376192
     59          6           0       -3.082349   -1.840312   -0.791803
     60          6           0       -3.902534    0.241547   -1.601049
     61          7           0       -2.697280    0.832456   -1.652335
     62          1           0       -0.734656    0.391882   -1.259124
     63          6           0       -1.747395   -0.008757   -1.248610
     64          7           0       -1.856242   -1.274518   -0.831973
     65          1           0       -7.109610   -0.029083   -1.906965
     66          6           0       -6.048321   -0.194393   -1.719111
     67          7           0       -5.536072   -1.315807   -1.274463
     68          6           0       -4.176157   -1.052988   -1.195076
     69          6           0       -5.341068    2.163315   -2.432605
     70          7           0       -5.116777    0.790930   -1.938393
 ---------------------------------------------------------------------

 SCF Done:  E(RwB97XD) =  -2048.74597633     A.U. after   15 cycles

 The electronic state is 1-A.
 Alpha  occ. eigenvalues --  -19.25261 -19.21566 -19.20549 -14.52538 -14.51972
 Alpha  occ. eigenvalues --  -14.49234 -14.48835 -14.47791 -14.47338 -14.46701
 Alpha  occ. eigenvalues --  -14.46573 -14.45421 -14.44239 -14.44222 -14.42836
 Alpha  occ. eigenvalues --  -14.41855 -14.41639 -14.41371 -14.40966 -14.40829
 Alpha  occ. eigenvalues --  -10.44898 -10.41076 -10.39739 -10.39678 -10.38181
 Alpha  occ. eigenvalues --  -10.38004 -10.37194 -10.37157 -10.35983 -10.35783
 Alpha  occ. eigenvalues --  -10.34651 -10.34367 -10.34319 -10.34293 -10.33805
 Alpha  occ. eigenvalues --  -10.33586 -10.33491 -10.32541 -10.31862 -10.30965
 Alpha  occ. eigenvalues --  -10.30547 -10.28919 -10.28119  -1.18960  -1.15342
 Alpha  occ. eigenvalues --   -1.13127  -1.12585  -1.11767  -1.10594  -1.09171
 Alpha  occ. eigenvalues --   -1.08851  -1.08465  -1.05577  -1.04645  -1.02043
 Alpha  occ. eigenvalues --   -1.01062  -1.00948  -0.99625  -0.98445  -0.97451
 Alpha  occ. eigenvalues --   -0.96745  -0.96588  -0.93246  -0.90513  -0.87694
 Alpha  occ. eigenvalues --   -0.86122  -0.84543  -0.84081  -0.83299  -0.83014
 Alpha  occ. eigenvalues --   -0.82456  -0.78383  -0.76984  -0.74809  -0.74595
 Alpha  occ. eigenvalues --   -0.73529  -0.73399  -0.72905  -0.71534  -0.70348
 Alpha  occ. eigenvalues --   -0.67330  -0.66821  -0.66706  -0.66121  -0.64324
 Alpha  occ. eigenvalues --   -0.64156  -0.63668  -0.63231  -0.62540  -0.62000
 Alpha  occ. eigenvalues --   -0.61700  -0.60881  -0.60439  -0.59513  -0.59081
 Alpha  occ. eigenvalues --   -0.58397  -0.58316  -0.58112  -0.57094  -0.56059
 Alpha  occ. eigenvalues --   -0.55822  -0.55596  -0.55394  -0.54344  -0.54011
 Alpha  occ. eigenvalues --   -0.53975  -0.53678  -0.53453  -0.52918  -0.52860
 Alpha  occ. eigenvalues --   -0.52737  -0.52360  -0.51925  -0.51119  -0.50739
 Alpha  occ. eigenvalues --   -0.50124  -0.50017  -0.49357  -0.49142  -0.48729
 Alpha  occ. eigenvalues --   -0.48704  -0.48425  -0.48220  -0.47681  -0.47325
 Alpha  occ. eigenvalues --   -0.47180  -0.46112  -0.45162  -0.44719  -0.43048
 Alpha  occ. eigenvalues --   -0.41480  -0.40701  -0.38969  -0.37697  -0.37553
 Alpha  occ. eigenvalues --   -0.37490  -0.37129  -0.36901  -0.36074  -0.34584
 Alpha  occ. eigenvalues --   -0.34533  -0.34213  -0.33864  -0.33576  -0.32903
 Alpha  occ. eigenvalues --   -0.32541  -0.32152  -0.31807  -0.31461  -0.31354
 Alpha  occ. eigenvalues --   -0.30885  -0.29675  -0.26662  -0.25015
 Alpha virt. eigenvalues --    0.03263   0.04332   0.07034   0.07403   0.08698
 Alpha virt. eigenvalues --    0.09140   0.09799   0.10351   0.10629   0.12611
 Alpha virt. eigenvalues --    0.13142   0.13452   0.14227   0.14280   0.14736

 Mulliken charges:
               1
     1  N   -0.301353
     2  C    0.176083
     3  C    0.069632
     4  N   -0.245262
     5  C    0.128529
     6  H    0.025233
     7  N   -0.286490
     8  C    0.135227
     9  H    0.009891
    10  N   -0.278796
    11  C    0.218697
    12  C    0.079675
    13  N   -0.044256
    14  H    0.112267
    15  H    0.085583
    16  H    0.028396
    17  H    0.042596
    18  H    0.019774
    19  N   -0.292038
    20  C    0.242975
    21  C    0.194874
    22  N   -0.119375
    23  H    0.118846
    24  H    0.117660
    25  N   -0.296356
    26  C    0.229411
    27  N   -0.131604
    28  H    0.114762
    29  C    0.177758
    30  O   -0.323319
    31  C   -0.008862
    32  N   -0.213542
    33  C    0.112972
    34  H    0.017674
    35  H   -0.006531
    36  H    0.033906
    37  H    0.023621
    38  H    0.035829
    39  H    0.056826
    40  H    0.077526
    41  H    0.023451
    42  C   -0.100114
    43  O   -0.270498
    44  C    0.162197
    45  H    0.129542
    46  N   -0.107309
    47  O   -0.342193
    48  C    0.331155
    49  H    0.043910
    50  C    0.170193
    51  C    0.047297
    52  N   -0.273243
    53  H    0.035317
    54  H    0.043217
    55  H    0.025327
    56  H    0.125019
    57  H    0.118609
    58  N   -0.051472
    59  C    0.089396
    60  C    0.198185
    61  N   -0.257216
    62  H    0.021853
    63  C    0.159417
    64  N   -0.294931
    65  H    0.035392
    66  C    0.120075
    67  N   -0.249021
    68  C    0.051809
    69  C    0.177279
    70  N   -0.301086
 Sum of Mulliken charges =  -0.00000

 Dipole moment (field-independent basis, Debye):
    X=             -5.2068    Y=              6.0845    Z=             -4.7521  Tot=              9.3120
 Quadrupole moment (field-independent basis, Debye-Ang):
   XX=           -147.1458   YY=           -224.3946   ZZ=           -262.9051
   XY=            -10.6437   XZ=              2.4045   YZ=              3.9653

 Normal termination of Gaussian 16 at Fri Jan 19 07:22:09 2018.
