 Gaussian 16, Revision A.03,
 Gaussian 16:  EM64L-G16RevA.03 25-Dec-2016

 ---------------------------------------
 #p wb97xd/cc-pvdz sp scf=(maxcycles=20)
 ---------------------------------------

 ------------------
 Base pair stacking
 ------------------
 Symbolic Z-matrix:
 Charge =  0 Multiplicity = 1

                         Standard orientation:
 ---------------------------------------------------------------------
 Center     Atomic      Atomic             Coordinates (Angstroms)
 Number     Number       Type             X           Y           Z
 ---------------------------------------------------------------------
      1          7           0        4.821416   -2.181143   -0.600805
      2          6           0        6.099886   -2.071764   -1.329896
      3          6           0        2.687376   -2.130100   -0.071123
      4          7           0        3.356167   -2.585524    1.055831
      5          6           0        4.615088   -2.598048    0.691604
      6          1           0        5.442661   -2.905204    1.331702
      7          7           0        0.993721   -1.440450   -1.560712
      8          6           0        1.967247   -1.241800   -2.455344
      9          1           0        1.638264   -0.875931   -3.427028
     10          7           0        3.279964   -1.426375   -2.330471
     11          6           0        3.577321   -1.876658   -1.100333
     12          6           0        1.325384   -1.893923   -0.332110
     13          7           0        0.354996   -2.092832    0.562297
     14          1           0        0.554488   -2.427654    1.483884
     15          1           0       -0.603940   -1.914063    0.341792
     16          1           0        6.537180   -2.970046   -1.375309
     17          1           0        5.928553   -1.738303   -2.256487
     18          1           0        6.703887   -1.432617   -0.853804
     19          7           0        5.334870    1.544455    0.132921
     20          6           0        3.986853    1.768146   -0.011480
     21          6           0        6.388609    2.078739   -0.753020
     22          7           0        1.347649    3.227980   -1.733476
     23          1           0        0.351362    3.266468   -1.661564
     24          1           0        1.767518    3.728212   -2.491221
     25          7           0        3.403124    2.507669   -0.979177
     26          6           0        2.088198    2.536851   -0.853795
     27          7           0        1.395942    1.891849    0.142336
     28          1           0        0.390640    1.969482    0.160278
     29          6           0        1.975865    1.125435    1.148390
     30          8           0        1.260247    0.584714    2.000599
     31          6           0        3.388119    1.084730    1.026913
     32          7           0        4.341076    0.444863    1.807509
     33          6           0        5.478087    0.745098    1.240690
     34          1           0        6.454504    0.408632    1.590953
     35          1           0        6.895342    1.322184   -1.164908
     36          1           0        5.968128    2.628256   -1.473778
     37          1           0        7.014644    2.649343   -0.222651
     38          1           0       -4.617916    2.218173   -0.679468
     39          1           0       -4.551625    3.477243    0.551389
     40          1           0       -3.176573    3.222993   -0.523767
     41          1           0       -4.336084   -0.460714    3.306849
     42          6           0       -3.685940    0.133172    2.664316
     43          8           0       -1.680289   -0.804726    3.515696
     44          6           0       -2.267682   -0.033012    2.757920
     45          1           0       -0.532006    0.676876    1.938277
     46          7           0       -1.537694    0.766027    1.901242
     47          8           0       -1.300586    2.338458    0.280001
     48          6           0       -2.028299    1.675144    0.997707
     49          1           0       -5.265518    1.175908    1.682762
     50          6           0       -4.194345    1.012036    1.792685
     51          6           0       -3.975505    2.737063    0.016334
     52          7           0       -3.405109    1.778136    0.966513
     53          1           0       -6.417642   -0.017899   -3.954527
     54          1           0       -5.030724    0.808408   -3.718395
     55          1           0       -6.437795    1.391112   -3.131292
     56          1           0       -2.953242   -2.556502    2.096827
     57          1           0       -4.652793   -2.500703    1.960784
     58          7           0       -3.758093   -2.265679    1.579360
     59          6           0       -3.644439   -1.594248    0.431557
     60          6           0       -4.466481   -0.477283   -1.501923
     61          7           0       -3.252070   -0.175407   -1.990296
     62          1           0       -1.277009   -0.430639   -1.505964
     63          6           0       -2.297270   -0.633253   -1.183058
     64          7           0       -2.409080   -1.305959   -0.033040
     65          1           0       -7.695635   -0.587554   -1.389803
     66          6           0       -6.627494   -0.686751   -1.194417
     67          7           0       -6.113764   -1.289152   -0.149972
     68          6           0       -4.744234   -1.163571   -0.332572
     69          6           0       -5.911325    0.560975   -3.315353
     70          7           0       -5.687932   -0.172017   -2.054069
 ---------------------------------------------------------------------

 SCF Done:  E(RwB97XD) =  -2048.74271138     A.U. after   15 cycles

 The electronic state is 1-A.
 Alpha  occ. eigenvalues --  -19.25402 -19.22176 -19.20831 -14.52494 -14.51863
 Alpha  occ. eigenvalues --  -14.49285 -14.48615 -14.47623 -14.47472 -14.47038
 Alpha  occ. eigenvalues --  -14.46831 -14.45375 -14.44439 -14.44335 -14.42286
 Alpha  occ. eigenvalues --  -14.42197 -14.41371 -14.41039 -14.40873 -14.40494
 Alpha  occ. eigenvalues --  -10.44970 -10.41429 -10.40053 -10.39756 -10.38473
 Alpha  occ. eigenvalues --  -10.37964 -10.37230 -10.36829 -10.35878 -10.35505
 Alpha  occ. eigenvalues --  -10.34781 -10.34704 -10.33926 -10.33829 -10.33750
 Alpha  occ. eigenvalues --  -10.33334 -10.33214 -10.32676 -10.31489 -10.31182
 Alpha  occ. eigenvalues --  -10.30582 -10.28479 -10.28452  -1.18978  -1.15224
 Alpha  occ. eigenvalues --   -1.13444  -1.13098  -1.11173  -1.10976  -1.09336
 Alpha  occ. eigenvalues --   -1.08842  -1.08693  -1.05143  -1.04774  -1.02185
 Alpha  occ. eigenvalues --   -1.00931  -1.00463  -0.99928  -0.98804  -0.97035
 Alpha  occ. eigenvalues --   -0.96933  -0.96678  -0.92811  -0.90547  -0.87631
 Alpha  occ. eigenvalues --   -0.85894  -0.84543  -0.83884  -0.83223  -0.82940
 Alpha  occ. eigenvalues --   -0.82335  -0.78403  -0.76988  -0.74971  -0.74849
 Alpha  occ. eigenvalues --   -0.73843  -0.72995  -0.72869  -0.71062  -0.70325
 Alpha  occ. eigenvalues --   -0.67646  -0.66802  -0.66292  -0.66069  -0.64605
 Alpha  occ. eigenvalues --   -0.64138  -0.63693  -0.62811  -0.62703  -0.62028
 Alpha  occ. eigenvalues --   -0.60636  -0.60484  -0.60273  -0.59454  -0.59027
 Alpha  occ. eigenvalues --   -0.58886  -0.58551  -0.57558  -0.56574  -0.56070
 Alpha  occ. eigenvalues --   -0.55845  -0.55522  -0.55198  -0.54490  -0.54230
 Alpha  occ. eigenvalues --   -0.53915  -0.53687  -0.53612  -0.53230  -0.53132
 Alpha  occ. eigenvalues --   -0.52763  -0.52042  -0.51772  -0.50771  -0.50484
 Alpha  occ. eigenvalues --   -0.50343  -0.49956  -0.49696  -0.49216  -0.48975
 Alpha  occ. eigenvalues --   -0.48895  -0.48627  -0.48208  -0.47774  -0.47422
 Alpha  occ. eigenvalues --   -0.46967  -0.46058  -0.45243  -0.44826  -0.42740
 Alpha  occ. eigenvalues --   -0.41110  -0.40699  -0.39143  -0.38068  -0.37552
 Alpha  occ. eigenvalues --   -0.37462  -0.37438  -0.37016  -0.35947  -0.34586
 Alpha  occ. eigenvalues --   -0.34423  -0.34052  -0.33610  -0.33396  -0.33339
 Alpha  occ. eigenvalues --   -0.32976  -0.32552  -0.31955  -0.31156  -0.30923
 Alpha  occ. eigenvalues --   -0.30468  -0.29998  -0.26521  -0.25016
 Alpha virt. eigenvalues --    0.03465   0.04086   0.07068   0.07757   0.08632
 Alpha virt. eigenvalues --    0.08978   0.09642   0.10457   0.11045   0.11945
 Alpha virt. eigenvalues --    0.13011   0.13171   0.14221   0.14644   0.14776

 Mulliken charges:
               1
     1  N   -0.304362
     2  C    0.182795
     3  C    0.045527
     4  N   -0.239006
     5  C    0.143187
     6  H    0.023571
     7  N   -0.294756
     8  C    0.130878
     9  H    0.009966
    10  N   -0.286047
    11  C    0.238167
    12  C    0.080613
    13  N   -0.047186
    14  H    0.118298
    15  H    0.086602
    16  H    0.026393
    17  H    0.033654
    18  H    0.012355
    19  N   -0.308470
    20  C    0.259827
    21  C    0.182359
    22  N   -0.124361
    23  H    0.118332
    24  H    0.119462
    25  N   -0.311133
    26  C    0.250483
    27  N   -0.145817
    28  H    0.121165
    29  C    0.189045
    30  O   -0.321234
    31  C   -0.015526
    32  N   -0.212503
    33  C    0.110098
    34  H    0.020968
    35  H    0.018878
    36  H    0.033104
    37  H    0.026395
    38  H    0.049329
    39  H    0.056571
    40  H    0.075254
    41  H    0.013255
    42  C   -0.099794
    43  O   -0.279984
    44  C    0.171176
    45  H    0.128242
    46  N   -0.109569
    47  O   -0.352597
    48  C    0.336999
    49  H    0.044077
    50  C    0.166357
    51  C    0.047624
    52  N   -0.276698
    53  H    0.035800
    54  H    0.042192
    55  H    0.027614
    56  H    0.125398
    57  H    0.115847
    58  N   -0.047610
    59  C    0.080278
    60  C    0.228739
    61  N   -0.264722
    62  H    0.031867
    63  C    0.164258
    64  N   -0.302397
    65  H    0.037913
    66  C    0.133830
    67  N   -0.257411
    68  C    0.038429
    69  C    0.178189
    70  N   -0.310176
 Sum of Mulliken charges =  -0.00000

 Dipole moment (field-independent basis, Debye):
    X=             -5.3760    Y=              4.9253    Z=             -6.1197  Tot=              9.5189
 Quadrupole moment (field-independent basis, Debye-Ang):
   XX=           -146.9271   YY=           -229.7757   ZZ=           -253.7885
   XY=             -9.7090   XZ=              0.6525   YZ=            -12.0216

 Normal termination of Gaussian 16 at Fri Jan 19 00:32:54 2018.
