 Gaussian 16, Revision A.03,
 Gaussian 16:  EM64L-G16RevA.03 25-Dec-2016

 ---------------------------------------
 #p wb97xd/cc-pvdz sp scf=(maxcycles=20)
 ---------------------------------------

 ------------------
 Base pair stacking
 ------------------
 Symbolic Z-matrix:
 Charge =  0 Multiplicity = 1

                         Standard orientation:
 ---------------------------------------------------------------------
 Center     Atomic      Atomic             Coordinates (Angstroms)
 Number     Number       Type             X           Y           Z
 ---------------------------------------------------------------------
      1          7           0       -7.042320    0.668123   -0.212293
      2          6           0       -8.293149   -0.112861   -0.153190
      3          6           0       -4.938854    1.261266   -0.459114
      4          7           0       -5.627329    2.411901   -0.103072
      5          6           0       -6.867033    2.008510    0.031374
      6          1           0       -7.701890    2.652476    0.309330
      7          7           0       -3.226247   -0.242325   -1.066670
      8          6           0       -4.171045   -1.187915   -1.094822
      9          1           0       -3.822940   -2.185315   -1.359910
     10          7           0       -5.475155   -1.086897   -0.845859
     11          6           0       -5.797768    0.178353   -0.530407
     12          6           0       -3.582821    1.020588   -0.745747
     13          7           0       -2.641126    1.965880   -0.717114
     14          1           0       -2.859738    2.914256   -0.484726
     15          1           0       -1.685553    1.758433   -0.926844
     16          1           0       -8.951934    0.260361   -0.806547
     17          1           0       -8.102354   -1.067019   -0.381887
     18          1           0       -8.676337   -0.063145    0.769139
     19          7           0       -3.001857   -1.408086    1.441715
     20          6           0       -1.666405   -1.532035    1.142936
     21          6           0       -4.053748   -2.374417    1.066970
     22          7           0        0.936667   -3.306795   -0.318564
     23          1           0        1.925087   -3.208254   -0.430594
     24          1           0        0.514291   -4.122674   -0.714374
     25          7           0       -1.095363   -2.549242    0.462302
     26          6           0        0.209430   -2.386742    0.332995
     27          7           0        0.903788   -1.311115    0.831379
     28          1           0        1.900710   -1.269816    0.685078
     29          6           0        0.336823   -0.252983    1.534793
     30          8           0        1.053190    0.669967    1.941866
     31          6           0       -1.064441   -0.413467    1.681691
     32          7           0       -2.003083    0.396416    2.306126
     33          6           0       -3.134990   -0.232056    2.138761
     34          1           0       -4.100331    0.119238    2.504793
     35          1           0       -4.734263   -1.922323    0.491379
     36          1           0       -3.642601   -3.132360    0.562253
     37          1           0       -4.495470   -2.725390    1.891906
     38          1           0        6.721186   -1.336267   -0.930884
     39          1           0        7.037855   -1.949624    0.690281
     40          1           0        5.510142   -2.321090   -0.109386
     41          1           0        6.504391    2.742116    1.612031
     42          6           0        5.888785    1.867530    1.401381
     43          8           0        3.880263    2.867150    2.171908
     44          6           0        4.488129    1.910914    1.691383
     45          1           0        2.810055    0.744908    1.578019
     46          7           0        3.802125    0.752442    1.387083
     47          8           0        3.631163   -1.376391    0.615047
     48          6           0        4.320281   -0.399385    0.850084
     49          1           0        7.482640    0.674365    0.638634
     50          6           0        6.423248    0.758330    0.877329
     51          6           0        6.276261   -1.571904    0.024407
     52          7           0        5.677714   -0.363625    0.598473
     53          1           0        4.124168   -2.462500   -2.996558
     54          1           0        3.020060   -2.771944   -1.835840
     55          1           0        4.566137   -2.447258   -1.425616
     56          1           0        0.525111    3.771727   -1.194695
     57          1           0        2.167358    3.753908   -1.655997
     58          7           0        1.341926    3.240225   -1.419347
     59          6           0        1.331940    1.905741   -1.404326
     60          6           0        2.287457   -0.259181   -1.652985
     61          7           0        1.164529   -0.922529   -1.331383
     62          1           0       -0.772103   -0.525174   -0.790832
     63          6           0        0.178853   -0.068773   -1.062229
     64          7           0        0.186859    1.268131   -1.076721
     65          1           0        5.375743    0.134849   -2.524393
     66          6           0        4.334139    0.272906   -2.232974
     67          7           0        3.751144    1.436669   -2.079806
     68          6           0        2.452998    1.113636   -1.712083
     69          6           0        3.830103   -2.234468   -2.068376
     70          7           0        3.506941   -0.796576   -1.990740
 ---------------------------------------------------------------------

 SCF Done:  E(RwB97XD) =  -2048.63886710     A.U. after   15 cycles

 The electronic state is 1-A.
 Alpha  occ. eigenvalues --  -19.26205 -19.22006 -19.20372 -14.52939 -14.51181
 Alpha  occ. eigenvalues --  -14.50323 -14.48030 -14.47805 -14.46782 -14.45917
 Alpha  occ. eigenvalues --  -14.45810 -14.44175 -14.43691 -14.43221 -14.42995
 Alpha  occ. eigenvalues --  -14.42339 -14.42200 -14.41869 -14.41813 -14.40413
 Alpha  occ. eigenvalues --  -10.45850 -10.40573 -10.40120 -10.38545 -10.37896
 Alpha  occ. eigenvalues --  -10.37814 -10.37070 -10.36932 -10.36422 -10.35830
 Alpha  occ. eigenvalues --  -10.35625 -10.35159 -10.34916 -10.34623 -10.33788
 Alpha  occ. eigenvalues --  -10.33476 -10.32785 -10.32260 -10.31252 -10.31247
 Alpha  occ. eigenvalues --  -10.30187 -10.27848 -10.27783  -1.20004  -1.14141
 Alpha  occ. eigenvalues --   -1.13142  -1.13055  -1.13007  -1.10165  -1.09775
 Alpha  occ. eigenvalues --   -1.08528  -1.07847  -1.06910  -1.03654  -1.02724
 Alpha  occ. eigenvalues --   -1.02389  -0.99890  -0.99277  -0.98528  -0.98328
 Alpha  occ. eigenvalues --   -0.96103  -0.95443  -0.94506  -0.91347  -0.86761
 Alpha  occ. eigenvalues --   -0.85927  -0.85391  -0.84352  -0.83892  -0.83563
 Alpha  occ. eigenvalues --   -0.81417  -0.79182  -0.76034  -0.74770  -0.74411
 Alpha  occ. eigenvalues --   -0.73726  -0.73647  -0.73184  -0.72894  -0.69501
 Alpha  occ. eigenvalues --   -0.68050  -0.67186  -0.66774  -0.65905  -0.64864
 Alpha  occ. eigenvalues --   -0.64632  -0.63324  -0.63253  -0.62733  -0.61772
 Alpha  occ. eigenvalues --   -0.61386  -0.61311  -0.59959  -0.59761  -0.59046
 Alpha  occ. eigenvalues --   -0.58552  -0.58293  -0.58171  -0.57922  -0.57177
 Alpha  occ. eigenvalues --   -0.56814  -0.56181  -0.55731  -0.55091  -0.54470
 Alpha  occ. eigenvalues --   -0.54284  -0.53504  -0.53384  -0.53106  -0.52587
 Alpha  occ. eigenvalues --   -0.52139  -0.51894  -0.51785  -0.51434  -0.50889
 Alpha  occ. eigenvalues --   -0.50549  -0.49945  -0.49701  -0.48859  -0.48737
 Alpha  occ. eigenvalues --   -0.48507  -0.48458  -0.47947  -0.47817  -0.47395
 Alpha  occ. eigenvalues --   -0.47104  -0.45924  -0.45617  -0.44371  -0.42656
 Alpha  occ. eigenvalues --   -0.40951  -0.40157  -0.39795  -0.38999  -0.37208
 Alpha  occ. eigenvalues --   -0.37098  -0.37024  -0.35814  -0.35295  -0.35177
 Alpha  occ. eigenvalues --   -0.34954  -0.34579  -0.33575  -0.33165  -0.33121
 Alpha  occ. eigenvalues --   -0.32573  -0.32292  -0.32056  -0.31910  -0.31551
 Alpha  occ. eigenvalues --   -0.31070  -0.27232  -0.26613  -0.25138
 Alpha virt. eigenvalues --    0.02970   0.04684   0.05785   0.07824   0.08467
 Alpha virt. eigenvalues --    0.08931   0.09693   0.10015   0.11295   0.12208
 Alpha virt. eigenvalues --    0.12328   0.13356   0.14558   0.14566   0.15156

 Mulliken charges:
               1
     1  N   -0.315018
     2  C    0.180219
     3  C    0.046814
     4  N   -0.256296
     5  C    0.133847
     6  H    0.031570
     7  N   -0.252516
     8  C    0.117768
     9  H    0.029714
    10  N   -0.298962
    11  C    0.239834
    12  C    0.086068
    13  N   -0.039184
    14  H    0.108029
    15  H    0.088897
    16  H    0.029622
    17  H    0.035722
    18  H    0.028092
    19  N   -0.288055
    20  C    0.223084
    21  C    0.200091
    22  N   -0.067347
    23  H    0.102033
    24  H    0.109563
    25  N   -0.278015
    26  C    0.184636
    27  N   -0.102728
    28  H    0.125500
    29  C    0.123420
    30  O   -0.322989
    31  C    0.024145
    32  N   -0.223812
    33  C    0.110532
    34  H    0.024896
    35  H    0.021866
    36  H    0.013183
    37  H    0.005483
    38  H    0.048791
    39  H    0.066274
    40  H    0.098004
    41  H    0.033133
    42  C   -0.098786
    43  O   -0.263015
    44  C    0.188291
    45  H    0.132391
    46  N   -0.125385
    47  O   -0.350372
    48  C    0.345271
    49  H    0.046160
    50  C    0.166614
    51  C    0.028874
    52  N   -0.283648
    53  H    0.032576
    54  H    0.009224
    55  H   -0.028479
    56  H    0.116051
    57  H    0.120629
    58  N   -0.069727
    59  C    0.134965
    60  C    0.210520
    61  N   -0.295665
    62  H    0.056840
    63  C    0.169515
    64  N   -0.306137
    65  H    0.022467
    66  C    0.107799
    67  N   -0.250602
    68  C    0.026777
    69  C    0.212623
    70  N   -0.281678
 Sum of Mulliken charges =  -0.00000

 Dipole moment (field-independent basis, Debye):
    X=              4.2279    Y=             -5.4431    Z=             -5.1407  Tot=              8.5982
 Quadrupole moment (field-independent basis, Debye-Ang):
   XX=           -136.8951   YY=           -229.8748   ZZ=           -260.2366
   XY=            -19.8130   XZ=            -17.5858   YZ=             -7.4596

 Normal termination of Gaussian 16 at Fri Jan 19 05:56:03 2018.
