 Gaussian 16, Revision A.03,
 Gaussian 16:  EM64L-G16RevA.03 25-Dec-2016

 ---------------------------------------
 #p wb97xd/cc-pvdz sp scf=(maxcycles=20)
 ---------------------------------------

 ------------------
 Base pair stacking
 ------------------
 Symbolic Z-matrix:
 Charge =  0 Multiplicity = 1

                         Standard orientation:
 ---------------------------------------------------------------------
 Center     Atomic      Atomic             Coordinates (Angstroms)
 Number     Number       Type             X           Y           Z
 ---------------------------------------------------------------------
      1          7           0        5.138928   -1.723585   -0.998509
      2          6           0        6.432881   -1.308058   -1.573867
      3          6           0        2.989578   -1.940558   -0.585537
      4          7           0        3.643349   -2.769204    0.314825
      5          6           0        4.912083   -2.605325    0.029987
      6          1           0        5.732633   -3.107527    0.543247
      7          7           0        1.313067   -0.788218   -1.779013
      8          6           0        2.303589   -0.236387   -2.487494
      9          1           0        1.988403    0.460645   -3.262775
     10          7           0        3.618817   -0.415474   -2.382556
     11          6           0        3.898310   -1.289520   -1.401556
     12          6           0        1.626998   -1.663598   -0.799101
     13          7           0        0.639643   -2.215486   -0.090787
     14          1           0        0.825666   -2.868647    0.644062
     15          1           0       -0.319138   -1.995002   -0.270406
     16          1           0        6.910925   -2.108626   -1.935429
     17          1           0        6.275185   -0.653401   -2.312570
     18          1           0        6.993020   -0.879519   -0.864935
     19          7           0        5.037009    1.496459    0.634883
     20          6           0        3.685601    1.709751    0.507387
     21          6           0        6.090087    2.236314   -0.089244
     22          7           0        1.035003    3.433699   -0.929306
     23          1           0        0.036803    3.429192   -0.876196
     24          1           0        1.453272    4.095858   -1.551649
     25          7           0        3.097412    2.623686   -0.294368
     26          6           0        1.780064    2.590089   -0.199156
     27          7           0        1.089611    1.728177    0.618100
     28          1           0        0.082209    1.773208    0.626629
     29          6           0        1.674121    0.779657    1.451475
     30          8           0        0.959785    0.049799    2.149883
     31          6           0        3.089017    0.803774    1.360085
     32          7           0        4.046627    0.037139    2.009835
     33          6           0        5.184204    0.482263    1.549427
     34          1           0        6.163886    0.104789    1.844390
     35          1           0        6.628267    1.599529   -0.640311
     36          1           0        5.666315    2.916158   -0.686316
     37          1           0        6.687527    2.696455    0.566618
     38          1           0       -4.914737    2.062030   -0.267716
     39          1           0       -4.911811    3.029166    1.205137
     40          1           0       -3.509115    3.048295    0.135822
     41          1           0       -4.624677   -1.400872    3.059559
     42          6           0       -3.981458   -0.665816    2.575618
     43          8           0       -1.963819   -1.710433    3.257559
     44          6           0       -2.560712   -0.810175    2.667589
     45          1           0       -0.832970    0.105160    2.063108
     46          7           0       -1.840076    0.173231    2.020407
     47          8           0       -1.621820    2.062521    0.779386
     48          6           0       -2.341800    1.241489    1.319937
     49          1           0       -5.574138    0.520477    1.799801
     50          6           0       -4.500623    0.365585    1.899386
     51          6           0       -4.302472    2.436642    0.539041
     52          7           0       -3.720334    1.311881    1.276460
     53          1           0       -6.077907    1.215101   -3.789619
     54          1           0       -4.737002    1.930957   -3.196634
     55          1           0       -6.185862    2.205495   -2.496991
     56          1           0       -2.689893   -3.324333    1.004179
     57          1           0       -4.385309   -3.271583    0.822834
     58          7           0       -3.490745   -2.883042    0.599170
     59          6           0       -3.372183   -1.823499   -0.203626
     60          6           0       -4.183861   -0.081771   -1.606948
     61          7           0       -2.969789    0.418633   -1.889856
     62          1           0       -1.000992    0.057562   -1.449315
     63          6           0       -2.020590   -0.282547   -1.273197
     64          7           0       -2.137309   -1.344051   -0.468734
     65          1           0       -7.406822   -0.322109   -1.690438
     66          6           0       -6.341770   -0.456229   -1.499064
     67          7           0       -5.833782   -1.394126   -0.737509
     68          6           0       -4.466278   -1.168101   -0.797223
     69          6           0       -5.617576    1.523155   -2.957029
     70          7           0       -5.400312    0.373659   -2.057336
 ---------------------------------------------------------------------

 SCF Done:  E(RwB97XD) =  -2048.75022326     A.U. after   15 cycles

 The electronic state is 1-A.
 Alpha  occ. eigenvalues --  -19.25402 -19.21770 -19.20666 -14.52502 -14.51952
 Alpha  occ. eigenvalues --  -14.49074 -14.48937 -14.47749 -14.47359 -14.46843
 Alpha  occ. eigenvalues --  -14.46664 -14.45349 -14.44318 -14.44270 -14.42554
 Alpha  occ. eigenvalues --  -14.41999 -14.41270 -14.41249 -14.41157 -14.40708
 Alpha  occ. eigenvalues --  -10.44980 -10.41220 -10.39817 -10.39739 -10.38299
 Alpha  occ. eigenvalues --  -10.37930 -10.37128 -10.37124 -10.35791 -10.35752
 Alpha  occ. eigenvalues --  -10.34816 -10.34503 -10.34067 -10.34064 -10.33666
 Alpha  occ. eigenvalues --  -10.33584 -10.33436 -10.32555 -10.31541 -10.31293
 Alpha  occ. eigenvalues --  -10.30547 -10.28699 -10.28275  -1.18992  -1.15222
 Alpha  occ. eigenvalues --   -1.13260  -1.12767  -1.11476  -1.10786  -1.09216
 Alpha  occ. eigenvalues --   -1.08846  -1.08582  -1.05379  -1.04663  -1.02089
 Alpha  occ. eigenvalues --   -1.00929  -1.00713  -0.99745  -0.98601  -0.97154
 Alpha  occ. eigenvalues --   -0.96800  -0.96734  -0.93049  -0.90536  -0.87603
 Alpha  occ. eigenvalues --   -0.85941  -0.84402  -0.84133  -0.83261  -0.82848
 Alpha  occ. eigenvalues --   -0.82566  -0.78395  -0.76942  -0.74789  -0.74771
 Alpha  occ. eigenvalues --   -0.73658  -0.73153  -0.72926  -0.71315  -0.70279
 Alpha  occ. eigenvalues --   -0.67465  -0.66682  -0.66565  -0.66097  -0.64431
 Alpha  occ. eigenvalues --   -0.64093  -0.63636  -0.62983  -0.62658  -0.61846
 Alpha  occ. eigenvalues --   -0.61118  -0.60648  -0.60341  -0.59466  -0.59041
 Alpha  occ. eigenvalues --   -0.58680  -0.58405  -0.57819  -0.56846  -0.55968
 Alpha  occ. eigenvalues --   -0.55776  -0.55727  -0.55248  -0.54357  -0.54126
 Alpha  occ. eigenvalues --   -0.53914  -0.53628  -0.53556  -0.53115  -0.53028
 Alpha  occ. eigenvalues --   -0.52769  -0.52094  -0.52001  -0.50919  -0.50570
 Alpha  occ. eigenvalues --   -0.50289  -0.50002  -0.49321  -0.49141  -0.48965
 Alpha  occ. eigenvalues --   -0.48870  -0.48400  -0.48083  -0.47936  -0.47289
 Alpha  occ. eigenvalues --   -0.47223  -0.46129  -0.44941  -0.44885  -0.43086
 Alpha  occ. eigenvalues --   -0.41295  -0.40658  -0.39067  -0.37867  -0.37459
 Alpha  occ. eigenvalues --   -0.37352  -0.37294  -0.37140  -0.36008  -0.34499
 Alpha  occ. eigenvalues --   -0.34462  -0.33999  -0.33707  -0.33550  -0.33076
 Alpha  occ. eigenvalues --   -0.32734  -0.32378  -0.31884  -0.31474  -0.31082
 Alpha  occ. eigenvalues --   -0.30698  -0.29890  -0.26641  -0.24940
 Alpha virt. eigenvalues --    0.03410   0.04240   0.06953   0.07426   0.08665
 Alpha virt. eigenvalues --    0.09082   0.09784   0.10473   0.10971   0.12204
 Alpha virt. eigenvalues --    0.13079   0.13389   0.14234   0.14344   0.14966

 Mulliken charges:
               1
     1  N   -0.301942
     2  C    0.179238
     3  C    0.058345
     4  N   -0.241672
     5  C    0.134940
     6  H    0.024165
     7  N   -0.290026
     8  C    0.131838
     9  H    0.010050
    10  N   -0.282281
    11  C    0.230838
    12  C    0.077586
    13  N   -0.043482
    14  H    0.114962
    15  H    0.085255
    16  H    0.027812
    17  H    0.036006
    18  H    0.015352
    19  N   -0.302798
    20  C    0.255047
    21  C    0.186130
    22  N   -0.124164
    23  H    0.118641
    24  H    0.118713
    25  N   -0.305514
    26  C    0.242995
    27  N   -0.139032
    28  H    0.119843
    29  C    0.181967
    30  O   -0.322759
    31  C   -0.013632
    32  N   -0.212825
    33  C    0.111369
    34  H    0.019856
    35  H    0.010771
    36  H    0.033686
    37  H    0.025346
    38  H    0.039930
    39  H    0.057173
    40  H    0.077221
    41  H    0.019240
    42  C   -0.102709
    43  O   -0.274960
    44  C    0.164836
    45  H    0.128042
    46  N   -0.105699
    47  O   -0.348781
    48  C    0.332395
    49  H    0.044987
    50  C    0.171032
    51  C    0.048717
    52  N   -0.275492
    53  H    0.036145
    54  H    0.041895
    55  H    0.027486
    56  H    0.126848
    57  H    0.116946
    58  N   -0.045815
    59  C    0.079576
    60  C    0.214307
    61  N   -0.262634
    62  H    0.026804
    63  C    0.159972
    64  N   -0.298363
    65  H    0.036357
    66  C    0.126922
    67  N   -0.253212
    68  C    0.047640
    69  C    0.176783
    70  N   -0.304211
 Sum of Mulliken charges =  -0.00000

 Dipole moment (field-independent basis, Debye):
    X=             -5.3173    Y=              5.6523    Z=             -5.2236  Tot=              9.3546
 Quadrupole moment (field-independent basis, Debye-Ang):
   XX=           -147.1850   YY=           -224.6379   ZZ=           -260.7243
   XY=             -9.8174   XZ=              1.0040   YZ=             -4.2294

 Normal termination of Gaussian 16 at Fri Jan 19 08:36:30 2018.
