 Gaussian 16, Revision A.03,
 Gaussian 16:  EM64L-G16RevA.03 25-Dec-2016

 ---------------------------------------
 #p wb97xd/cc-pvdz sp scf=(maxcycles=20)
 ---------------------------------------

 ------------------
 Base pair stacking
 ------------------
 Symbolic Z-matrix:
 Charge =  0 Multiplicity = 1

                         Standard orientation:
 ---------------------------------------------------------------------
 Center     Atomic      Atomic             Coordinates (Angstroms)
 Number     Number       Type             X           Y           Z
 ---------------------------------------------------------------------
      1          7           0       -6.589055   -0.967107    0.447634
      2          6           0       -7.874198   -0.298050    0.728288
      3          6           0       -4.452091   -1.483948    0.387789
      4          7           0       -5.106303   -2.450564   -0.362135
      5          6           0       -6.367563   -2.100497   -0.296061
      6          1           0       -7.186132   -2.638094   -0.775513
      7          7           0       -2.779008   -0.226960    1.475777
      8          6           0       -3.761689    0.578807    1.891298
      9          1           0       -3.444884    1.418580    2.508291
     10          7           0       -5.070813    0.503334    1.660173
     11          6           0       -5.352950   -0.562841    0.893300
     12          6           0       -3.095409   -1.290912    0.705734
     13          7           0       -2.115876   -2.096399    0.289967
     14          1           0       -2.303996   -2.895747   -0.281763
     15          1           0       -1.161114   -1.928412    0.535669
     16          1           0       -8.483132   -0.930416    1.207335
     17          1           0       -7.714259    0.506378    1.299631
     18          1           0       -8.299721   -0.015029   -0.131265
     19          7           0       -3.498840    1.753147   -1.302655
     20          6           0       -2.153490    1.860291   -1.044562
     21          6           0       -4.534371    2.700235   -0.842881
     22          7           0        0.503687    3.555509    0.413997
     23          1           0        1.495113    3.450336    0.486433
     24          1           0        0.097595    4.350605    0.865255
     25          7           0       -1.556330    2.840880   -0.333302
     26          6           0       -0.248292    2.670626   -0.257865
     27          7           0        0.425330    1.621053   -0.834181
     28          1           0        1.426604    1.571299   -0.724905
     29          6           0       -0.168677    0.600746   -1.570385
     30          8           0        0.530538   -0.301019   -2.048570
     31          6           0       -1.573724    0.769992   -1.660134
     32          7           0       -2.535736   -0.006021   -2.291976
     33          6           0       -3.659386    0.614303   -2.053592
     34          1           0       -4.637828    0.283140   -2.403252
     35          1           0       -5.195802    2.220117   -0.267734
     36          1           0       -4.103830    3.431041   -0.314848
     37          1           0       -5.003427    3.093260   -1.633021
     38          1           0        6.300359    1.550208    0.723791
     39          1           0        6.562372    2.245048   -0.874082
     40          1           0        5.064355    2.576891   -0.003923
     41          1           0        5.984011   -2.393063   -2.014300
     42          6           0        5.378551   -1.529697   -1.738146
     43          8           0        3.341711   -2.486624   -2.488258
     44          6           0        3.968570   -1.556757   -1.981120
     45          1           0        2.298742   -0.396278   -1.750292
     46          7           0        3.296810   -0.414572   -1.594589
     47          8           0        3.158732    1.672333   -0.709741
     48          6           0        3.836519    0.707848   -1.018012
     49          1           0        7.001257   -0.378646   -0.971531
     50          6           0        5.933985   -0.449213   -1.177220
     51          6           0        5.823264    1.834688   -0.202227
     52          7           0        5.201746    0.657866   -0.815879
     53          1           0        4.553367    1.520731    3.897355
     54          1           0        3.381065    2.183320    2.976077
     55          1           0        4.917817    2.131623    2.428549
     56          1           0        1.145887   -3.757172   -0.052110
     57          1           0        2.806481   -3.819393    0.333448
     58          7           0        1.948758   -3.304105    0.335539
     59          6           0        1.879753   -2.067760    0.833406
     60          6           0        2.750835   -0.108627    1.865266
     61          7           0        1.585549    0.559522    1.854824
     62          1           0       -0.356095    0.284359    1.259095
     63          6           0        0.626078   -0.183890    1.307431
     64          7           0        0.693190   -1.422382    0.808203
     65          1           0        5.892501   -0.621563    2.430082
     66          6           0        4.844849   -0.699498    2.138029
     67          7           0        4.306428   -1.749310    1.567345
     68          6           0        2.978909   -1.387927    1.388927
     69          6           0        4.224266    1.646741    2.961512
     70          7           0        3.960807    0.330593    2.348034
 ---------------------------------------------------------------------

 SCF Done:  E(RwB97XD) =  -2048.75247799     A.U. after   15 cycles

 The electronic state is 1-A.
 Alpha  occ. eigenvalues --  -19.25898 -19.21981 -19.20557 -14.52527 -14.51584
 Alpha  occ. eigenvalues --  -14.49815 -14.48419 -14.47787 -14.46690 -14.46585
 Alpha  occ. eigenvalues --  -14.46425 -14.44439 -14.43139 -14.43047 -14.42901
 Alpha  occ. eigenvalues --  -14.42404 -14.41947 -14.41842 -14.41036 -14.40607
 Alpha  occ. eigenvalues --  -10.45507 -10.40996 -10.40026 -10.38621 -10.38080
 Alpha  occ. eigenvalues --  -10.37545 -10.37053 -10.36280 -10.36103 -10.35938
 Alpha  occ. eigenvalues --  -10.35065 -10.34779 -10.34357 -10.34116 -10.33949
 Alpha  occ. eigenvalues --  -10.33510 -10.33104 -10.31922 -10.31466 -10.30852
 Alpha  occ. eigenvalues --  -10.30025 -10.29526 -10.27891  -1.19501  -1.14226
 Alpha  occ. eigenvalues --   -1.13076  -1.12978  -1.12385  -1.10365  -1.09378
 Alpha  occ. eigenvalues --   -1.08399  -1.07974  -1.05898  -1.03501  -1.02505
 Alpha  occ. eigenvalues --   -1.01323  -0.99976  -0.99530  -0.98349  -0.97918
 Alpha  occ. eigenvalues --   -0.96246  -0.95600  -0.93532  -0.90924  -0.86702
 Alpha  occ. eigenvalues --   -0.85178  -0.84915  -0.84026  -0.83779  -0.83261
 Alpha  occ. eigenvalues --   -0.81988  -0.78830  -0.75962  -0.74383  -0.73799
 Alpha  occ. eigenvalues --   -0.73724  -0.73480  -0.73317  -0.71981  -0.69329
 Alpha  occ. eigenvalues --   -0.67209  -0.67164  -0.66519  -0.65650  -0.64423
 Alpha  occ. eigenvalues --   -0.63639  -0.63539  -0.63131  -0.62503  -0.61521
 Alpha  occ. eigenvalues --   -0.61059  -0.61013  -0.59577  -0.59433  -0.58624
 Alpha  occ. eigenvalues --   -0.58151  -0.57924  -0.57574  -0.57353  -0.56336
 Alpha  occ. eigenvalues --   -0.56123  -0.55919  -0.55016  -0.54479  -0.54339
 Alpha  occ. eigenvalues --   -0.53707  -0.53403  -0.52885  -0.52793  -0.52609
 Alpha  occ. eigenvalues --   -0.52394  -0.52130  -0.51834  -0.51545  -0.51068
 Alpha  occ. eigenvalues --   -0.49948  -0.49916  -0.49424  -0.48921  -0.48717
 Alpha  occ. eigenvalues --   -0.48588  -0.48190  -0.47967  -0.47820  -0.47568
 Alpha  occ. eigenvalues --   -0.47297  -0.45761  -0.45303  -0.44043  -0.43312
 Alpha  occ. eigenvalues --   -0.41994  -0.39767  -0.39454  -0.38126  -0.37123
 Alpha  occ. eigenvalues --   -0.37093  -0.36927  -0.36541  -0.35687  -0.34536
 Alpha  occ. eigenvalues --   -0.34401  -0.34038  -0.33577  -0.33214  -0.33152
 Alpha  occ. eigenvalues --   -0.32573  -0.32054  -0.31868  -0.31731  -0.31631
 Alpha  occ. eigenvalues --   -0.31261  -0.28565  -0.26723  -0.25178
 Alpha virt. eigenvalues --    0.03000   0.05143   0.06992   0.08001   0.08787
 Alpha virt. eigenvalues --    0.09171   0.09823   0.10143   0.10966   0.11821
 Alpha virt. eigenvalues --    0.13112   0.13135   0.14516   0.14757   0.15105

 Mulliken charges:
               1
     1  N   -0.310418
     2  C    0.179504
     3  C    0.047473
     4  N   -0.251256
     5  C    0.127307
     6  H    0.029143
     7  N   -0.276859
     8  C    0.131219
     9  H    0.017425
    10  N   -0.292579
    11  C    0.234141
    12  C    0.096622
    13  N   -0.039776
    14  H    0.109467
    15  H    0.089405
    16  H    0.029318
    17  H    0.035763
    18  H    0.024766
    19  N   -0.297702
    20  C    0.251698
    21  C    0.183820
    22  N   -0.112579
    23  H    0.113017
    24  H    0.116109
    25  N   -0.301658
    26  C    0.227699
    27  N   -0.136173
    28  H    0.123436
    29  C    0.158370
    30  O   -0.324564
    31  C   -0.000859
    32  N   -0.226334
    33  C    0.122794
    34  H    0.023977
    35  H    0.019099
    36  H    0.026952
    37  H    0.019686
    38  H    0.045313
    39  H    0.065424
    40  H    0.079007
    41  H    0.028113
    42  C   -0.080305
    43  O   -0.271147
    44  C    0.172623
    45  H    0.134683
    46  N   -0.125244
    47  O   -0.343970
    48  C    0.338419
    49  H    0.042911
    50  C    0.165027
    51  C    0.036732
    52  N   -0.279250
    53  H    0.033113
    54  H    0.037858
    55  H    0.002379
    56  H    0.120262
    57  H    0.119724
    58  N   -0.049855
    59  C    0.118121
    60  C    0.222313
    61  N   -0.276281
    62  H    0.033225
    63  C    0.163242
    64  N   -0.304632
    65  H    0.029316
    66  C    0.115940
    67  N   -0.245545
    68  C    0.014586
    69  C    0.187285
    70  N   -0.296842
 Sum of Mulliken charges =  -0.00000

 Dipole moment (field-independent basis, Debye):
    X=              4.9019    Y=              5.4843    Z=              4.5872  Tot=              8.6688
 Quadrupole moment (field-independent basis, Debye-Ang):
   XX=           -142.1998   YY=           -225.5531   ZZ=           -259.0778
   XY=             13.6056   XZ=             16.7428   YZ=             -1.2957

 Normal termination of Gaussian 16 at Thu Jan 18 16:07:52 2018.
