 Gaussian 16, Revision A.03,
 Gaussian 16:  EM64L-G16RevA.03 25-Dec-2016

 ---------------------------------------
 #p wb97xd/cc-pvdz sp scf=(maxcycles=20)
 ---------------------------------------

 ------------------
 Base pair stacking
 ------------------
 Symbolic Z-matrix:
 Charge =  0 Multiplicity = 1

                         Standard orientation:
 ---------------------------------------------------------------------
 Center     Atomic      Atomic             Coordinates (Angstroms)
 Number     Number       Type             X           Y           Z
 ---------------------------------------------------------------------
      1          7           0       -7.123438   -0.759124    0.196189
      2          6           0       -8.400429   -0.064064    0.449566
      3          6           0       -4.998494   -1.326471    0.192138
      4          7           0       -5.651965   -2.263898   -0.594595
      5          6           0       -6.906010   -1.884568   -0.560671
      6          1           0       -7.721906   -2.393826   -1.074398
      7          7           0       -3.330489   -0.129326    1.352963
      8          6           0       -4.306159    0.692733    1.752796
      9          1           0       -3.988744    1.513821    2.394137
     10          7           0       -5.608940    0.652987    1.480601
     11          6           0       -5.892444   -0.392662    0.686461
     12          6           0       -3.648083   -1.171867    0.554645
     13          7           0       -2.675529   -1.993570    0.154486
     14          1           0       -2.864794   -2.778152   -0.436979
     15          1           0       -1.725104   -1.853022    0.432117
     16          1           0       -9.038666   -0.689662    0.898421
     17          1           0       -8.239185    0.726283    1.039876
     18          1           0       -8.792396    0.243950   -0.417313
     19          7           0       -2.882818    1.850786   -1.420498
     20          6           0       -1.542185    1.924565   -1.128395
     21          6           0       -3.892723    2.865162   -1.057438
     22          7           0        1.137370    3.613873    0.295675
     23          1           0        2.121388    3.476666    0.405792
     24          1           0        0.750378    4.452481    0.679980
     25          7           0       -0.927180    2.928067   -0.465969
     26          6           0        0.370393    2.714287   -0.338675
     27          7           0        1.018084    1.603408   -0.822381
     28          1           0        2.013079    1.523599   -0.678936
     29          6           0        0.405381    0.558505   -1.506944
     30          8           0        1.081687   -0.399304   -1.901853
     31          6           0       -0.988735    0.773958   -1.651461
     32          7           0       -1.962323   -0.006482   -2.259704
     33          6           0       -3.066857    0.670395   -2.098351
     34          1           0       -4.047275    0.353265   -2.455391
     35          1           0       -4.588778    2.450418   -0.472372
     36          1           0       -3.448812    3.613445   -0.566231
     37          1           0       -4.323126    3.220962   -1.886267
     38          1           0        6.838896    1.417787    0.918891
     39          1           0        7.173667    1.992148   -0.712886
     40          1           0        5.665760    2.438404    0.086137
     41          1           0        6.444851   -2.687672   -1.558313
     42          6           0        5.866423   -1.785403   -1.359393
     43          8           0        3.815495   -2.713835   -2.106949
     44          6           0        4.463976   -1.775889   -1.643765
     45          1           0        2.835508   -0.540462   -1.543018
     46          7           0        3.827224   -0.585640   -1.355461
     47          8           0        3.746727    1.560256   -0.616652
     48          6           0        4.394302    0.552258   -0.838601
     49          1           0        7.510918   -0.646735   -0.621230
     50          6           0        6.447995   -0.690951   -0.854854
     51          6           0        6.400033    1.656445   -0.038451
     52          7           0        5.750161    0.464852   -0.591201
     53          1           0        3.963006    1.398230    4.027630
     54          1           0        2.835717    2.104808    3.083147
     55          1           0        4.386979    2.025340    2.581806
     56          1           0        0.554981   -3.726721   -0.117933
     57          1           0        2.200952   -3.835790    0.316815
     58          7           0        1.356006   -3.299990    0.302054
     59          6           0        1.300979   -2.071095    0.819726
     60          6           0        2.185962   -0.151721    1.912664
     61          7           0        1.037711    0.544547    1.878761
     62          1           0       -0.890603    0.326803    1.219353
     63          6           0        0.078241   -0.165861    1.289141
     64          7           0        0.131383   -1.396823    0.770018
     65          1           0        5.295672   -0.750275    2.563540
     66          6           0        4.255979   -0.797759    2.238376
     67          7           0        3.710710   -1.824220    1.632793
     68          6           0        2.398266   -1.427771    1.420576
     69          6           0        3.666019    1.548283    3.084612
     70          7           0        3.390517    0.249682    2.439846
 ---------------------------------------------------------------------

 SCF Done:  E(RwB97XD) =  -2048.75032927     A.U. after   15 cycles

 The electronic state is 1-A.
 Alpha  occ. eigenvalues --  -19.26096 -19.21985 -19.20633 -14.52625 -14.51072
 Alpha  occ. eigenvalues --  -14.49944 -14.48458 -14.47828 -14.46722 -14.46666
 Alpha  occ. eigenvalues --  -14.45962 -14.43947 -14.42958 -14.42642 -14.42546
 Alpha  occ. eigenvalues --  -14.42525 -14.42092 -14.41968 -14.41196 -14.40692
 Alpha  occ. eigenvalues --  -10.45644 -10.41119 -10.40076 -10.38221 -10.38050
 Alpha  occ. eigenvalues --  -10.37677 -10.36603 -10.36449 -10.35935 -10.35601
 Alpha  occ. eigenvalues --  -10.35269 -10.34583 -10.34230 -10.34203 -10.34151
 Alpha  occ. eigenvalues --  -10.33126 -10.33078 -10.31919 -10.31032 -10.30951
 Alpha  occ. eigenvalues --  -10.30200 -10.29757 -10.28033  -1.19638  -1.13728
 Alpha  occ. eigenvalues --   -1.13167  -1.12987  -1.12558  -1.10437  -1.09489
 Alpha  occ. eigenvalues --   -1.08521  -1.07396  -1.06077  -1.02940  -1.02514
 Alpha  occ. eigenvalues --   -1.01470  -0.99712  -0.99455  -0.98437  -0.98067
 Alpha  occ. eigenvalues --   -0.96334  -0.95051  -0.93675  -0.91049  -0.86191
 Alpha  occ. eigenvalues --   -0.85075  -0.84685  -0.84060  -0.83890  -0.83387
 Alpha  occ. eigenvalues --   -0.82114  -0.78922  -0.75443  -0.74477  -0.73951
 Alpha  occ. eigenvalues --   -0.73595  -0.73383  -0.73154  -0.72164  -0.68797
 Alpha  occ. eigenvalues --   -0.67352  -0.67293  -0.66602  -0.65104  -0.64472
 Alpha  occ. eigenvalues --   -0.63759  -0.63635  -0.62653  -0.62583  -0.61645
 Alpha  occ. eigenvalues --   -0.61132  -0.60367  -0.59559  -0.59009  -0.58383
 Alpha  occ. eigenvalues --   -0.58247  -0.58166  -0.57517  -0.57363  -0.56437
 Alpha  occ. eigenvalues --   -0.56226  -0.56066  -0.54530  -0.54431  -0.54046
 Alpha  occ. eigenvalues --   -0.53645  -0.53511  -0.52895  -0.52844  -0.52723
 Alpha  occ. eigenvalues --   -0.52320  -0.51975  -0.51749  -0.51391  -0.51163
 Alpha  occ. eigenvalues --   -0.50058  -0.50020  -0.49487  -0.48684  -0.48539
 Alpha  occ. eigenvalues --   -0.48386  -0.48160  -0.47988  -0.47787  -0.47686
 Alpha  occ. eigenvalues --   -0.47357  -0.46031  -0.45076  -0.44101  -0.43061
 Alpha  occ. eigenvalues --   -0.42183  -0.39632  -0.39268  -0.38296  -0.37218
 Alpha  occ. eigenvalues --   -0.37137  -0.36627  -0.35919  -0.35275  -0.34650
 Alpha  occ. eigenvalues --   -0.34577  -0.34442  -0.33219  -0.32980  -0.32843
 Alpha  occ. eigenvalues --   -0.32627  -0.32338  -0.31890  -0.31864  -0.31806
 Alpha  occ. eigenvalues --   -0.31353  -0.28089  -0.26778  -0.25389
 Alpha virt. eigenvalues --    0.03162   0.05362   0.06753   0.08207   0.08786
 Alpha virt. eigenvalues --    0.09088   0.09757   0.10085   0.10743   0.12248
 Alpha virt. eigenvalues --    0.12962   0.12996   0.14661   0.14777   0.15585

 Mulliken charges:
               1
     1  N   -0.310160
     2  C    0.180443
     3  C    0.034065
     4  N   -0.256141
     5  C    0.131467
     6  H    0.030139
     7  N   -0.273637
     8  C    0.126113
     9  H    0.019695
    10  N   -0.290063
    11  C    0.235062
    12  C    0.089653
    13  N   -0.034845
    14  H    0.107749
    15  H    0.090329
    16  H    0.028694
    17  H    0.036066
    18  H    0.026058
    19  N   -0.298958
    20  C    0.243499
    21  C    0.183344
    22  N   -0.115396
    23  H    0.110705
    24  H    0.117067
    25  N   -0.300560
    26  C    0.234599
    27  N   -0.120638
    28  H    0.118887
    29  C    0.146628
    30  O   -0.324202
    31  C    0.001317
    32  N   -0.226177
    33  C    0.119783
    34  H    0.029653
    35  H    0.024364
    36  H    0.026506
    37  H    0.021279
    38  H    0.051675
    39  H    0.065288
    40  H    0.077850
    41  H    0.030828
    42  C   -0.090778
    43  O   -0.272516
    44  C    0.187130
    45  H    0.134302
    46  N   -0.127841
    47  O   -0.350283
    48  C    0.344322
    49  H    0.045102
    50  C    0.162896
    51  C    0.035300
    52  N   -0.289046
    53  H    0.031219
    54  H    0.036064
    55  H    0.012436
    56  H    0.116828
    57  H    0.121306
    58  N   -0.053828
    59  C    0.134093
    60  C    0.231319
    61  N   -0.270215
    62  H    0.043450
    63  C    0.152266
    64  N   -0.303927
    65  H    0.023073
    66  C    0.113221
    67  N   -0.249082
    68  C    0.013380
    69  C    0.180866
    70  N   -0.299085
 Sum of Mulliken charges =  -0.00000

 Dipole moment (field-independent basis, Debye):
    X=              4.8627    Y=              5.6645    Z=              4.1320  Tot=              8.5327
 Quadrupole moment (field-independent basis, Debye-Ang):
   XX=           -138.3961   YY=           -226.9033   ZZ=           -255.5014
   XY=             15.3227   XZ=             22.9536   YZ=             -1.4338

 Normal termination of Gaussian 16 at Fri Jan 19 10:50:24 2018.
