 Gaussian 16, Revision A.03,
 Gaussian 16:  EM64L-G16RevA.03 25-Dec-2016

 ---------------------------------------
 #p wb97xd/cc-pvdz sp scf=(maxcycles=20)
 ---------------------------------------

 ------------------
 Base pair stacking
 ------------------
 Symbolic Z-matrix:
 Charge =  0 Multiplicity = 1

                         Standard orientation:
 ---------------------------------------------------------------------
 Center     Atomic      Atomic             Coordinates (Angstroms)
 Number     Number       Type             X           Y           Z
 ---------------------------------------------------------------------
      1          7           0        5.724478   -0.964415   -1.016131
      2          6           0        7.016670   -0.255192   -1.088608
      3          6           0        3.576696   -1.437391   -1.042078
      4          7           0        4.232516   -2.626376   -0.757556
      5          6           0        5.500228   -2.293834   -0.753306
      6          1           0        6.321823   -2.984857   -0.562507
      7          7           0        1.897679    0.162578   -1.470958
      8          6           0        2.886195    1.053696   -1.598708
      9          1           0        2.569187    2.070182   -1.827880
     10          7           0        4.201345    0.878526   -1.486408
     11          6           0        4.483181   -0.404154   -1.204051
     12          6           0        2.213951   -1.119704   -1.186687
     13          7           0        1.228593   -2.010700   -1.058784
     14          1           0        1.416382   -2.970833   -0.848771
     15          1           0        0.269618   -1.749022   -1.168460
     16          1           0        7.581995   -0.662116   -1.806247
     17          1           0        6.857195    0.709122   -1.297853
     18          1           0        7.490123   -0.330214   -0.210995
     19          7           0        4.450518    1.131136    1.196116
     20          6           0        3.100384    1.331176    1.037485
     21          6           0        5.510561    2.038394    0.712489
     22          7           0        0.463750    3.255481   -0.148663
     23          1           0       -0.534942    3.213099   -0.157233
     24          1           0        0.888025    4.047984   -0.587588
     25          7           0        2.519963    2.381688    0.418138
     26          6           0        1.201726    2.293307    0.425368
     27          7           0        0.503384    1.256319    0.995007
     28          1           0       -0.504074    1.271712    0.953138
     29          6           0        1.079816    0.165073    1.637481
     30          8           0        0.358748   -0.717859    2.118345
     31          6           0        2.495569    0.245964    1.637742
     32          7           0        3.446861   -0.617987    2.162654
     33          6           0        4.588864   -0.053415    1.877540
     34          1           0        5.565666   -0.459926    2.141887
     35          1           0        6.101104    1.551180    0.070068
     36          1           0        5.092578    2.820342    0.251940
     37          1           0        6.054602    2.360544    1.486477
     38          1           0       -5.454836    1.615659   -0.153390
     39          1           0       -5.566425    2.239061    1.490857
     40          1           0       -4.111508    2.527436    0.536177
     41          1           0       -5.205229   -2.479044    2.360115
     42          6           0       -4.566554   -1.639565    2.085184
     43          8           0       -2.548385   -2.753662    2.644551
     44          6           0       -3.148031   -1.762783    2.228166
     45          1           0       -1.427811   -0.692460    1.939115
     46          7           0       -2.433188   -0.643429    1.852292
     47          8           0       -2.223684    1.475641    1.063083
     48          6           0       -2.938589    0.537928    1.370086
     49          1           0       -6.161237   -0.355553    1.490124
     50          6           0       -5.089208   -0.499906    1.617608
     51          6           0       -4.900577    1.821933    0.750110
     52          7           0       -4.314657    0.579547    1.260923
     53          1           0       -5.476610    2.800284   -2.630516
     54          1           0       -4.242288    3.042354   -1.591309
     55          1           0       -5.753249    2.803339   -1.022134
     56          1           0       -2.066775   -3.633782   -1.201791
     57          1           0       -3.744416   -3.521789   -1.490013
     58          7           0       -2.871252   -3.056295   -1.341273
     59          6           0       -2.784632   -1.724551   -1.329613
     60          6           0       -3.637342    0.491655   -1.481316
     61          7           0       -2.451537    1.089516   -1.279227
     62          1           0       -0.494719    0.581712   -0.942136
     63          6           0       -1.492889    0.180604   -1.112500
     64          7           0       -1.577645   -1.153661   -1.123819
     65          1           0       -6.816681    0.275413   -2.026499
     66          6           0       -5.759888    0.077833   -1.844637
     67          7           0       -5.230603   -1.117476   -1.750904
     68          6           0       -3.885185   -0.869428   -1.520573
     69          6           0       -5.101072    2.552218   -1.737524
     70          7           0       -4.853090    1.098128   -1.691457
 ---------------------------------------------------------------------

 SCF Done:  E(RwB97XD) =  -2048.66024762     A.U. after   15 cycles

 The electronic state is 1-A.
 Alpha  occ. eigenvalues --  -19.24979 -19.21404 -19.20660 -14.52687 -14.51863
 Alpha  occ. eigenvalues --  -14.49527 -14.48460 -14.47877 -14.47291 -14.46896
 Alpha  occ. eigenvalues --  -14.46806 -14.45811 -14.44392 -14.44290 -14.43102
 Alpha  occ. eigenvalues --  -14.41955 -14.41899 -14.40978 -14.40730 -14.40482
 Alpha  occ. eigenvalues --  -10.44604 -10.41213 -10.39818 -10.39523 -10.38340
 Alpha  occ. eigenvalues --  -10.38249 -10.37374 -10.37157 -10.36126 -10.35767
 Alpha  occ. eigenvalues --  -10.34577 -10.34498 -10.34108 -10.33936 -10.33689
 Alpha  occ. eigenvalues --  -10.33438 -10.33240 -10.32789 -10.32173 -10.30490
 Alpha  occ. eigenvalues --  -10.30136 -10.28952 -10.28074  -1.19053  -1.15910
 Alpha  occ. eigenvalues --   -1.13304  -1.12452  -1.12047  -1.10466  -1.09440
 Alpha  occ. eigenvalues --   -1.08750  -1.08628  -1.05669  -1.04852  -1.02115
 Alpha  occ. eigenvalues --   -1.01616  -1.01213  -0.99848  -0.98583  -0.97760
 Alpha  occ. eigenvalues --   -0.96979  -0.96440  -0.93304  -0.90496  -0.88377
 Alpha  occ. eigenvalues --   -0.86826  -0.84860  -0.83986  -0.83307  -0.83147
 Alpha  occ. eigenvalues --   -0.82072  -0.78356  -0.77334  -0.75205  -0.74546
 Alpha  occ. eigenvalues --   -0.73716  -0.73604  -0.72978  -0.71709  -0.70704
 Alpha  occ. eigenvalues --   -0.67482  -0.67074  -0.67041  -0.66599  -0.65060
 Alpha  occ. eigenvalues --   -0.64588  -0.63988  -0.63458  -0.62834  -0.62619
 Alpha  occ. eigenvalues --   -0.61789  -0.61233  -0.60773  -0.59878  -0.59315
 Alpha  occ. eigenvalues --   -0.58878  -0.58442  -0.58097  -0.57354  -0.56666
 Alpha  occ. eigenvalues --   -0.56198  -0.55937  -0.55421  -0.54440  -0.54273
 Alpha  occ. eigenvalues --   -0.53985  -0.53918  -0.53439  -0.53231  -0.52830
 Alpha  occ. eigenvalues --   -0.52416  -0.51861  -0.51204  -0.51074  -0.50870
 Alpha  occ. eigenvalues --   -0.50089  -0.49706  -0.49497  -0.49065  -0.49018
 Alpha  occ. eigenvalues --   -0.48439  -0.48188  -0.48070  -0.47951  -0.47117
 Alpha  occ. eigenvalues --   -0.46445  -0.45927  -0.45738  -0.44367  -0.42513
 Alpha  occ. eigenvalues --   -0.41630  -0.41025  -0.39065  -0.37932  -0.37751
 Alpha  occ. eigenvalues --   -0.37623  -0.37146  -0.36682  -0.36174  -0.34959
 Alpha  occ. eigenvalues --   -0.34589  -0.34282  -0.33785  -0.33475  -0.32843
 Alpha  occ. eigenvalues --   -0.32405  -0.32305  -0.31767  -0.31355  -0.30911
 Alpha  occ. eigenvalues --   -0.30712  -0.29114  -0.26530  -0.25227
 Alpha virt. eigenvalues --    0.03537   0.03728   0.06935   0.07422   0.08682
 Alpha virt. eigenvalues --    0.09028   0.09175   0.10039   0.10996   0.12601
 Alpha virt. eigenvalues --    0.13459   0.13587   0.13995   0.14445   0.14595

 Mulliken charges:
               1
     1  N   -0.304685
     2  C    0.186227
     3  C    0.079025
     4  N   -0.249283
     5  C    0.124732
     6  H    0.026104
     7  N   -0.281206
     8  C    0.150566
     9  H    0.005561
    10  N   -0.290982
    11  C    0.210787
    12  C    0.074216
    13  N   -0.047446
    14  H    0.109087
    15  H    0.086043
    16  H    0.025431
    17  H    0.056075
    18  H    0.018471
    19  N   -0.272061
    20  C    0.200873
    21  C    0.230362
    22  N   -0.103121
    23  H    0.117624
    24  H    0.117971
    25  N   -0.293360
    26  C    0.215076
    27  N   -0.126367
    28  H    0.116690
    29  C    0.171431
    30  O   -0.320364
    31  C    0.014085
    32  N   -0.214977
    33  C    0.114768
    34  H    0.015086
    35  H   -0.048048
    36  H    0.031228
    37  H    0.019785
    38  H    0.062777
    39  H    0.047060
    40  H    0.067758
    41  H    0.026581
    42  C   -0.101826
    43  O   -0.267793
    44  C    0.170877
    45  H    0.130152
    46  N   -0.114922
    47  O   -0.324055
    48  C    0.320138
    49  H    0.041083
    50  C    0.169062
    51  C    0.031404
    52  N   -0.269242
    53  H    0.028086
    54  H    0.043359
    55  H    0.023422
    56  H    0.122450
    57  H    0.120433
    58  N   -0.063646
    59  C    0.109171
    60  C    0.178885
    61  N   -0.238541
    62  H    0.025053
    63  C    0.149850
    64  N   -0.294944
    65  H    0.037888
    66  C    0.116757
    67  N   -0.243293
    68  C    0.054814
    69  C    0.183473
    70  N   -0.307678
 Sum of Mulliken charges =  -0.00000

 Dipole moment (field-independent basis, Debye):
    X=             -5.0845    Y=              6.4914    Z=             -4.9995  Tot=              9.6429
 Quadrupole moment (field-independent basis, Debye-Ang):
   XX=           -148.1323   YY=           -227.2322   ZZ=           -263.8964
   XY=            -11.7719   XZ=              4.3511   YZ=             10.7288

 Normal termination of Gaussian 16 at Fri Jan 19 02:24:06 2018.
