 Gaussian 16, Revision A.03,
 Gaussian 16:  EM64L-G16RevA.03 25-Dec-2016

 ---------------------------------------
 #p wb97xd/cc-pvdz sp scf=(maxcycles=20)
 ---------------------------------------

 ------------------
 Base pair stacking
 ------------------
 Symbolic Z-matrix:
 Charge =  0 Multiplicity = 1

                         Standard orientation:
 ---------------------------------------------------------------------
 Center     Atomic      Atomic             Coordinates (Angstroms)
 Number     Number       Type             X           Y           Z
 ---------------------------------------------------------------------
      1          7           0       -6.888866   -0.990794    0.144387
      2          6           0       -8.184016   -0.511797    0.665118
      3          6           0       -4.746109   -1.422756   -0.099143
      4          7           0       -5.381656   -1.978871   -1.199839
      5          6           0       -6.647147   -1.696380   -1.009071
      6          1           0       -7.454578   -1.981045   -1.684320
      7          7           0       -3.098690   -0.744104    1.446301
      8          6           0       -4.094362   -0.197815    2.151838
      9          1           0       -3.793346    0.298936    3.073198
     10          7           0       -5.399899   -0.173140    1.891350
     11          6           0       -5.662191   -0.810319    0.738259
     12          6           0       -3.395220   -1.378065    0.290780
     13          7           0       -2.402686   -1.924014   -0.414908
     14          1           0       -2.575968   -2.402994   -1.276177
     15          1           0       -1.452599   -1.872899   -0.106931
     16          1           0       -8.791759   -1.291017    0.818842
     17          1           0       -8.038952   -0.028182    1.527789
     18          1           0       -8.602635    0.109634    0.002873
     19          7           0       -3.131392    2.303823   -0.968565
     20          6           0       -1.783652    2.318004   -0.701267
     21          6           0       -4.121349    3.249877   -0.415700
     22          7           0        0.946584    3.725010    0.919812
     23          1           0        1.931293    3.564299    0.981119
     24          1           0        0.577880    4.489821    1.448809
     25          7           0       -1.142456    3.191542    0.104859
     26          6           0        0.155265    2.950244    0.162538
     27          7           0        0.779278    1.931912   -0.516509
     28          1           0        1.776368    1.822099   -0.412989
     29          6           0        0.139409    1.021253   -1.351453
     30          8           0        0.795764    0.138673   -1.918011
     31          6           0       -1.255199    1.267767   -1.423460
     32          7           0       -2.251137    0.607537   -2.129930
     33          6           0       -3.344090    1.255463   -1.830166
     34          1           0       -4.335937    1.009770   -2.211158
     35          1           0       -4.808291    2.747650    0.108399
     36          1           0       -3.657961    3.901829    0.183050
     37          1           0       -4.566765    3.742929   -1.162239
     38          1           0        6.636246    1.415199    1.025298
     39          1           0        6.939683    2.253204   -0.494674
     40          1           0        5.455636    2.569494    0.404734
     41          1           0        6.139701   -2.212725   -2.095315
     42          6           0        5.576056   -1.352640   -1.733647
     43          8           0        3.498276   -2.127740   -2.575773
     44          6           0        4.167616   -1.285573   -1.977835
     45          1           0        2.555709   -0.073176   -1.631179
     46          7           0        3.550920   -0.156235   -1.478293
     47          8           0        3.511283    1.835516   -0.388085
     48          6           0        4.142350    0.874604   -0.791895
     49          1           0        7.249654   -0.365869   -0.855499
     50          6           0        6.181207   -0.362678   -1.067029
     51          6           0        6.178109    1.814428    0.132665
     52          7           0        5.502494    0.737288   -0.596071
     53          1           0        4.187067   -0.166478    4.490383
     54          1           0        3.018517    0.821096    3.923575
     55          1           0        4.561862    1.015414    3.429211
     56          1           0        0.879835   -3.264293   -1.385947
     57          1           0        2.536487   -3.477879   -1.039551
     58          7           0        1.673484   -3.016842   -0.830038
     59          6           0        1.585971   -2.112407    0.147465
     60          6           0        2.424840   -0.778660    1.930477
     61          7           0        1.252869   -0.175477    2.189472
     62          1           0       -0.678907   -0.178284    1.504730
     63          6           0        0.307470   -0.617800    1.362738
     64          7           0        0.393134   -1.523602    0.383065
     65          1           0        5.565015   -1.469641    2.268082
     66          6           0        4.521633   -1.419953    1.955331
     67          7           0        4.000685   -2.127374    0.982786
     68          6           0        2.671604   -1.730417    0.956415
     69          6           0        3.867359    0.346086    3.693469
     70          7           0        3.624597   -0.582554    2.572448
 ---------------------------------------------------------------------

 SCF Done:  E(RwB97XD) =  -2048.74761934     A.U. after   15 cycles

 The electronic state is 1-A.
 Alpha  occ. eigenvalues --  -19.26060 -19.22349 -19.20823 -14.52550 -14.50930
 Alpha  occ. eigenvalues --  -14.49577 -14.48722 -14.47968 -14.47118 -14.46861
 Alpha  occ. eigenvalues --  -14.45069 -14.43831 -14.42364 -14.42318 -14.42264
 Alpha  occ. eigenvalues --  -14.42160 -14.42091 -14.41553 -14.40894 -14.40692
 Alpha  occ. eigenvalues --  -10.45634 -10.41385 -10.40348 -10.38421 -10.37546
 Alpha  occ. eigenvalues --  -10.37509 -10.36471 -10.35903 -10.35759 -10.35344
 Alpha  occ. eigenvalues --  -10.34898 -10.34453 -10.34122 -10.33931 -10.33658
 Alpha  occ. eigenvalues --  -10.33266 -10.32914 -10.31667 -10.30936 -10.30686
 Alpha  occ. eigenvalues --  -10.30651 -10.29281 -10.28222  -1.19610  -1.13598
 Alpha  occ. eigenvalues --   -1.13391  -1.13344  -1.12162  -1.10660  -1.09457
 Alpha  occ. eigenvalues --   -1.08755  -1.06976  -1.05560  -1.02710  -1.02473
 Alpha  occ. eigenvalues --   -1.00939  -0.99929  -0.99232  -0.98668  -0.97666
 Alpha  occ. eigenvalues --   -0.96588  -0.94627  -0.93146  -0.90944  -0.85953
 Alpha  occ. eigenvalues --   -0.84675  -0.84449  -0.84142  -0.83939  -0.83014
 Alpha  occ. eigenvalues --   -0.82427  -0.78901  -0.75119  -0.74676  -0.73801
 Alpha  occ. eigenvalues --   -0.73512  -0.73480  -0.72850  -0.71681  -0.68429
 Alpha  occ. eigenvalues --   -0.67503  -0.66891  -0.66641  -0.64773  -0.64517
 Alpha  occ. eigenvalues --   -0.63834  -0.63280  -0.62769  -0.62243  -0.61846
 Alpha  occ. eigenvalues --   -0.60699  -0.60184  -0.59577  -0.58671  -0.58527
 Alpha  occ. eigenvalues --   -0.58168  -0.57784  -0.57210  -0.56938  -0.56514
 Alpha  occ. eigenvalues --   -0.56127  -0.55745  -0.54493  -0.54455  -0.53796
 Alpha  occ. eigenvalues --   -0.53748  -0.53548  -0.52987  -0.52725  -0.52511
 Alpha  occ. eigenvalues --   -0.52111  -0.51955  -0.51497  -0.51091  -0.50770
 Alpha  occ. eigenvalues --   -0.50298  -0.49630  -0.49598  -0.49052  -0.48623
 Alpha  occ. eigenvalues --   -0.48398  -0.48153  -0.47850  -0.47818  -0.47542
 Alpha  occ. eigenvalues --   -0.47431  -0.45658  -0.45150  -0.43950  -0.42737
 Alpha  occ. eigenvalues --   -0.41805  -0.39639  -0.39020  -0.37830  -0.37423
 Alpha  occ. eigenvalues --   -0.37291  -0.36827  -0.35824  -0.35363  -0.34496
 Alpha  occ. eigenvalues --   -0.34318  -0.34132  -0.33503  -0.32966  -0.32683
 Alpha  occ. eigenvalues --   -0.32398  -0.32302  -0.32022  -0.31664  -0.31612
 Alpha  occ. eigenvalues --   -0.30883  -0.27558  -0.26298  -0.25544
 Alpha virt. eigenvalues --    0.03062   0.05776   0.07296   0.08057   0.08878
 Alpha virt. eigenvalues --    0.09405   0.09585   0.10427   0.10715   0.12530
 Alpha virt. eigenvalues --    0.13311   0.13417   0.14370   0.14780   0.15542

 Mulliken charges:
               1
     1  N   -0.309866
     2  C    0.180589
     3  C    0.030932
     4  N   -0.253713
     5  C    0.127016
     6  H    0.028258
     7  N   -0.283708
     8  C    0.132235
     9  H    0.016739
    10  N   -0.292100
    11  C    0.235274
    12  C    0.097521
    13  N   -0.033815
    14  H    0.108897
    15  H    0.089873
    16  H    0.028092
    17  H    0.035992
    18  H    0.024057
    19  N   -0.306601
    20  C    0.257722
    21  C    0.180716
    22  N   -0.122706
    23  H    0.113675
    24  H    0.118815
    25  N   -0.308776
    26  C    0.247207
    27  N   -0.138042
    28  H    0.117575
    29  C    0.177616
    30  O   -0.326741
    31  C   -0.010890
    32  N   -0.230158
    33  C    0.125451
    34  H    0.029613
    35  H    0.031776
    36  H    0.028175
    37  H    0.022237
    38  H    0.051504
    39  H    0.063405
    40  H    0.074827
    41  H    0.027374
    42  C   -0.065508
    43  O   -0.286458
    44  C    0.181812
    45  H    0.136392
    46  N   -0.128428
    47  O   -0.351211
    48  C    0.348501
    49  H    0.043330
    50  C    0.160000
    51  C    0.040170
    52  N   -0.288109
    53  H    0.030808
    54  H    0.040068
    55  H    0.017335
    56  H    0.115619
    57  H    0.117632
    58  N   -0.022077
    59  C    0.100875
    60  C    0.240403
    61  N   -0.278343
    62  H    0.031166
    63  C    0.159064
    64  N   -0.304202
    65  H    0.023307
    66  C    0.119782
    67  N   -0.251064
    68  C    0.007976
    69  C    0.181478
    70  N   -0.306365
 Sum of Mulliken charges =  -0.00000

 Dipole moment (field-independent basis, Debye):
    X=              5.4073    Y=              5.3790    Z=              4.4026  Tot=              8.8065
 Quadrupole moment (field-independent basis, Debye-Ang):
   XX=           -140.4203   YY=           -228.0704   ZZ=           -251.7232
   XY=              6.8811   XZ=             22.8090   YZ=              5.7886

 Normal termination of Gaussian 16 at Fri Jan 19 05:31:54 2018.
