 Gaussian 16, Revision A.03,
 Gaussian 16:  EM64L-G16RevA.03 25-Dec-2016

 ---------------------------------------
 #p wb97xd/cc-pvdz sp scf=(maxcycles=20)
 ---------------------------------------

 ------------------
 Base pair stacking
 ------------------
 Symbolic Z-matrix:
 Charge =  0 Multiplicity = 1

                         Standard orientation:
 ---------------------------------------------------------------------
 Center     Atomic      Atomic             Coordinates (Angstroms)
 Number     Number       Type             X           Y           Z
 ---------------------------------------------------------------------
      1          7           0       -6.033643   -1.237866    0.700413
      2          6           0       -7.328913   -0.641142    1.080134
      3          6           0       -3.883889   -1.664722    0.516922
      4          7           0       -4.534388   -2.601728   -0.272760
      5          6           0       -5.803495   -2.307068   -0.130606
      6          1           0       -6.621984   -2.841754   -0.613447
      7          7           0       -2.212061   -0.421713    1.622754
      8          6           0       -3.204478    0.313801    2.134327
      9          1           0       -2.891992    1.120348    2.796217
     10          7           0       -4.518770    0.203119    1.951892
     11          6           0       -4.794911   -0.817288    1.123074
     12          6           0       -2.522620   -1.441036    0.792329
     13          7           0       -1.533357   -2.176382    0.280659
     14          1           0       -1.716882   -2.940717   -0.338477
     15          1           0       -0.575595   -1.988455    0.498644
     16          1           0       -7.893058   -1.328853    1.537264
     17          1           0       -7.173723    0.127182    1.700398
     18          1           0       -7.801350   -0.315874    0.260984
     19          7           0       -4.116669    1.683243   -1.087287
     20          6           0       -2.766184    1.825038   -0.877192
     21          6           0       -5.165081    2.554451   -0.519388
     22          7           0       -0.111722    3.517797    0.589145
     23          1           0        0.885086    3.446960    0.613479
     24          1           0       -0.526539    4.262885    1.112097
     25          7           0       -2.174831    2.776420   -0.122726
     26          6           0       -0.859433    2.652966   -0.112934
     27          7           0       -0.173677    1.673464   -0.789562
     28          1           0        0.832542    1.655687   -0.724963
     29          6           0       -0.761508    0.684351   -1.571850
     30          8           0       -0.051322   -0.153642   -2.141175
     31          6           0       -2.174362    0.803983   -1.592026
     32          7           0       -3.133989    0.036608   -2.237909
     33          6           0       -4.268071    0.594068   -1.910360
     34          1           0       -5.248050    0.249813   -2.242616
     35          1           0       -5.783021    2.009744    0.046516
     36          1           0       -4.738930    3.263069    0.041449
     37          1           0       -5.681975    2.982817   -1.259743
     38          1           0        5.762105    1.725637    0.518943
     39          1           0        5.929069    2.539937   -1.034664
     40          1           0        4.459119    2.751073   -0.082795
     41          1           0        5.471052   -2.026574   -2.478185
     42          6           0        4.847114   -1.209086   -2.116764
     43          8           0        2.815836   -2.190872   -2.849657
     44          6           0        3.429831   -1.274651   -2.303448
     45          1           0        1.730443   -0.199744   -1.922676
     46          7           0        2.734337   -0.189535   -1.809438
     47          8           0        2.558881    1.823563   -0.773152
     48          6           0        3.257323    0.910348   -1.176749
     49          1           0        6.458554   -0.051246   -1.336716
     50          6           0        5.386651   -0.149286   -1.503297
     51          6           0        5.235229    2.054957   -0.364247
     52          7           0        4.630951    0.900213   -1.034432
     53          1           0        5.149976    1.440358    3.862287
     54          1           0        3.915449    2.118870    3.039086
     55          1           0        5.427858    2.166020    2.427158
     56          1           0        1.768794   -3.679514   -0.311458
     57          1           0        3.445718   -3.703001    0.000769
     58          7           0        2.570699   -3.223294    0.074509
     59          6           0        2.478384   -2.028338    0.661657
     60          6           0        3.321496   -0.113113    1.794263
     61          7           0        2.133299    0.507725    1.878931
     62          1           0        0.178943    0.198492    1.344629
     63          6           0        1.178686   -0.232941    1.319433
     64          7           0        1.269133   -1.430007    0.730858
     65          1           0        6.501299   -0.540048    2.192703
     66          6           0        5.445499   -0.638628    1.938732
     67          7           0        4.921410   -1.666497    1.317040
     68          6           0        3.575123   -1.346121    1.219032
     69          6           0        4.776201    1.618230    2.951982
     70          7           0        4.534478    0.338700    2.257462
 ---------------------------------------------------------------------

 SCF Done:  E(RwB97XD) =  -2048.75328433     A.U. after   15 cycles

 The electronic state is 1-A.
 Alpha  occ. eigenvalues --  -19.25535 -19.21717 -19.20598 -14.52317 -14.52118
 Alpha  occ. eigenvalues --  -14.49513 -14.48597 -14.47543 -14.47084 -14.46826
 Alpha  occ. eigenvalues --  -14.46529 -14.45011 -14.43717 -14.43576 -14.42770
 Alpha  occ. eigenvalues --  -14.41984 -14.41873 -14.41553 -14.40774 -14.40692
 Alpha  occ. eigenvalues --  -10.45208 -10.41114 -10.39825 -10.39175 -10.38173
 Alpha  occ. eigenvalues --  -10.37570 -10.37411 -10.36720 -10.36015 -10.35500
 Alpha  occ. eigenvalues --  -10.35230 -10.34688 -10.34176 -10.34011 -10.33899
 Alpha  occ. eigenvalues --  -10.33627 -10.33185 -10.32095 -10.31849 -10.30586
 Alpha  occ. eigenvalues --  -10.30503 -10.29122 -10.27958  -1.19200  -1.14809
 Alpha  occ. eigenvalues --   -1.13116  -1.12759  -1.12032  -1.10448  -1.09137
 Alpha  occ. eigenvalues --   -1.08528  -1.08462  -1.05608  -1.04045  -1.02275
 Alpha  occ. eigenvalues --   -1.01028  -1.00534  -0.99611  -0.98410  -0.97620
 Alpha  occ. eigenvalues --   -0.96391  -0.96141  -0.93256  -0.90699  -0.87242
 Alpha  occ. eigenvalues --   -0.85666  -0.84629  -0.83925  -0.83715  -0.83025
 Alpha  occ. eigenvalues --   -0.82237  -0.78599  -0.76478  -0.74515  -0.74237
 Alpha  occ. eigenvalues --   -0.73533  -0.73484  -0.73126  -0.71650  -0.69843
 Alpha  occ. eigenvalues --   -0.67246  -0.66925  -0.66315  -0.66157  -0.64293
 Alpha  occ. eigenvalues --   -0.63699  -0.63628  -0.63283  -0.62518  -0.61625
 Alpha  occ. eigenvalues --   -0.61551  -0.60844  -0.59994  -0.59248  -0.59030
 Alpha  occ. eigenvalues --   -0.58247  -0.57975  -0.57622  -0.57156  -0.56224
 Alpha  occ. eigenvalues --   -0.55951  -0.55724  -0.55121  -0.54859  -0.54158
 Alpha  occ. eigenvalues --   -0.53693  -0.53447  -0.53100  -0.52766  -0.52495
 Alpha  occ. eigenvalues --   -0.52462  -0.52338  -0.52129  -0.51381  -0.50842
 Alpha  occ. eigenvalues --   -0.49972  -0.49831  -0.49292  -0.49216  -0.49087
 Alpha  occ. eigenvalues --   -0.48597  -0.48351  -0.48127  -0.47571  -0.47313
 Alpha  occ. eigenvalues --   -0.47269  -0.45800  -0.45411  -0.44068  -0.43090
 Alpha  occ. eigenvalues --   -0.41760  -0.40198  -0.39201  -0.37734  -0.37348
 Alpha  occ. eigenvalues --   -0.37124  -0.37104  -0.36999  -0.35962  -0.34407
 Alpha  occ. eigenvalues --   -0.34228  -0.34030  -0.33764  -0.33659  -0.32988
 Alpha  occ. eigenvalues --   -0.32544  -0.32233  -0.31755  -0.31498  -0.31440
 Alpha  occ. eigenvalues --   -0.31010  -0.29095  -0.26351  -0.25349
 Alpha virt. eigenvalues --    0.03343   0.04551   0.07294   0.07423   0.08691
 Alpha virt. eigenvalues --    0.08960   0.09868   0.10488   0.10873   0.12179
 Alpha virt. eigenvalues --    0.13382   0.13468   0.13895   0.14567   0.14964

 Mulliken charges:
               1
     1  N   -0.308847
     2  C    0.177141
     3  C    0.057673
     4  N   -0.245721
     5  C    0.122638
     6  H    0.027414
     7  N   -0.284836
     8  C    0.136262
     9  H    0.013184
    10  N   -0.289096
    11  C    0.228357
    12  C    0.089372
    13  N   -0.041901
    14  H    0.111665
    15  H    0.090486
    16  H    0.030190
    17  H    0.038198
    18  H    0.021944
    19  N   -0.294574
    20  C    0.248025
    21  C    0.187317
    22  N   -0.117308
    23  H    0.116391
    24  H    0.117332
    25  N   -0.304333
    26  C    0.231386
    27  N   -0.143573
    28  H    0.123729
    29  C    0.178080
    30  O   -0.324816
    31  C   -0.016187
    32  N   -0.217452
    33  C    0.124903
    34  H    0.019506
    35  H    0.014796
    36  H    0.030092
    37  H    0.020583
    38  H    0.038557
    39  H    0.062816
    40  H    0.076228
    41  H    0.024749
    42  C   -0.087710
    43  O   -0.272831
    44  C    0.159530
    45  H    0.134243
    46  N   -0.119098
    47  O   -0.340282
    48  C    0.335702
    49  H    0.041515
    50  C    0.171439
    51  C    0.044304
    52  N   -0.276270
    53  H    0.035752
    54  H    0.041665
    55  H    0.010741
    56  H    0.123609
    57  H    0.118576
    58  N   -0.043288
    59  C    0.100657
    60  C    0.223082
    61  N   -0.261979
    62  H    0.035798
    63  C    0.148898
    64  N   -0.300685
    65  H    0.033052
    66  C    0.111307
    67  N   -0.244588
    68  C    0.024828
    69  C    0.181393
    70  N   -0.299727
 Sum of Mulliken charges =  -0.00000

 Dipole moment (field-independent basis, Debye):
    X=              5.0944    Y=              5.4960    Z=              4.9996  Tot=              9.0086
 Quadrupole moment (field-independent basis, Debye-Ang):
   XX=           -145.2608   YY=           -224.3977   ZZ=           -261.0808
   XY=             11.2864   XZ=             11.1109   YZ=              0.4068

 Normal termination of Gaussian 16 at Thu Jan 18 15:18:06 2018.
