 Gaussian 16, Revision A.03,
 Gaussian 16:  EM64L-G16RevA.03 25-Dec-2016

 ---------------------------------------
 #p wb97xd/cc-pvdz sp scf=(maxcycles=20)
 ---------------------------------------

 ------------------
 Base pair stacking
 ------------------
 Symbolic Z-matrix:
 Charge =  0 Multiplicity = 1

                         Standard orientation:
 ---------------------------------------------------------------------
 Center     Atomic      Atomic             Coordinates (Angstroms)
 Number     Number       Type             X           Y           Z
 ---------------------------------------------------------------------
      1          7           0       -6.315882   -1.100686    0.571635
      2          6           0       -7.606743   -0.466697    0.902895
      3          6           0       -4.171737   -1.575247    0.450169
      4          7           0       -4.823754   -2.524535   -0.323429
      5          6           0       -6.089429   -2.200634   -0.219283
      6          1           0       -6.907876   -2.734630   -0.702947
      7          7           0       -2.499520   -0.329875    1.552748
      8          6           0       -3.487722    0.441160    2.018090
      9          1           0       -3.173431    1.262538    2.660602
     10          7           0       -4.799714    0.350338    1.809887
     11          6           0       -5.078369   -0.690890    1.008249
     12          6           0       -2.812531   -1.369394    0.748700
     13          7           0       -1.827476   -2.140202    0.283186
     14          1           0       -2.012938   -2.920532   -0.315069
     15          1           0       -0.871073   -1.964058    0.516442
     16          1           0       -8.194535   -1.128010    1.369091
     17          1           0       -7.449556    0.318213    1.501514
     18          1           0       -8.054543   -0.159061    0.063348
     19          7           0       -3.806051    1.731830   -1.199155
     20          6           0       -2.457862    1.853938   -0.963500
     21          6           0       -4.848694    2.641396   -0.683135
     22          7           0        0.197824    3.541239    0.506906
     23          1           0        1.192224    3.451744    0.555836
     24          1           0       -0.213085    4.310919    0.996262
     25          7           0       -1.863906    2.817603   -0.226879
     26          6           0       -0.551807    2.668824   -0.183650
     27          7           0        0.128519    1.654617   -0.812960
     28          1           0        1.132526    1.619270   -0.725287
     29          6           0       -0.462076    0.652274   -1.576094
     30          8           0        0.243195   -0.217530   -2.102186
     31          6           0       -1.871443    0.798794   -1.631764
     32          7           0       -2.832143    0.029739   -2.274044
     33          6           0       -3.961548    0.619642   -1.990044
     34          1           0       -4.940843    0.283992   -2.332973
     35          1           0       -5.489728    2.127566   -0.114045
     36          1           0       -4.420577    3.359399   -0.135914
     37          1           0       -5.340560    3.055480   -1.448256
     38          1           0        6.034242    1.633183    0.625908
     39          1           0        6.251465    2.393105   -0.948889
     40          1           0        4.765724    2.663800   -0.037471
     41          1           0        5.732497   -2.208105   -2.255073
     42          6           0        5.117535   -1.367235   -1.934134
     43          8           0        3.083205   -2.332413   -2.680498
     44          6           0        3.703611   -1.411107   -2.150344
     45          1           0        2.018481   -0.291349   -1.842438
     46          7           0        3.019675   -0.297094   -1.707108
     47          8           0        2.862551    1.751679   -0.740136
     48          6           0        3.550954    0.812333   -1.098471
     49          1           0        6.734762   -0.216395   -1.155715
     50          6           0        5.664963   -0.298810   -1.343048
     51          6           0        5.533507    1.943858   -0.278974
     52          7           0        4.920670    0.779964   -0.925150
     53          1           0        4.848248    1.459675    3.895844
     54          1           0        3.645953    2.135065    3.023830
     55          1           0        5.171974    2.132703    2.444761
     56          1           0        1.455627   -3.726105   -0.186240
     57          1           0        3.124535   -3.772224    0.164087
     58          7           0        2.258022   -3.273356    0.202764
     59          6           0        2.177194   -2.058361    0.749058
     60          6           0        3.034108   -0.124174    1.838251
     61          7           0        1.857182    0.522214    1.876305
     62          1           0       -0.090944    0.234066    1.308533
     63          6           0        0.900157   -0.217432    1.319605
     64          7           0        0.979103   -1.434555    0.771906
     65          1           0        6.195176   -0.600039    2.321360
     66          6           0        5.143370   -0.686162    2.047076
     67          7           0        4.612210   -1.723248    1.447093
     68          6           0        3.275145   -1.379963    1.308701
     69          6           0        4.498072    1.615123    2.972151
     70          7           0        4.245630    0.318649    2.313788
 ---------------------------------------------------------------------

 SCF Done:  E(RwB97XD) =  -2048.75317797     A.U. after   15 cycles

 The electronic state is 1-A.
 Alpha  occ. eigenvalues --  -19.25700 -19.21870 -19.20573 -14.52421 -14.51866
 Alpha  occ. eigenvalues --  -14.49679 -14.48496 -14.47647 -14.46852 -14.46758
 Alpha  occ. eigenvalues --  -14.46453 -14.44734 -14.43455 -14.43310 -14.42846
 Alpha  occ. eigenvalues --  -14.42206 -14.41832 -14.41754 -14.40912 -14.40617
 Alpha  occ. eigenvalues --  -10.45355 -10.41039 -10.39924 -10.38919 -10.38107
 Alpha  occ. eigenvalues --  -10.37479 -10.37284 -10.36409 -10.36150 -10.35760
 Alpha  occ. eigenvalues --  -10.34999 -10.34889 -10.34180 -10.34111 -10.33780
 Alpha  occ. eigenvalues --  -10.33689 -10.33133 -10.31890 -10.31800 -10.30696
 Alpha  occ. eigenvalues --  -10.30232 -10.29326 -10.27887  -1.19341  -1.14515
 Alpha  occ. eigenvalues --   -1.13082  -1.12878  -1.12220  -1.10391  -1.09255
 Alpha  occ. eigenvalues --   -1.08419  -1.08256  -1.05754  -1.03780  -1.02391
 Alpha  occ. eigenvalues --   -1.01179  -1.00256  -0.99552  -0.98363  -0.97778
 Alpha  occ. eigenvalues --   -0.96296  -0.95875  -0.93397  -0.90805  -0.86979
 Alpha  occ. eigenvalues --   -0.85422  -0.84776  -0.83911  -0.83797  -0.83146
 Alpha  occ. eigenvalues --   -0.82085  -0.78715  -0.76219  -0.74427  -0.73994
 Alpha  occ. eigenvalues --   -0.73660  -0.73466  -0.73227  -0.71818  -0.69593
 Alpha  occ. eigenvalues --   -0.67191  -0.67063  -0.66411  -0.65913  -0.64347
 Alpha  occ. eigenvalues --   -0.63590  -0.63564  -0.63297  -0.62497  -0.61551
 Alpha  occ. eigenvalues --   -0.61320  -0.60935  -0.59791  -0.59339  -0.58832
 Alpha  occ. eigenvalues --   -0.58177  -0.57861  -0.57579  -0.57265  -0.56289
 Alpha  occ. eigenvalues --   -0.56036  -0.55810  -0.55132  -0.54692  -0.54247
 Alpha  occ. eigenvalues --   -0.53686  -0.53411  -0.52902  -0.52743  -0.52594
 Alpha  occ. eigenvalues --   -0.52476  -0.52101  -0.52064  -0.51474  -0.50960
 Alpha  occ. eigenvalues --   -0.49924  -0.49867  -0.49352  -0.49110  -0.48958
 Alpha  occ. eigenvalues --   -0.48580  -0.48285  -0.48040  -0.47690  -0.47438
 Alpha  occ. eigenvalues --   -0.47282  -0.45706  -0.45372  -0.44006  -0.43231
 Alpha  occ. eigenvalues --   -0.41912  -0.39974  -0.39312  -0.37934  -0.37131
 Alpha  occ. eigenvalues --   -0.37125  -0.37077  -0.36807  -0.35841  -0.34385
 Alpha  occ. eigenvalues --   -0.34292  -0.33978  -0.33809  -0.33465  -0.33079
 Alpha  occ. eigenvalues --   -0.32551  -0.32125  -0.31722  -0.31634  -0.31530
 Alpha  occ. eigenvalues --   -0.31140  -0.28862  -0.26565  -0.25210
 Alpha virt. eigenvalues --    0.03057   0.04930   0.07145   0.07637   0.08826
 Alpha virt. eigenvalues --    0.09004   0.09927   0.10324   0.10988   0.11952
 Alpha virt. eigenvalues --    0.13249   0.13336   0.14170   0.14695   0.15022

 Mulliken charges:
               1
     1  N   -0.310306
     2  C    0.178358
     3  C    0.051156
     4  N   -0.248117
     5  C    0.124356
     6  H    0.028361
     7  N   -0.281104
     8  C    0.134264
     9  H    0.015256
    10  N   -0.291124
    11  C    0.232456
    12  C    0.094137
    13  N   -0.040634
    14  H    0.110744
    15  H    0.091000
    16  H    0.029873
    17  H    0.036698
    18  H    0.023467
    19  N   -0.296294
    20  C    0.249270
    21  C    0.185619
    22  N   -0.115373
    23  H    0.114755
    24  H    0.116759
    25  N   -0.302862
    26  C    0.228663
    27  N   -0.142360
    28  H    0.126275
    29  C    0.167467
    30  O   -0.324763
    31  C   -0.008405
    32  N   -0.222608
    33  C    0.126112
    34  H    0.022118
    35  H    0.017787
    36  H    0.028402
    37  H    0.019620
    38  H    0.040840
    39  H    0.064379
    40  H    0.077167
    41  H    0.026267
    42  C   -0.081931
    43  O   -0.272013
    44  C    0.165705
    45  H    0.134675
    46  N   -0.123740
    47  O   -0.341356
    48  C    0.336521
    49  H    0.042170
    50  C    0.168116
    51  C    0.041395
    52  N   -0.277289
    53  H    0.034465
    54  H    0.039715
    55  H    0.005471
    56  H    0.121923
    57  H    0.119034
    58  N   -0.045009
    59  C    0.110839
    60  C    0.222716
    61  N   -0.268875
    62  H    0.036343
    63  C    0.152059
    64  N   -0.304043
    65  H    0.031477
    66  C    0.113258
    67  N   -0.243642
    68  C    0.016606
    69  C    0.184893
    70  N   -0.297162
 Sum of Mulliken charges =  -0.00000

 Dipole moment (field-independent basis, Debye):
    X=              4.9865    Y=              5.4435    Z=              4.8108  Tot=              8.8114
 Quadrupole moment (field-independent basis, Debye-Ang):
   XX=           -143.9922   YY=           -224.8696   ZZ=           -260.1916
   XY=             12.2746   XZ=             14.0193   YZ=             -0.3868

 Normal termination of Gaussian 16 at Thu Jan 18 15:43:07 2018.
