 Gaussian 16, Revision A.03,
 Gaussian 16:  EM64L-G16RevA.03 25-Dec-2016

 ---------------------------------------
 #p wb97xd/cc-pvdz sp scf=(maxcycles=20)
 ---------------------------------------

 ------------------
 Base pair stacking
 ------------------
 Symbolic Z-matrix:
 Charge =  0 Multiplicity = 1

                         Standard orientation:
 ---------------------------------------------------------------------
 Center     Atomic      Atomic             Coordinates (Angstroms)
 Number     Number       Type             X           Y           Z
 ---------------------------------------------------------------------
      1          7           0       -6.053756   -1.503498    0.380344
      2          6           0       -7.352276   -1.149144    0.985581
      3          6           0       -3.900673   -1.769824    0.018959
      4          7           0       -4.548311   -2.298047   -1.088419
      5          6           0       -5.819553   -2.116452   -0.826369
      6          1           0       -6.636770   -2.413167   -1.484433
      7          7           0       -2.231975   -1.077606    1.535272
      8          6           0       -3.227887   -0.647181    2.316601
      9          1           0       -2.918065   -0.189913    3.255318
     10          7           0       -4.542864   -0.696581    2.113423
     11          6           0       -4.815529   -1.276354    0.932774
     12          6           0       -2.539094   -1.656397    0.353857
     13          7           0       -1.546339   -2.086696   -0.427469
     14          1           0       -1.727240   -2.521219   -1.310477
     15          1           0       -0.588466   -1.989447   -0.156997
     16          1           0       -7.899169   -1.976719    1.112864
     17          1           0       -7.199741   -0.712041    1.871470
     18          1           0       -7.841509   -0.517638    0.384036
     19          7           0       -4.086970    2.098541   -0.635104
     20          6           0       -2.733423    2.185103   -0.414921
     21          6           0       -5.120302    2.867075    0.087580
     22          7           0       -0.047798    3.559550    1.305556
     23          1           0        0.948151    3.473975    1.308263
     24          1           0       -0.449533    4.204620    1.956110
     25          7           0       -2.124918    2.980389    0.491325
     26          6           0       -0.811185    2.841938    0.467590
     27          7           0       -0.142572    1.990372   -0.378162
     28          1           0        0.863727    1.949755   -0.326508
     29          6           0       -0.748230    1.162863   -1.318523
     30          8           0       -0.052674    0.431186   -2.033770
     31          6           0       -2.159526    1.300529   -1.304839
     32          7           0       -3.133178    0.671277   -2.068354
     33          6           0       -4.257806    1.174774   -1.637168
     34          1           0       -5.244291    0.906388   -2.016735
     35          1           0       -5.741547    2.237663    0.553112
     36          1           0       -4.681389    3.459780    0.761611
     37          1           0       -5.636419    3.426120   -0.560418
     38          1           0        5.801766    1.740488    0.867127
     39          1           0        5.969142    2.815886   -0.518573
     40          1           0        4.508277    2.871541    0.468401
     41          1           0        5.442701   -1.415871   -2.746061
     42          6           0        4.831760   -0.668432   -2.239783
     43          8           0        2.783216   -1.480791   -3.117685
     44          6           0        3.412556   -0.683374   -2.422807
     45          1           0        1.729729    0.326375   -1.842447
     46          7           0        2.734387    0.304685   -1.737919
     47          8           0        2.591740    2.103518   -0.359140
     48          6           0        3.275668    1.268516   -0.924547
     49          1           0        6.463088    0.313642   -1.280579
     50          6           0        5.388939    0.259178   -1.452586
     51          6           0        5.273470    2.227577    0.061070
     52          7           0        4.649948    1.217353   -0.798253
     53          1           0        5.132810   -0.190130    4.301977
     54          1           0        3.876234    0.747956    3.851303
     55          1           0        5.378663    1.079481    3.306448
     56          1           0        1.769284   -3.132518   -1.622091
     57          1           0        3.450746   -3.252315   -1.360502
     58          7           0        2.569709   -2.866285   -1.084880
     59          6           0        2.467825   -2.033569   -0.046921
     60          6           0        3.298171   -0.760115    1.783536
     61          7           0        2.102032   -0.257073    2.130857
     62          1           0        0.145014   -0.350415    1.529231
     63          6           0        1.150722   -0.710738    1.317164
     64          7           0        1.250759   -1.544805    0.277014
     65          1           0        6.489571   -1.251920    1.942440
     66          6           0        5.431796   -1.254963    1.677784
     67          7           0        4.914373   -1.933980    0.683360
     68          6           0        3.562087   -1.629126    0.739171
     69          6           0        4.743140    0.348325    3.554837
     70          7           0        4.510773   -0.522302    2.386068
 ---------------------------------------------------------------------

 SCF Done:  E(RwB97XD) =  -2048.74011209     A.U. after   15 cycles

 The electronic state is 1-A.
 Alpha  occ. eigenvalues --  -19.25835 -19.21855 -19.20781 -14.52529 -14.51685
 Alpha  occ. eigenvalues --  -14.49207 -14.48809 -14.47811 -14.47034 -14.46740
 Alpha  occ. eigenvalues --  -14.46123 -14.44582 -14.43190 -14.42976 -14.42322
 Alpha  occ. eigenvalues --  -14.42061 -14.41692 -14.41237 -14.40851 -14.40482
 Alpha  occ. eigenvalues --  -10.45475 -10.41301 -10.40013 -10.38506 -10.38358
 Alpha  occ. eigenvalues --  -10.37530 -10.37128 -10.36266 -10.35660 -10.35601
 Alpha  occ. eigenvalues --  -10.34831 -10.34413 -10.34389 -10.33719 -10.33490
 Alpha  occ. eigenvalues --  -10.33365 -10.33337 -10.31564 -10.31553 -10.30852
 Alpha  occ. eigenvalues --  -10.30686 -10.28822 -10.28156  -1.19435  -1.14350
 Alpha  occ. eigenvalues --   -1.13296  -1.13226  -1.11737  -1.10640  -1.09344
 Alpha  occ. eigenvalues --   -1.08660  -1.07950  -1.05287  -1.03488  -1.02565
 Alpha  occ. eigenvalues --   -1.00664  -1.00041  -0.99820  -0.98596  -0.97299
 Alpha  occ. eigenvalues --   -0.96603  -0.95586  -0.92917  -0.90838  -0.86743
 Alpha  occ. eigenvalues --   -0.85176  -0.84334  -0.84133  -0.83832  -0.82720
 Alpha  occ. eigenvalues --   -0.82505  -0.78794  -0.75971  -0.74675  -0.73787
 Alpha  occ. eigenvalues --   -0.73669  -0.73351  -0.73203  -0.71347  -0.69299
 Alpha  occ. eigenvalues --   -0.67440  -0.66593  -0.66496  -0.65658  -0.64467
 Alpha  occ. eigenvalues --   -0.63817  -0.63186  -0.62899  -0.62697  -0.61801
 Alpha  occ. eigenvalues --   -0.60746  -0.60497  -0.59472  -0.59381  -0.58490
 Alpha  occ. eigenvalues --   -0.58441  -0.58346  -0.57200  -0.56820  -0.56397
 Alpha  occ. eigenvalues --   -0.55972  -0.55598  -0.55098  -0.54545  -0.54333
 Alpha  occ. eigenvalues --   -0.53725  -0.53562  -0.52984  -0.52792  -0.52559
 Alpha  occ. eigenvalues --   -0.52249  -0.52141  -0.51886  -0.51206  -0.50546
 Alpha  occ. eigenvalues --   -0.50266  -0.49829  -0.49477  -0.49412  -0.48908
 Alpha  occ. eigenvalues --   -0.48822  -0.48416  -0.47726  -0.47567  -0.47497
 Alpha  occ. eigenvalues --   -0.47253  -0.45813  -0.45250  -0.43612  -0.42800
 Alpha  occ. eigenvalues --   -0.41443  -0.39779  -0.39436  -0.37467  -0.37436
 Alpha  occ. eigenvalues --   -0.37292  -0.37236  -0.36553  -0.35812  -0.34306
 Alpha  occ. eigenvalues --   -0.34003  -0.33713  -0.33645  -0.33373  -0.33187
 Alpha  occ. eigenvalues --   -0.32724  -0.32397  -0.31956  -0.31369  -0.31235
 Alpha  occ. eigenvalues --   -0.30666  -0.28128  -0.26021  -0.25513
 Alpha virt. eigenvalues --    0.03100   0.04864   0.07605   0.07811   0.08764
 Alpha virt. eigenvalues --    0.08947   0.09720   0.10685   0.10857   0.12060
 Alpha virt. eigenvalues --    0.13390   0.13537   0.14071   0.14485   0.14865

 Mulliken charges:
               1
     1  N   -0.309440
     2  C    0.179669
     3  C    0.048306
     4  N   -0.242683
     5  C    0.119221
     6  H    0.025944
     7  N   -0.289932
     8  C    0.136508
     9  H    0.013537
    10  N   -0.292308
    11  C    0.234415
    12  C    0.092173
    13  N   -0.040120
    14  H    0.112974
    15  H    0.092793
    16  H    0.028292
    17  H    0.035103
    18  H    0.020880
    19  N   -0.305435
    20  C    0.258245
    21  C    0.182940
    22  N   -0.122684
    23  H    0.116585
    24  H    0.118705
    25  N   -0.309826
    26  C    0.244927
    27  N   -0.148025
    28  H    0.121569
    29  C    0.187195
    30  O   -0.327336
    31  C   -0.023265
    32  N   -0.218796
    33  C    0.130164
    34  H    0.021705
    35  H    0.025293
    36  H    0.030146
    37  H    0.022316
    38  H    0.045690
    39  H    0.062533
    40  H    0.076295
    41  H    0.022351
    42  C   -0.072518
    43  O   -0.281968
    44  C    0.141567
    45  H    0.136339
    46  N   -0.115544
    47  O   -0.345929
    48  C    0.345519
    49  H    0.041904
    50  C    0.177309
    51  C    0.043725
    52  N   -0.280084
    53  H    0.033455
    54  H    0.041665
    55  H    0.016186
    56  H    0.125055
    57  H    0.114685
    58  N   -0.018820
    59  C    0.082197
    60  C    0.239483
    61  N   -0.273157
    62  H    0.030757
    63  C    0.157832
    64  N   -0.302598
    65  H    0.029966
    66  C    0.112234
    67  N   -0.247963
    68  C    0.014477
    69  C    0.182099
    70  N   -0.304495
 Sum of Mulliken charges =  -0.00000

 Dipole moment (field-independent basis, Debye):
    X=              5.3665    Y=              4.9840    Z=              5.2754  Tot=              9.0260
 Quadrupole moment (field-independent basis, Debye-Ang):
   XX=           -144.5248   YY=           -227.8511   ZZ=           -254.6872
   XY=              6.8155   XZ=             13.6246   YZ=              9.5427

 Normal termination of Gaussian 16 at Thu Jan 18 22:42:25 2018.
