 Gaussian 16, Revision A.03,
 Gaussian 16:  EM64L-G16RevA.03 25-Dec-2016

 ---------------------------------------
 #p wb97xd/cc-pvdz sp scf=(maxcycles=20)
 ---------------------------------------

 ------------------
 Base pair stacking
 ------------------
 Symbolic Z-matrix:
 Charge =  0 Multiplicity = 1

                         Standard orientation:
 ---------------------------------------------------------------------
 Center     Atomic      Atomic             Coordinates (Angstroms)
 Number     Number       Type             X           Y           Z
 ---------------------------------------------------------------------
      1          7           0        4.525000   -1.606026   -1.555885
      2          6           0        5.806859   -1.131694   -2.112515
      3          6           0        2.389873   -1.828622   -1.077325
      4          7           0        3.050351   -2.829540   -0.379721
      5          6           0        4.310254   -2.655370   -0.695963
      6          1           0        5.132585   -3.269198   -0.327287
      7          7           0        0.708146   -0.423664   -1.949589
      8          6           0        1.686538    0.218623   -2.595966
      9          1           0        1.364442    1.056569   -3.212698
     10          7           0        2.996898   -0.017659   -2.594892
     11          6           0        3.285687   -1.066433   -1.806789
     12          6           0        1.031199   -1.474629   -1.164603
     13          7           0        0.055961   -2.117048   -0.518562
     14          1           0        0.249045   -2.900389    0.073303
     15          1           0       -0.900392   -1.837369   -0.604095
     16          1           0        6.235161   -1.866009   -2.639307
     17          1           0        5.641939   -0.347043   -2.709385
     18          1           0        6.415776   -0.859425   -1.367473
     19          7           0        5.618966    1.131660    0.622330
     20          6           0        4.272824    1.406849    0.607280
     21          6           0        6.666653    1.959587   -0.008233
     22          7           0        1.630702    3.448601   -0.347777
     23          1           0        0.636619    3.465440   -0.244029
     24          1           0        2.046307    4.201146   -0.859309
     25          7           0        3.685763    2.471234    0.018658
     26          6           0        2.373891    2.461642    0.175186
     27          7           0        1.687506    1.485307    0.855739
     28          1           0        0.684191    1.559339    0.925310
     29          6           0        2.270954    0.381202    1.469249
     30          8           0        1.560600   -0.442691    2.058607
     31          6           0        3.679985    0.377736    1.309610
     32          7           0        4.634729   -0.525354    1.756599
     33          6           0        5.766995   -0.038359    1.326451
     34          1           0        6.743179   -0.494233    1.495347
     35          1           0        7.152870    1.419342   -0.694189
     36          1           0        6.243661    2.751050   -0.447470
     37          1           0        7.311626    2.271563    0.688545
     38          1           0       -4.332839    2.164176    0.362874
     39          1           0       -4.223335    2.841452    1.985823
     40          1           0       -2.871572    3.014458    0.865937
     41          1           0       -4.030137   -1.862010    2.979131
     42          6           0       -3.380711   -1.070486    2.605004
     43          8           0       -1.377635   -2.285593    2.976930
     44          6           0       -1.964211   -1.273559    2.594176
     45          1           0       -0.230559   -0.316418    2.077775
     46          7           0       -1.235002   -0.210287    2.101254
     47          8           0       -0.997985    1.868313    1.217834
     48          6           0       -1.724893    0.984253    1.635807
     49          1           0       -4.958224    0.287916    2.144554
     50          6           0       -3.888385    0.083907    2.157502
     51          6           0       -3.669585    2.363745    1.191326
     52          7           0       -3.100013    1.104372    1.678458
     53          1           0       -6.680589    2.146361   -3.167737
     54          1           0       -5.286126    2.697978   -2.524871
     55          1           0       -6.689104    2.883288   -1.711615
     56          1           0       -3.261783   -3.305132    0.528016
     57          1           0       -4.960231   -3.166953    0.448755
     58          7           0       -4.061957   -2.771786    0.253409
     59          6           0       -3.937769   -1.586187   -0.346676
     60          6           0       -4.742150    0.409591   -1.362349
     61          7           0       -3.523165    0.915649   -1.612140
     62          1           0       -1.552374    0.418143   -1.349316
     63          6           0       -2.575689    0.083238   -1.185196
     64          7           0       -2.698040   -1.104652   -0.583930
     65          1           0       -7.972607    0.289347   -1.319003
     66          6           0       -6.906167    0.089029   -1.211692
     67          7           0       -6.401973   -0.988978   -0.662711
     68          6           0       -5.030648   -0.798498   -0.751762
     69          6           0       -6.170494    2.280513   -2.318145
     70          7           0       -5.958648    0.978160   -1.657072
 ---------------------------------------------------------------------

 SCF Done:  E(RwB97XD) =  -2048.75158823     A.U. after   15 cycles

 The electronic state is 1-A.
 Alpha  occ. eigenvalues --  -19.25237 -19.21638 -19.20761 -14.52707 -14.51713
 Alpha  occ. eigenvalues --  -14.49461 -14.48692 -14.48162 -14.47221 -14.46957
 Alpha  occ. eigenvalues --  -14.46771 -14.45535 -14.44684 -14.44574 -14.42687
 Alpha  occ. eigenvalues --  -14.42138 -14.41593 -14.41265 -14.41024 -14.40753
 Alpha  occ. eigenvalues --  -10.44815 -10.41385 -10.40135 -10.39643 -10.38452
 Alpha  occ. eigenvalues --  -10.38131 -10.37495 -10.36907 -10.36173 -10.35783
 Alpha  occ. eigenvalues --  -10.34796 -10.34242 -10.34097 -10.33982 -10.33902
 Alpha  occ. eigenvalues --  -10.33508 -10.33430 -10.32954 -10.31653 -10.31160
 Alpha  occ. eigenvalues --  -10.30327 -10.28655 -10.28556  -1.18795  -1.15446
 Alpha  occ. eigenvalues --   -1.13438  -1.12590  -1.11295  -1.11072  -1.09594
 Alpha  occ. eigenvalues --   -1.08750  -1.08535  -1.05391  -1.05057  -1.01871
 Alpha  occ. eigenvalues --   -1.01134  -1.00746  -0.99870  -0.98822  -0.97205
 Alpha  occ. eigenvalues --   -0.97122  -0.96852  -0.93074  -0.90318  -0.87875
 Alpha  occ. eigenvalues --   -0.86100  -0.84659  -0.83999  -0.83119  -0.82806
 Alpha  occ. eigenvalues --   -0.82455  -0.78201  -0.77226  -0.75112  -0.75015
 Alpha  occ. eigenvalues --   -0.73815  -0.73059  -0.72719  -0.71270  -0.70589
 Alpha  occ. eigenvalues --   -0.67634  -0.66992  -0.66482  -0.65921  -0.64649
 Alpha  occ. eigenvalues --   -0.64390  -0.63447  -0.62930  -0.62789  -0.62011
 Alpha  occ. eigenvalues --   -0.60797  -0.60711  -0.60468  -0.59688  -0.58920
 Alpha  occ. eigenvalues --   -0.58882  -0.58490  -0.58061  -0.56755  -0.55806
 Alpha  occ. eigenvalues --   -0.55778  -0.55706  -0.55423  -0.54452  -0.54215
 Alpha  occ. eigenvalues --   -0.54075  -0.53813  -0.53428  -0.53181  -0.53019
 Alpha  occ. eigenvalues --   -0.52854  -0.51865  -0.51677  -0.50711  -0.50525
 Alpha  occ. eigenvalues --   -0.50472  -0.50154  -0.49551  -0.49263  -0.49069
 Alpha  occ. eigenvalues --   -0.48858  -0.48437  -0.48324  -0.47661  -0.47249
 Alpha  occ. eigenvalues --   -0.47130  -0.45882  -0.45401  -0.45089  -0.42669
 Alpha  occ. eigenvalues --   -0.41344  -0.40917  -0.39002  -0.38047  -0.37765
 Alpha  occ. eigenvalues --   -0.37676  -0.37430  -0.37172  -0.35666  -0.34906
 Alpha  occ. eigenvalues --   -0.34561  -0.34185  -0.33576  -0.33511  -0.33162
 Alpha  occ. eigenvalues --   -0.33000  -0.32694  -0.32056  -0.31077  -0.31036
 Alpha  occ. eigenvalues --   -0.30687  -0.30354  -0.26629  -0.25242
 Alpha virt. eigenvalues --    0.03033   0.04494   0.06710   0.07685   0.08575
 Alpha virt. eigenvalues --    0.09026   0.09605   0.10212   0.10728   0.12391
 Alpha virt. eigenvalues --    0.13160   0.13437   0.14089   0.14507   0.14824

 Mulliken charges:
               1
     1  N   -0.300795
     2  C    0.187025
     3  C    0.045421
     4  N   -0.244182
     5  C    0.149292
     6  H    0.025801
     7  N   -0.292175
     8  C    0.126024
     9  H    0.008180
    10  N   -0.279817
    11  C    0.236284
    12  C    0.080279
    13  N   -0.054384
    14  H    0.117638
    15  H    0.087874
    16  H    0.026346
    17  H    0.033909
    18  H    0.005816
    19  N   -0.305533
    20  C    0.253121
    21  C    0.183764
    22  N   -0.120983
    23  H    0.119116
    24  H    0.119461
    25  N   -0.304606
    26  C    0.242618
    27  N   -0.137826
    28  H    0.120480
    29  C    0.185905
    30  O   -0.318668
    31  C   -0.011526
    32  N   -0.213539
    33  C    0.101668
    34  H    0.023475
    35  H    0.013561
    36  H    0.034453
    37  H    0.027721
    38  H    0.050360
    39  H    0.052790
    40  H    0.074428
    41  H    0.015964
    42  C   -0.099155
    43  O   -0.276879
    44  C    0.173824
    45  H    0.130395
    46  N   -0.118852
    47  O   -0.349557
    48  C    0.332467
    49  H    0.046376
    50  C    0.156135
    51  C    0.050680
    52  N   -0.272015
    53  H    0.036822
    54  H    0.041778
    55  H    0.029652
    56  H    0.126229
    57  H    0.118062
    58  N   -0.055771
    59  C    0.092982
    60  C    0.218326
    61  N   -0.264293
    62  H    0.032939
    63  C    0.165937
    64  N   -0.306147
    65  H    0.039418
    66  C    0.138543
    67  N   -0.258212
    68  C    0.038265
    69  C    0.177811
    70  N   -0.310498
 Sum of Mulliken charges =  -0.00000

 Dipole moment (field-independent basis, Debye):
    X=             -5.5276    Y=              6.8798    Z=             -3.8963  Tot=              9.6471
 Quadrupole moment (field-independent basis, Debye-Ang):
   XX=           -147.1761   YY=           -224.6446   ZZ=           -260.5490
   XY=             -7.9287   XZ=             -8.2558   YZ=              3.5372

 Normal termination of Gaussian 16 at Fri Jan 19 10:14:22 2018.
