 Gaussian 16, Revision A.03,
 Gaussian 16:  EM64L-G16RevA.03 25-Dec-2016

 ---------------------------------------
 #p wb97xd/cc-pvdz sp scf=(maxcycles=20)
 ---------------------------------------

 ------------------
 Base pair stacking
 ------------------
 Symbolic Z-matrix:
 Charge =  0 Multiplicity = 1

                         Standard orientation:
 ---------------------------------------------------------------------
 Center     Atomic      Atomic             Coordinates (Angstroms)
 Number     Number       Type             X           Y           Z
 ---------------------------------------------------------------------
      1          7           0        5.148517   -1.118809   -1.413429
      2          6           0        6.448232   -0.464104   -1.658554
      3          6           0        2.994095   -1.522998   -1.233384
      4          7           0        3.640867   -2.691800   -0.858798
      5          6           0        4.912936   -2.401518   -0.982269
      6          1           0        5.729839   -3.091919   -0.770238
      7          7           0        1.326233    0.069909   -1.727180
      8          6           0        2.323403    0.908566   -2.026994
      9          1           0        2.014426    1.901658   -2.350377
     10          7           0        3.638758    0.705625   -1.987511
     11          6           0        3.910308   -0.544544   -1.577924
     12          6           0        1.632256   -1.180748   -1.318166
     13          7           0        0.638252   -2.019366   -1.018436
     14          1           0        0.818298   -2.954572   -0.711544
     15          1           0       -0.319769   -1.741577   -1.090376
     16          1           0        6.949685   -0.968408   -2.361694
     17          1           0        6.296564    0.474455   -1.967160
     18          1           0        6.982874   -0.453055   -0.813550
     19          7           0        5.033427    1.060148    1.026395
     20          6           0        3.681593    1.296077    0.956066
     21          6           0        6.085841    1.971722    0.534299
     22          7           0        1.028746    3.337321    0.030063
     23          1           0        0.030411    3.315672    0.075926
     24          1           0        1.446351    4.144660   -0.387706
     25          7           0        3.092330    2.391480    0.429838
     26          6           0        1.774824    2.329482    0.507059
     27          7           0        1.085213    1.276231    1.057156
     28          1           0        0.077626    1.314328    1.073524
     29          6           0        1.670842    0.138956    1.604428
     30          8           0        0.957203   -0.755040    2.075848
     31          6           0        3.085912    0.191074    1.528708
     32          7           0        4.044485   -0.720253    1.950060
     33          6           0        5.181743   -0.163631    1.632210
     34          1           0        6.161968   -0.604105    1.817712
     35          1           0        6.628194    1.509832   -0.166633
     36          1           0        5.661267    2.786778    0.142260
     37          1           0        6.679453    2.238494    1.292761
     38          1           0       -4.917624    1.820304    0.270881
     39          1           0       -4.923022    2.351762    1.950812
     40          1           0       -3.517104    2.664271    0.932428
     41          1           0       -4.624351   -2.414305    2.535518
     42          6           0       -3.982511   -1.573684    2.271642
     43          8           0       -1.962930   -2.758209    2.652864
     44          6           0       -2.561499   -1.733441    2.326745
     45          1           0       -0.835478   -0.683435    2.000118
     46          7           0       -1.842710   -0.609278    1.973415
     47          8           0       -1.627978    1.546401    1.292142
     48          6           0       -2.346419    0.607447    1.586884
     49          1           0       -5.577391   -0.226100    1.840195
     50          6           0       -4.503597   -0.399065    1.898370
     51          6           0       -4.309317    1.963871    1.151462
     52          7           0       -3.725084    0.682978    1.558555
     53          1           0       -6.049161    2.790806   -2.666602
     54          1           0       -4.736609    3.110982   -1.751845
     55          1           0       -6.206962    2.987051   -1.054157
     56          1           0       -2.695980   -3.542353   -0.739751
     57          1           0       -4.387140   -3.410767   -0.920730
     58          7           0       -3.494726   -2.959335   -0.888884
     59          6           0       -3.376180   -1.638481   -1.038755
     60          6           0       -4.185375    0.571758   -1.387767
     61          7           0       -2.974210    1.150767   -1.340436
     62          1           0       -1.010425    0.622899   -1.084439
     63          6           0       -2.027560    0.236896   -1.136445
     64          7           0       -2.144274   -1.086489   -0.986095
     65          1           0       -7.400332    0.395809   -1.679743
     66          6           0       -6.337980    0.186825   -1.550618
     67          7           0       -5.831516   -1.006108   -1.355447
     68          6           0       -4.467370   -0.776270   -1.250526
     69          6           0       -5.615093    2.634923   -1.779319
     70          7           0       -5.398660    1.188543   -1.581455
 ---------------------------------------------------------------------

 SCF Done:  E(RwB97XD) =  -2048.73088475     A.U. after   15 cycles

 The electronic state is 1-A.
 Alpha  occ. eigenvalues --  -19.25109 -19.21430 -19.20571 -14.52768 -14.51725
 Alpha  occ. eigenvalues --  -14.49160 -14.49021 -14.48206 -14.47161 -14.46562
 Alpha  occ. eigenvalues --  -14.46541 -14.45605 -14.44578 -14.44453 -14.42975
 Alpha  occ. eigenvalues --  -14.41710 -14.41551 -14.41323 -14.41170 -14.40974
 Alpha  occ. eigenvalues --  -10.44739 -10.40937 -10.40115 -10.39518 -10.38177
 Alpha  occ. eigenvalues --  -10.38171 -10.37368 -10.37082 -10.36100 -10.36044
 Alpha  occ. eigenvalues --  -10.34457 -10.34352 -10.34307 -10.33986 -10.33771
 Alpha  occ. eigenvalues --  -10.33680 -10.33619 -10.32809 -10.31853 -10.31117
 Alpha  occ. eigenvalues --  -10.30412 -10.28876 -10.28207  -1.18833  -1.15633
 Alpha  occ. eigenvalues --   -1.13159  -1.12435  -1.11720  -1.10706  -1.09523
 Alpha  occ. eigenvalues --   -1.08662  -1.08453  -1.05673  -1.05000  -1.01860
 Alpha  occ. eigenvalues --   -1.01330  -1.01027  -0.99603  -0.98453  -0.97472
 Alpha  occ. eigenvalues --   -0.97078  -0.96685  -0.93354  -0.90343  -0.87949
 Alpha  occ. eigenvalues --   -0.86351  -0.84728  -0.84054  -0.83217  -0.82954
 Alpha  occ. eigenvalues --   -0.82479  -0.78221  -0.77283  -0.75120  -0.74685
 Alpha  occ. eigenvalues --   -0.73605  -0.73361  -0.72732  -0.71583  -0.70647
 Alpha  occ. eigenvalues --   -0.67384  -0.67029  -0.66834  -0.65984  -0.64495
 Alpha  occ. eigenvalues --   -0.64337  -0.63598  -0.63289  -0.62539  -0.62105
 Alpha  occ. eigenvalues --   -0.61724  -0.61034  -0.60698  -0.59819  -0.58985
 Alpha  occ. eigenvalues --   -0.58771  -0.58544  -0.58246  -0.57156  -0.56212
 Alpha  occ. eigenvalues --   -0.55652  -0.55589  -0.55359  -0.54494  -0.54101
 Alpha  occ. eigenvalues --   -0.54008  -0.53806  -0.53343  -0.53153  -0.52927
 Alpha  occ. eigenvalues --   -0.52895  -0.52288  -0.51621  -0.51060  -0.50550
 Alpha  occ. eigenvalues --   -0.50326  -0.50023  -0.49439  -0.49110  -0.48842
 Alpha  occ. eigenvalues --   -0.48522  -0.48272  -0.48159  -0.48071  -0.47476
 Alpha  occ. eigenvalues --   -0.47078  -0.46084  -0.44992  -0.44948  -0.42901
 Alpha  occ. eigenvalues --   -0.41413  -0.40933  -0.38846  -0.37845  -0.37704
 Alpha  occ. eigenvalues --   -0.37669  -0.37114  -0.36774  -0.35982  -0.34817
 Alpha  occ. eigenvalues --   -0.34668  -0.34313  -0.34045  -0.33657  -0.32884
 Alpha  occ. eigenvalues --   -0.32507  -0.32375  -0.31839  -0.31284  -0.31177
 Alpha  occ. eigenvalues --   -0.30736  -0.30088  -0.26985  -0.24670
 Alpha virt. eigenvalues --    0.03205   0.04237   0.06668   0.06975   0.08254
 Alpha virt. eigenvalues --    0.09205   0.09992   0.10153   0.11248   0.12729
 Alpha virt. eigenvalues --    0.12931   0.13338   0.14118   0.14557   0.14769

 Mulliken charges:
               1
     1  N   -0.297176
     2  C    0.179091
     3  C    0.076306
     4  N   -0.247566
     5  C    0.135046
     6  H    0.024837
     7  N   -0.282165
     8  C    0.134266
     9  H    0.004633
    10  N   -0.268346
    11  C    0.214765
    12  C    0.066701
    13  N   -0.044895
    14  H    0.112398
    15  H    0.084875
    16  H    0.027828
    17  H    0.041619
    18  H    0.015098
    19  N   -0.291717
    20  C    0.235052
    21  C    0.194588
    22  N   -0.110755
    23  H    0.119526
    24  H    0.118194
    25  N   -0.277438
    26  C    0.194189
    27  N   -0.115927
    28  H    0.117787
    29  C    0.168011
    30  O   -0.321029
    31  C    0.002571
    32  N   -0.212414
    33  C    0.105824
    34  H    0.021379
    35  H   -0.012610
    36  H    0.035307
    37  H    0.024095
    38  H    0.029215
    39  H    0.050943
    40  H    0.079312
    41  H    0.022946
    42  C   -0.102338
    43  O   -0.270423
    44  C    0.168152
    45  H    0.128292
    46  N   -0.107211
    47  O   -0.344185
    48  C    0.323804
    49  H    0.044850
    50  C    0.166851
    51  C    0.055450
    52  N   -0.273081
    53  H    0.035830
    54  H    0.043208
    55  H    0.031049
    56  H    0.124851
    57  H    0.119441
    58  N   -0.056493
    59  C    0.100315
    60  C    0.188932
    61  N   -0.259374
    62  H    0.013857
    63  C    0.171863
    64  N   -0.300598
    65  H    0.036524
    66  C    0.127040
    67  N   -0.251211
    68  C    0.055805
    69  C    0.179028
    70  N   -0.304590
 Sum of Mulliken charges =  -0.00000

 Dipole moment (field-independent basis, Debye):
    X=             -5.3098    Y=              6.7055    Z=             -4.1163  Tot=              9.4922
 Quadrupole moment (field-independent basis, Debye-Ang):
   XX=           -147.8143   YY=           -226.9424   ZZ=           -261.8270
   XY=             -9.1722   XZ=             -2.9818   YZ=             10.3715

 Normal termination of Gaussian 16 at Thu Jan 18 18:49:00 2018.
