 Gaussian 16, Revision A.03,
 Gaussian 16:  EM64L-G16RevA.03 25-Dec-2016

 ---------------------------------------
 #p wb97xd/cc-pvdz sp scf=(maxcycles=20)
 ---------------------------------------

 ------------------
 Base pair stacking
 ------------------
 Symbolic Z-matrix:
 Charge =  0 Multiplicity = 1

                         Standard orientation:
 ---------------------------------------------------------------------
 Center     Atomic      Atomic             Coordinates (Angstroms)
 Number     Number       Type             X           Y           Z
 ---------------------------------------------------------------------
      1          7           0       -7.140259   -0.809808    0.135083
      2          6           0       -8.426970   -0.206980    0.533824
      3          6           0       -5.007342   -1.331640    0.009950
      4          7           0       -5.647798   -2.079352   -0.967532
      5          6           0       -6.907176   -1.735034   -0.853030
      6          1           0       -7.716009   -2.128558   -1.469350
      7          7           0       -3.355924   -0.399690    1.412523
      8          6           0       -4.343069    0.298592    1.983091
      9          1           0       -4.037062    0.960511    2.792081
     10          7           0       -5.645339    0.301947    1.705657
     11          6           0       -5.914328   -0.544338    0.697747
     12          6           0       -3.659034   -1.242492    0.401152
     13          7           0       -2.675015   -1.940395   -0.169660
     14          1           0       -2.853379   -2.576019   -0.921575
     15          1           0       -1.726509   -1.851730    0.134667
     16          1           0       -9.055760   -0.925906    0.830376
     17          1           0       -8.276701    0.434139    1.285829
     18          1           0       -8.824007    0.280882   -0.243570
     19          7           0       -2.847986    2.117637   -1.256696
     20          6           0       -1.504657    2.151442   -0.969688
     21          6           0       -3.837285    3.128574   -0.832419
     22          7           0        1.212938    3.712431    0.526880
     23          1           0        2.194886    3.551874    0.622999
     24          1           0        0.843373    4.535596    0.958778
     25          7           0       -0.867886    3.106165   -0.257598
     26          6           0        0.426266    2.862626   -0.150534
     27          7           0        1.050992    1.768408   -0.698188
     28          1           0        2.045152    1.663142   -0.565737
     29          6           0        0.415651    0.773510   -1.434644
     30          8           0        1.072262   -0.173247   -1.885488
     31          6           0       -0.975094    1.021380   -1.558195
     32          7           0       -1.966019    0.292796   -2.201724
     33          6           0       -3.057173    0.979480   -1.996612
     34          1           0       -4.045143    0.699838   -2.364041
     35          1           0       -4.537538    2.695025   -0.266304
     36          1           0       -3.377153    3.840899   -0.304085
     37          1           0       -4.265685    3.536687   -1.637848
     38          1           0        6.876933    1.384177    0.992694
     39          1           0        7.213136    2.040626   -0.607514
     40          1           0        5.717996    2.469481    0.224358
     41          1           0        6.394739   -2.572331   -1.701760
     42          6           0        5.833909   -1.672076   -1.450278
     43          8           0        3.762375   -2.521573   -2.233985
     44          6           0        4.430320   -1.622032   -1.724626
     45          1           0        2.825161   -0.365065   -1.546225
     46          7           0        3.816909   -0.438113   -1.367822
     47          8           0        3.779491    1.665389   -0.512777
     48          6           0        4.407398    0.659604   -0.793458
     49          1           0        7.502855   -0.604918   -0.661856
     50          6           0        6.438033   -0.617335   -0.890657
     51          6           0        6.437233    1.682502    0.052627
     52          7           0        5.762785    0.534638   -0.559963
     53          1           0        3.916771    0.597082    4.378442
     54          1           0        2.778678    1.480263    3.612391
     55          1           0        4.330542    1.536643    3.109800
     56          1           0        0.579984   -3.523014   -0.813493
     57          1           0        2.227681   -3.702763   -0.409907
     58          7           0        1.375086   -3.189245   -0.306970
     59          6           0        1.302702   -2.107566    0.471417
     60          6           0        2.160697   -0.467645    1.966836
     61          7           0        1.002474    0.202225    2.086112
     62          1           0       -0.922990    0.109468    1.389986
     63          6           0        0.052925   -0.372498    1.350619
     64          7           0        0.123448   -1.455915    0.570334
     65          1           0        5.279211   -1.151841    2.475653
     66          6           0        4.240074   -1.140463    2.145510
     67          7           0        3.709228   -2.013806    1.325042
     68          6           0        2.391033   -1.598768    1.203260
     69          6           0        3.616934    0.949298    3.491855
     70          7           0        3.359728   -0.176721    2.573198
 ---------------------------------------------------------------------

 SCF Done:  E(RwB97XD) =  -2048.75144321     A.U. after   15 cycles

 The electronic state is 1-A.
 Alpha  occ. eigenvalues --  -19.26071 -19.22105 -19.20777 -14.52595 -14.50884
 Alpha  occ. eigenvalues --  -14.49774 -14.48643 -14.47839 -14.47002 -14.46836
 Alpha  occ. eigenvalues --  -14.45400 -14.43754 -14.42659 -14.42489 -14.42350
 Alpha  occ. eigenvalues --  -14.42174 -14.42104 -14.41817 -14.40955 -14.40829
 Alpha  occ. eigenvalues --  -10.45627 -10.41315 -10.40189 -10.38386 -10.37688
 Alpha  occ. eigenvalues --  -10.37653 -10.36398 -10.36189 -10.35823 -10.35372
 Alpha  occ. eigenvalues --  -10.35110 -10.34383 -10.34373 -10.33963 -10.33913
 Alpha  occ. eigenvalues --  -10.33195 -10.32909 -10.31786 -10.31012 -10.30690
 Alpha  occ. eigenvalues --  -10.30505 -10.29546 -10.28177  -1.19612  -1.13534
 Alpha  occ. eigenvalues --   -1.13315  -1.13081  -1.12378  -1.10596  -1.09472
 Alpha  occ. eigenvalues --   -1.08701  -1.07045  -1.05831  -1.02608  -1.02504
 Alpha  occ. eigenvalues --   -1.01214  -0.99883  -0.99215  -0.98599  -0.97884
 Alpha  occ. eigenvalues --   -0.96507  -0.94711  -0.93417  -0.91018  -0.85948
 Alpha  occ. eigenvalues --   -0.84883  -0.84442  -0.84078  -0.83963  -0.83212
 Alpha  occ. eigenvalues --   -0.82328  -0.78912  -0.75148  -0.74615  -0.73757
 Alpha  occ. eigenvalues --   -0.73731  -0.73402  -0.72868  -0.71935  -0.68476
 Alpha  occ. eigenvalues --   -0.67452  -0.67128  -0.66613  -0.64775  -0.64496
 Alpha  occ. eigenvalues --   -0.63777  -0.63524  -0.62722  -0.62304  -0.61802
 Alpha  occ. eigenvalues --   -0.60918  -0.60145  -0.59575  -0.58699  -0.58498
 Alpha  occ. eigenvalues --   -0.58213  -0.57865  -0.57346  -0.57103  -0.56472
 Alpha  occ. eigenvalues --   -0.56114  -0.55992  -0.54474  -0.54359  -0.53798
 Alpha  occ. eigenvalues --   -0.53658  -0.53573  -0.52931  -0.52755  -0.52674
 Alpha  occ. eigenvalues --   -0.52160  -0.51909  -0.51674  -0.51134  -0.50960
 Alpha  occ. eigenvalues --   -0.50192  -0.49845  -0.49533  -0.48865  -0.48459
 Alpha  occ. eigenvalues --   -0.48313  -0.48220  -0.47877  -0.47786  -0.47702
 Alpha  occ. eigenvalues --   -0.47400  -0.45889  -0.44935  -0.44082  -0.42893
 Alpha  occ. eigenvalues --   -0.42042  -0.39636  -0.38972  -0.38074  -0.37363
 Alpha  occ. eigenvalues --   -0.37253  -0.36563  -0.35724  -0.35174  -0.34515
 Alpha  occ. eigenvalues --   -0.34482  -0.34370  -0.33341  -0.32871  -0.32745
 Alpha  occ. eigenvalues --   -0.32552  -0.32235  -0.31992  -0.31856  -0.31819
 Alpha  occ. eigenvalues --   -0.31122  -0.27848  -0.26525  -0.25522
 Alpha virt. eigenvalues --    0.03141   0.05665   0.07001   0.08204   0.08975
 Alpha virt. eigenvalues --    0.09144   0.09690   0.10214   0.10669   0.12505
 Alpha virt. eigenvalues --    0.13062   0.13200   0.14531   0.14805   0.15716

 Mulliken charges:
               1
     1  N   -0.309850
     2  C    0.180569
     3  C    0.028903
     4  N   -0.256250
     5  C    0.130085
     6  H    0.029308
     7  N   -0.279793
     8  C    0.130094
     9  H    0.018073
    10  N   -0.290724
    11  C    0.235460
    12  C    0.091113
    13  N   -0.032661
    14  H    0.107714
    15  H    0.091096
    16  H    0.028322
    17  H    0.036310
    18  H    0.025263
    19  N   -0.303803
    20  C    0.250168
    21  C    0.181066
    22  N   -0.121970
    23  H    0.111839
    24  H    0.118438
    25  N   -0.306093
    26  C    0.244695
    27  N   -0.129768
    28  H    0.118360
    29  C    0.163157
    30  O   -0.325584
    31  C   -0.006325
    32  N   -0.228223
    33  C    0.123663
    34  H    0.031212
    35  H    0.031287
    36  H    0.027520
    37  H    0.022090
    38  H    0.052418
    39  H    0.063979
    40  H    0.075133
    41  H    0.030135
    42  C   -0.084865
    43  O   -0.279227
    44  C    0.189743
    45  H    0.134608
    46  N   -0.127877
    47  O   -0.352016
    48  C    0.346635
    49  H    0.044913
    50  C    0.161283
    51  C    0.038748
    52  N   -0.290590
    53  H    0.030494
    54  H    0.038967
    55  H    0.016628
    56  H    0.115548
    57  H    0.120437
    58  N   -0.041862
    59  C    0.125153
    60  C    0.240411
    61  N   -0.273730
    62  H    0.036457
    63  C    0.154659
    64  N   -0.304814
    65  H    0.022569
    66  C    0.116820
    67  N   -0.250186
    68  C    0.008823
    69  C    0.180813
    70  N   -0.304968
 Sum of Mulliken charges =  -0.00000

 Dipole moment (field-independent basis, Debye):
    X=              5.1959    Y=              5.6385    Z=              4.0663  Tot=              8.6790
 Quadrupole moment (field-independent basis, Debye-Ang):
   XX=           -138.6618   YY=           -227.3640   ZZ=           -252.8822
   XY=             11.2663   XZ=             24.6912   YZ=              2.1124

 Normal termination of Gaussian 16 at Fri Jan 19 01:59:08 2018.
