 Gaussian 16, Revision A.03,
 Gaussian 16:  EM64L-G16RevA.03 25-Dec-2016

 ---------------------------------------
 #p wb97xd/cc-pvdz sp scf=(maxcycles=20)
 ---------------------------------------

 ------------------
 Base pair stacking
 ------------------
 Symbolic Z-matrix:
 Charge =  0 Multiplicity = 1

                         Standard orientation:
 ---------------------------------------------------------------------
 Center     Atomic      Atomic             Coordinates (Angstroms)
 Number     Number       Type             X           Y           Z
 ---------------------------------------------------------------------
      1          7           0        5.137078   -1.912007   -0.751839
      2          6           0        6.427775   -1.628895   -1.409067
      3          6           0        2.990525   -2.027520   -0.286794
      4          7           0        3.648362   -2.662993    0.756356
      5          6           0        4.915255   -2.567970    0.434425
      6          1           0        5.737950   -2.962405    1.031533
      7          7           0        1.308922   -1.126987   -1.673953
      8          6           0        2.295672   -0.735073   -2.486543
      9          1           0        1.976891   -0.205673   -3.383416
     10          7           0        3.610903   -0.898142   -2.358189
     11          6           0        3.895003   -1.559435   -1.223994
     12          6           0        1.627444   -1.790044   -0.540821
     13          7           0        0.643848   -2.182078    0.271598
     14          1           0        0.833328   -2.675763    1.121068
     15          1           0       -0.315433   -1.995796    0.058957
     16          1           0        6.898615   -2.488871   -1.606397
     17          1           0        6.266609   -1.134722   -2.262850
     18          1           0        6.996412   -1.070558   -0.804989
     19          7           0        5.036312    1.623777    0.419166
     20          6           0        3.684950    1.822467    0.269478
     21          6           0        6.089186    2.273914   -0.386724
     22          7           0        1.034225    3.372114   -1.353484
     23          1           0        0.036087    3.374896   -1.299048
     24          1           0        1.452353    3.957545   -2.048575
     25          7           0        3.096647    2.638424   -0.631713
     26          6           0        1.779381    2.617549   -0.531719
     27          7           0        1.089122    1.856507    0.380342
     28          1           0        0.081775    1.903373    0.384795
     29          6           0        1.673755    1.009837    1.316945
     30          8           0        0.959595    0.366274    2.095750
     31          6           0        3.088559    1.021636    1.221735
     32          7           0        4.046228    0.334021    1.954503
     33          6           0        5.183671    0.721735    1.444476
     34          1           0        6.163347    0.379704    1.779893
     35          1           0        6.626021    1.577176   -0.861258
     36          1           0        5.665327    2.880787   -1.057778
     37          1           0        6.687932    2.805995    0.210939
     38          1           0       -4.916031    2.092743   -0.531089
     39          1           0       -4.910241    3.223401    0.820298
     40          1           0       -3.508901    3.117392   -0.245704
     41          1           0       -4.625133   -0.963346    3.173279
     42          6           0       -3.981813   -0.289791    2.606984
     43          8           0       -1.964340   -1.251024    3.402568
     44          6           0       -2.561087   -0.424187    2.713349
     45          1           0       -0.833218    0.413301    2.005250
     46          7           0       -1.840314    0.477136    1.956150
     47          8           0       -1.621759    2.210322    0.505125
     48          6           0       -2.341864    1.457978    1.137660
     49          1           0       -5.574306    0.800861    1.701296
     50          6           0       -4.500817    0.657267    1.816836
     51          6           0       -4.302348    2.557262    0.226331
     52          7           0       -3.720387    1.524459    1.087953
     53          1           0       -6.090076    0.480994   -3.987280
     54          1           0       -4.740377    1.292386   -3.560605
     55          1           0       -6.181487    1.711268   -2.918876
     56          1           0       -2.681007   -3.026716    1.593024
     57          1           0       -4.377722   -3.000235    1.418167
     58          7           0       -3.483337   -2.670375    1.114028
     59          6           0       -3.366874   -1.794223    0.114046
     60          6           0       -4.182709   -0.364110   -1.603786
     61          7           0       -2.968812    0.061334   -1.990922
     62          1           0       -0.997893   -0.217008   -1.502440
     63          6           0       -2.017502   -0.508127   -1.253613
     64          7           0       -2.132122   -1.385878   -0.251619
     65          1           0       -7.407416   -0.595040   -1.611920
     66          6           0       -6.341348   -0.695063   -1.405931
     67          7           0       -5.831078   -1.464450   -0.475695
     68          6           0       -4.463084   -1.264033   -0.590339
     69          6           0       -5.620727    0.946769   -3.237107
     70          7           0       -5.400938   -0.000279   -2.126792
 ---------------------------------------------------------------------

 SCF Done:  E(RwB97XD) =  -2048.74745760     A.U. after   15 cycles

 The electronic state is 1-A.
 Alpha  occ. eigenvalues --  -19.25477 -19.21908 -19.20727 -14.52418 -14.52001
 Alpha  occ. eigenvalues --  -14.49102 -14.48842 -14.47546 -14.47462 -14.46933
 Alpha  occ. eigenvalues --  -14.46729 -14.45281 -14.44252 -14.44179 -14.42402
 Alpha  occ. eigenvalues --  -14.42078 -14.41173 -14.41156 -14.41155 -14.40592
 Alpha  occ. eigenvalues --  -10.45046 -10.41302 -10.39948 -10.39610 -10.38360
 Alpha  occ. eigenvalues --  -10.37866 -10.37094 -10.37054 -10.35695 -10.35632
 Alpha  occ. eigenvalues --  -10.34936 -10.34552 -10.33962 -10.33955 -10.33680
 Alpha  occ. eigenvalues --  -10.33492 -10.33338 -10.32484 -10.31429 -10.31320
 Alpha  occ. eigenvalues --  -10.30601 -10.28603 -10.28319  -1.19056  -1.15130
 Alpha  occ. eigenvalues --   -1.13321  -1.12933  -1.11377  -1.10827  -1.09139
 Alpha  occ. eigenvalues --   -1.08892  -1.08649  -1.05266  -1.04574  -1.02193
 Alpha  occ. eigenvalues --   -1.00836  -1.00594  -0.99816  -0.98665  -0.97051
 Alpha  occ. eigenvalues --   -0.96824  -0.96650  -0.92932  -0.90595  -0.87514
 Alpha  occ. eigenvalues --   -0.85839  -0.84399  -0.84070  -0.83331  -0.82835
 Alpha  occ. eigenvalues --   -0.82505  -0.78456  -0.76851  -0.74830  -0.74699
 Alpha  occ. eigenvalues --   -0.73724  -0.73046  -0.73007  -0.71211  -0.70182
 Alpha  occ. eigenvalues --   -0.67523  -0.66619  -0.66454  -0.66136  -0.64479
 Alpha  occ. eigenvalues --   -0.63985  -0.63710  -0.62867  -0.62713  -0.61904
 Alpha  occ. eigenvalues --   -0.60893  -0.60535  -0.60241  -0.59373  -0.59078
 Alpha  occ. eigenvalues --   -0.58742  -0.58463  -0.57612  -0.56736  -0.56091
 Alpha  occ. eigenvalues --   -0.55809  -0.55639  -0.55155  -0.54488  -0.54194
 Alpha  occ. eigenvalues --   -0.53855  -0.53674  -0.53512  -0.53131  -0.53040
 Alpha  occ. eigenvalues --   -0.52673  -0.52095  -0.51983  -0.50906  -0.50471
 Alpha  occ. eigenvalues --   -0.50353  -0.49914  -0.49473  -0.49100  -0.49035
 Alpha  occ. eigenvalues --   -0.48946  -0.48497  -0.48004  -0.47833  -0.47368
 Alpha  occ. eigenvalues --   -0.47125  -0.46140  -0.44879  -0.44837  -0.43066
 Alpha  occ. eigenvalues --   -0.41209  -0.40581  -0.39144  -0.37908  -0.37390
 Alpha  occ. eigenvalues --   -0.37352  -0.37299  -0.37144  -0.36010  -0.34502
 Alpha  occ. eigenvalues --   -0.34368  -0.33916  -0.33616  -0.33489  -0.33197
 Alpha  occ. eigenvalues --   -0.32814  -0.32374  -0.31890  -0.31508  -0.31025
 Alpha  occ. eigenvalues --   -0.30600  -0.29784  -0.26560  -0.24965
 Alpha virt. eigenvalues --    0.03464   0.04243   0.07021   0.07516   0.08687
 Alpha virt. eigenvalues --    0.09064   0.09711   0.10548   0.10996   0.11988
 Alpha virt. eigenvalues --    0.13010   0.13364   0.14250   0.14367   0.14931

 Mulliken charges:
               1
     1  N   -0.303444
     2  C    0.179858
     3  C    0.053542
     4  N   -0.239658
     5  C    0.134589
     6  H    0.023730
     7  N   -0.292496
     8  C    0.132953
     9  H    0.010304
    10  N   -0.285435
    11  C    0.233860
    12  C    0.080984
    13  N   -0.043244
    14  H    0.115813
    15  H    0.085337
    16  H    0.027534
    17  H    0.034760
    18  H    0.015413
    19  N   -0.305500
    20  C    0.258512
    21  C    0.183756
    22  N   -0.124867
    23  H    0.118334
    24  H    0.119006
    25  N   -0.309168
    26  C    0.247871
    27  N   -0.143292
    28  H    0.120306
    29  C    0.185592
    30  O   -0.323221
    31  C   -0.016102
    32  N   -0.212474
    33  C    0.113229
    34  H    0.019536
    35  H    0.016403
    36  H    0.033124
    37  H    0.025362
    38  H    0.043931
    39  H    0.058009
    40  H    0.076679
    41  H    0.017970
    42  C   -0.102969
    43  O   -0.277972
    44  C    0.164669
    45  H    0.127909
    46  N   -0.104570
    47  O   -0.350090
    48  C    0.334786
    49  H    0.044877
    50  C    0.172796
    51  C    0.047286
    52  N   -0.277077
    53  H    0.035860
    54  H    0.042020
    55  H    0.026282
    56  H    0.127380
    57  H    0.116004
    58  N   -0.041602
    59  C    0.073101
    60  C    0.221882
    61  N   -0.264277
    62  H    0.028822
    63  C    0.159834
    64  N   -0.297696
    65  H    0.036308
    66  C    0.127196
    67  N   -0.254124
    68  C    0.044670
    69  C    0.177371
    70  N   -0.306074
 Sum of Mulliken charges =  -0.00000

 Dipole moment (field-independent basis, Debye):
    X=             -5.3169    Y=              5.1736    Z=             -5.7071  Tot=              9.3598
 Quadrupole moment (field-independent basis, Debye-Ang):
   XX=           -147.0055   YY=           -226.8817   ZZ=           -257.5693
   XY=             -9.4060   XZ=              2.7127   YZ=             -9.1123

 Normal termination of Gaussian 16 at Thu Jan 18 19:13:00 2018.
