 Gaussian 16, Revision A.03,
 Gaussian 16:  EM64L-G16RevA.03 25-Dec-2016

 ---------------------------------------
 #p wb97xd/cc-pvdz sp scf=(maxcycles=20)
 ---------------------------------------

 ------------------
 Base pair stacking
 ------------------
 Symbolic Z-matrix:
 Charge =  0 Multiplicity = 1

                         Standard orientation:
 ---------------------------------------------------------------------
 Center     Atomic      Atomic             Coordinates (Angstroms)
 Number     Number       Type             X           Y           Z
 ---------------------------------------------------------------------
      1          7           0       -5.135935   -2.050811    0.522861
      2          6           0       -6.422764   -1.896727    1.228789
      3          6           0       -2.992691   -2.067277    0.029373
      4          7           0       -3.655402   -2.514953   -1.104252
      5          6           0       -4.920103   -2.487112   -0.761573
      6          1           0       -5.745392   -2.776857   -1.412646
      7          7           0       -1.304974   -1.411404    1.540796
      8          6           0       -2.287216   -1.175195    2.416567
      9          1           0       -1.964126   -0.808812    3.390032
     10          7           0       -3.602479   -1.322914    2.271058
     11          6           0       -3.892078   -1.777307    1.040581
     12          6           0       -1.628968   -1.867983    0.311305
     13          7           0       -0.649873   -2.104363   -0.564285
     14          1           0       -0.843494   -2.442941   -1.485752
     15          1           0        0.310019   -1.951175   -0.329170
     16          1           0       -6.886788   -2.781404    1.275704
     17          1           0       -6.257420   -1.558632    2.154784
     18          1           0       -6.999745   -1.245375    0.736019
     19          7           0       -5.034642    1.714430   -0.222424
     20          6           0       -3.683296    1.900436   -0.057184
     21          6           0       -6.087120    2.288356    0.639908
     22          7           0       -1.032008    3.301129    1.695092
     23          1           0       -0.033950    3.309953    1.639894
     24          1           0       -1.449807    3.821289    2.440473
     25          7           0       -3.094626    2.632848    0.912916
     26          6           0       -1.777480    2.622558    0.809824
     27          7           0       -1.087654    1.947293   -0.167765
     28          1           0       -0.080359    1.995529   -0.169246
     29          6           0       -1.672662    1.187481   -1.175886
     30          8           0       -0.958873    0.617277   -2.010232
     31          6           0       -3.087349    1.189043   -1.078246
     32          7           0       -4.045287    0.568899   -1.868617
     33          6           0       -5.182441    0.907937   -1.324415
     34          1           0       -6.162219    0.596283   -1.687983
     35          1           0       -6.622589    1.551196    1.050602
     36          1           0       -5.662986    2.833001    1.362222
     37          1           0       -6.687211    2.871257    0.093177
     38          1           0        4.918461    2.107661    0.753739
     39          1           0        4.909696    3.355095   -0.490646
     40          1           0        3.509886    3.152170    0.563273
     41          1           0        4.625782   -0.603759   -3.209742
     42          6           0        3.982515    0.015484   -2.584449
     43          8           0        1.964979   -0.872754   -3.460642
     44          6           0        2.561790   -0.110464   -2.700692
     45          1           0        0.834002    0.658053   -1.918100
     46          7           0        1.841099    0.718391   -1.864721
     47          8           0        1.622696    2.314015   -0.263636
     48          6           0        2.342729    1.622347   -0.962077
     49          1           0        5.575084    1.022220   -1.586457
     50          6           0        4.501588    0.888350   -1.713094
     51          6           0        4.303285    2.637608    0.041857
     52          7           0        3.721240    1.685686   -0.908304
     53          1           0        6.103355   -0.179332    4.046986
     54          1           0        4.745320    0.684335    3.778814
     55          1           0        6.178491    1.219756    3.210122
     56          1           0        2.668822   -2.679935   -2.037130
     57          1           0        4.366744   -2.672034   -1.872524
     58          7           0        3.472974   -2.407154   -1.508869
     59          6           0        3.359637   -1.720656   -0.369987
     60          6           0        4.181228   -0.607718    1.566011
     61          7           0        2.968095   -0.265616    2.030428
     62          1           0        0.994860   -0.468529    1.514880
     63          6           0        2.014080   -0.704045    1.211567
     64          7           0        2.125564   -1.391775    0.070437
     65          1           0        7.407217   -0.812787    1.510395
     66          6           0        6.340082   -0.883013    1.297731
     67          7           0        5.826663   -1.481216    0.250718
     68          6           0        4.458499   -1.314049    0.408541
     69          6           0        5.624992    0.407224    3.393446
     70          7           0        5.401588   -0.332212    2.135926
 ---------------------------------------------------------------------

 SCF Done:  E(RwB97XD) =  -2048.74140606     A.U. after   15 cycles

 The electronic state is 1-A.
 Alpha  occ. eigenvalues --  -19.25544 -19.22058 -19.20796 -14.52332 -14.52037
 Alpha  occ. eigenvalues --  -14.49131 -14.48748 -14.47590 -14.47292 -14.47019
 Alpha  occ. eigenvalues --  -14.46802 -14.45218 -14.44177 -14.44096 -14.42250
 Alpha  occ. eigenvalues --  -14.42153 -14.41187 -14.41054 -14.41042 -14.40473
 Alpha  occ. eigenvalues --  -10.45108 -10.41380 -10.40111 -10.39471 -10.38425
 Alpha  occ. eigenvalues --  -10.37804 -10.37040 -10.36979 -10.35602 -10.35512
 Alpha  occ. eigenvalues --  -10.35013 -10.34601 -10.33855 -10.33854 -10.33696
 Alpha  occ. eigenvalues --  -10.33395 -10.33235 -10.32416 -10.31343 -10.31322
 Alpha  occ. eigenvalues --  -10.30680 -10.28502 -10.28366  -1.19123  -1.15046
 Alpha  occ. eigenvalues --   -1.13387  -1.13156  -1.11278  -1.10870  -1.09087
 Alpha  occ. eigenvalues --   -1.08916  -1.08717  -1.05153  -1.04498  -1.02319
 Alpha  occ. eigenvalues --   -1.00753  -1.00475  -0.99890  -0.98729  -0.96974
 Alpha  occ. eigenvalues --   -0.96833  -0.96567  -0.92814  -0.90661  -0.87431
 Alpha  occ. eigenvalues --   -0.85747  -0.84425  -0.83980  -0.83397  -0.82852
 Alpha  occ. eigenvalues --   -0.82416  -0.78526  -0.76772  -0.74881  -0.74635
 Alpha  occ. eigenvalues --   -0.73793  -0.73105  -0.72935  -0.71105  -0.70093
 Alpha  occ. eigenvalues --   -0.67586  -0.66611  -0.66344  -0.66151  -0.64539
 Alpha  occ. eigenvalues --   -0.63892  -0.63800  -0.62771  -0.62751  -0.61965
 Alpha  occ. eigenvalues --   -0.60734  -0.60427  -0.60155  -0.59296  -0.59115
 Alpha  occ. eigenvalues --   -0.58795  -0.58527  -0.57451  -0.56628  -0.56175
 Alpha  occ. eigenvalues --   -0.55883  -0.55512  -0.55080  -0.54635  -0.54259
 Alpha  occ. eigenvalues --   -0.53841  -0.53763  -0.53442  -0.53173  -0.53020
 Alpha  occ. eigenvalues --   -0.52589  -0.52169  -0.51875  -0.50870  -0.50423
 Alpha  occ. eigenvalues --   -0.50368  -0.49843  -0.49657  -0.49235  -0.49034
 Alpha  occ. eigenvalues --   -0.48910  -0.48599  -0.48006  -0.47667  -0.47451
 Alpha  occ. eigenvalues --   -0.47025  -0.46154  -0.44818  -0.44768  -0.42994
 Alpha  occ. eigenvalues --   -0.41116  -0.40509  -0.39221  -0.37969  -0.37434
 Alpha  occ. eigenvalues --   -0.37379  -0.37232  -0.37064  -0.35997  -0.34531
 Alpha  occ. eigenvalues --   -0.34275  -0.33850  -0.33564  -0.33428  -0.33344
 Alpha  occ. eigenvalues --   -0.32889  -0.32380  -0.31873  -0.31528  -0.30953
 Alpha  occ. eigenvalues --   -0.30492  -0.29641  -0.26503  -0.24964
 Alpha virt. eigenvalues --    0.03523   0.04243   0.07080   0.07585   0.08655
 Alpha virt. eigenvalues --    0.09065   0.09641   0.10591   0.11052   0.11822
 Alpha virt. eigenvalues --    0.12921   0.13297   0.14240   0.14430   0.14909

 Mulliken charges:
               1
     1  N   -0.305073
     2  C    0.180400
     3  C    0.049251
     4  N   -0.237346
     5  C    0.133837
     6  H    0.023207
     7  N   -0.294390
     8  C    0.133382
     9  H    0.010474
    10  N   -0.287587
    11  C    0.237142
    12  C    0.083087
    13  N   -0.042972
    14  H    0.116691
    15  H    0.085504
    16  H    0.027139
    17  H    0.034126
    18  H    0.015552
    19  N   -0.307271
    20  C    0.260234
    21  C    0.182278
    22  N   -0.124929
    23  H    0.118056
    24  H    0.119255
    25  N   -0.311236
    26  C    0.250171
    27  N   -0.146432
    28  H    0.120463
    29  C    0.189285
    30  O   -0.323850
    31  C   -0.017468
    32  N   -0.212292
    33  C    0.115034
    34  H    0.019351
    35  H    0.019967
    36  H    0.032646
    37  H    0.025390
    38  H    0.047103
    39  H    0.058517
    40  H    0.076116
    41  H    0.016889
    42  C   -0.104118
    43  O   -0.282265
    44  C    0.165278
    45  H    0.127818
    46  N   -0.102975
    47  O   -0.351152
    48  C    0.337023
    49  H    0.044649
    50  C    0.174804
    51  C    0.046472
    52  N   -0.278745
    53  H    0.035407
    54  H    0.042226
    55  H    0.025489
    56  H    0.127995
    57  H    0.114847
    58  N   -0.037752
    59  C    0.068902
    60  C    0.228545
    61  N   -0.265882
    62  H    0.030284
    63  C    0.160671
    64  N   -0.297749
    65  H    0.036223
    66  C    0.127653
    67  N   -0.255228
    68  C    0.041581
    69  C    0.178273
    70  N   -0.307973
 Sum of Mulliken charges =  -0.00000

 Dipole moment (field-independent basis, Debye):
    X=              5.3151    Y=              4.8170    Z=              6.0472  Tot=              9.3820
 Quadrupole moment (field-independent basis, Debye-Ang):
   XX=           -146.8971   YY=           -229.7390   ZZ=           -253.8647
   XY=              8.7537   XZ=              4.0960   YZ=             12.1623

 Normal termination of Gaussian 16 at Thu Jan 18 23:43:40 2018.
