 Gaussian 16, Revision A.03,
 Gaussian 16:  EM64L-G16RevA.03 25-Dec-2016

 ---------------------------------------
 #p wb97xd/cc-pvdz sp scf=(maxcycles=20)
 ---------------------------------------

 ------------------
 Base pair stacking
 ------------------
 Symbolic Z-matrix:
 Charge =  0 Multiplicity = 1

                         Standard orientation:
 ---------------------------------------------------------------------
 Center     Atomic      Atomic             Coordinates (Angstroms)
 Number     Number       Type             X           Y           Z
 ---------------------------------------------------------------------
      1          7           0        5.444340   -1.465336   -1.001634
      2          6           0        6.742643   -0.930039   -1.455387
      3          6           0        3.290588   -1.798378   -0.705395
      4          7           0        3.940362   -2.748335    0.069289
      5          6           0        5.211904   -2.509670   -0.140193
      6          1           0        6.030639   -3.069968    0.312215
      7          7           0        1.618540   -0.505223   -1.751782
      8          6           0        2.613784    0.179188   -2.325062
      9          1           0        2.302304    0.986793   -2.986136
     10          7           0        3.929839    0.016539   -2.204897
     11          6           0        4.204520   -1.000350   -1.371281
     12          6           0        1.927704   -1.522450   -0.918258
     13          7           0        0.935617   -2.206816   -0.345043
     14          1           0        1.118019   -2.967564    0.278825
     15          1           0       -0.023232   -1.982581   -0.519568
     16          1           0        7.254710   -1.648488   -1.926335
     17          1           0        6.588627   -0.166523   -2.081835
     18          1           0        7.268048   -0.611035   -0.666597
     19          7           0        4.735321    1.489710    0.885100
     20          6           0        3.383055    1.684492    0.738488
     21          6           0        5.789227    2.306377    0.250254
     22          7           0        0.731026    3.462069   -0.628519
     23          1           0       -0.267831    3.432740   -0.602837
     24          1           0        1.149695    4.180108   -1.185168
     25          7           0        2.794653    2.646919   -0.004185
     26          6           0        1.476412    2.578655    0.052559
     27          7           0        0.785341    1.640434    0.780346
     28          1           0       -0.222722    1.663823    0.765267
     29          6           0        1.370057    0.640934    1.551692
     30          8           0        0.655111   -0.156727    2.170828
     31          6           0        2.785900    0.701462    1.500636
     32          7           0        3.743993   -0.094443    2.113401
     33          6           0        4.882417    0.409275    1.720366
     34          1           0        5.862679    0.029862    2.010905
     35          1           0        6.355458    1.726671   -0.334657
     36          1           0        5.365302    3.022632   -0.302493
     37          1           0        6.359330    2.725170    0.956227
     38          1           0       -5.200796    1.919541   -0.237743
     39          1           0       -5.256987    2.766394    1.306386
     40          1           0       -3.828570    2.899433    0.280095
     41          1           0       -4.916090   -1.790170    2.812434
     42          6           0       -4.277746   -1.005839    2.405512
     43          8           0       -2.254732   -2.059461    3.056967
     44          6           0       -2.856858   -1.127673    2.524039
     45          1           0       -1.135679   -0.131687    2.040438
     46          7           0       -2.142673   -0.081252    1.976135
     47          8           0       -1.936182    1.904816    0.894430
     48          6           0       -2.650715    1.028720    1.348913
     49          1           0       -5.876912    0.205223    1.683139
     50          6           0       -4.802999    0.065112    1.799056
     51          6           0       -4.617739    2.241400    0.612262
     52          7           0       -4.028962    1.073849    1.274003
     53          1           0       -5.762645    1.626000   -3.664454
     54          1           0       -4.462013    2.265959   -2.915520
     55          1           0       -5.939043    2.386941   -2.231535
     56          1           0       -2.392129   -3.559721    0.435961
     57          1           0       -4.082006   -3.518089    0.206432
     58          7           0       -3.192740   -3.076861    0.080978
     59          6           0       -3.080603   -1.896976   -0.532593
     60          6           0       -3.899363    0.032457   -1.658933
     61          7           0       -2.692309    0.601336   -1.813266
     62          1           0       -0.728239    0.219449   -1.369176
     63          6           0       -1.742398   -0.169151   -1.287025
     64          7           0       -1.852697   -1.351202   -0.672078
     65          1           0       -7.109849   -0.267294   -1.893571
     66          6           0       -6.047705   -0.405797   -1.689581
     67          7           0       -5.536149   -1.444062   -1.074764
     68          6           0       -4.174641   -1.178875   -1.048667
     69          6           0       -5.337242    1.803456   -2.777022
     70          7           0       -5.114197    0.526872   -2.070909
 ---------------------------------------------------------------------

 SCF Done:  E(RwB97XD) =  -2048.75089061     A.U. after   15 cycles

 The electronic state is 1-A.
 Alpha  occ. eigenvalues --  -19.25381 -19.21637 -19.20583 -14.52447 -14.52049
 Alpha  occ. eigenvalues --  -14.49159 -14.48877 -14.47627 -14.47400 -14.46776
 Alpha  occ. eigenvalues --  -14.46599 -14.45316 -14.44150 -14.44113 -14.42692
 Alpha  occ. eigenvalues --  -14.41922 -14.41550 -14.41339 -14.40978 -14.40755
 Alpha  occ. eigenvalues --  -10.44997 -10.41141 -10.39759 -10.39609 -10.38219
 Alpha  occ. eigenvalues --  -10.37908 -10.37229 -10.37061 -10.35880 -10.35669
 Alpha  occ. eigenvalues --  -10.34904 -10.34370 -10.34290 -10.34155 -10.33740
 Alpha  occ. eigenvalues --  -10.33524 -10.33499 -10.32443 -10.31749 -10.31039
 Alpha  occ. eigenvalues --  -10.30571 -10.28852 -10.28142  -1.19025  -1.15197
 Alpha  occ. eigenvalues --   -1.13163  -1.12674  -1.11687  -1.10631  -1.09047
 Alpha  occ. eigenvalues --   -1.08921  -1.08505  -1.05484  -1.04522  -1.02114
 Alpha  occ. eigenvalues --   -1.00911  -1.00845  -0.99666  -0.98490  -0.97347
 Alpha  occ. eigenvalues --   -0.96634  -0.96616  -0.93149  -0.90567  -0.87563
 Alpha  occ. eigenvalues --   -0.85964  -0.84436  -0.84124  -0.83378  -0.82902
 Alpha  occ. eigenvalues --   -0.82513  -0.78438  -0.76859  -0.74704  -0.74616
 Alpha  occ. eigenvalues --   -0.73567  -0.73311  -0.72963  -0.71450  -0.70214
 Alpha  occ. eigenvalues --   -0.67362  -0.66727  -0.66580  -0.66151  -0.64336
 Alpha  occ. eigenvalues --   -0.64030  -0.63658  -0.63132  -0.62575  -0.61748
 Alpha  occ. eigenvalues --   -0.61597  -0.60759  -0.60308  -0.59388  -0.59100
 Alpha  occ. eigenvalues --   -0.58443  -0.58327  -0.57889  -0.56997  -0.55985
 Alpha  occ. eigenvalues --   -0.55884  -0.55669  -0.55262  -0.54482  -0.54080
 Alpha  occ. eigenvalues --   -0.53853  -0.53569  -0.53502  -0.52941  -0.52828
 Alpha  occ. eigenvalues --   -0.52713  -0.52288  -0.52058  -0.51094  -0.50686
 Alpha  occ. eigenvalues --   -0.50142  -0.49977  -0.49257  -0.49218  -0.48887
 Alpha  occ. eigenvalues --   -0.48774  -0.48301  -0.48232  -0.47654  -0.47317
 Alpha  occ. eigenvalues --   -0.47242  -0.46131  -0.45080  -0.44640  -0.43121
 Alpha  occ. eigenvalues --   -0.41427  -0.40584  -0.39049  -0.37689  -0.37473
 Alpha  occ. eigenvalues --   -0.37379  -0.37178  -0.37009  -0.36068  -0.34509
 Alpha  occ. eigenvalues --   -0.34422  -0.34091  -0.33769  -0.33558  -0.32963
 Alpha  occ. eigenvalues --   -0.32597  -0.32217  -0.31835  -0.31534  -0.31272
 Alpha  occ. eigenvalues --   -0.30821  -0.29612  -0.26563  -0.25066
 Alpha virt. eigenvalues --    0.03302   0.04379   0.07116   0.07444   0.08669
 Alpha virt. eigenvalues --    0.09188   0.09756   0.10478   0.10663   0.12412
 Alpha virt. eigenvalues --    0.13167   0.13472   0.14140   0.14300   0.14917

 Mulliken charges:
               1
     1  N   -0.302800
     2  C    0.176274
     3  C    0.064392
     4  N   -0.243515
     5  C    0.127939
     6  H    0.024978
     7  N   -0.288657
     8  C    0.134868
     9  H    0.010578
    10  N   -0.281943
    11  C    0.223520
    12  C    0.082890
    13  N   -0.043738
    14  H    0.112999
    15  H    0.085755
    16  H    0.028728
    17  H    0.039401
    18  H    0.019409
    19  N   -0.296303
    20  C    0.249763
    21  C    0.189728
    22  N   -0.122262
    23  H    0.118635
    24  H    0.117997
    25  N   -0.302806
    26  C    0.239012
    27  N   -0.137155
    28  H    0.116111
    29  C    0.181383
    30  O   -0.324088
    31  C   -0.013675
    32  N   -0.213604
    33  C    0.115026
    34  H    0.017767
    35  H    0.004912
    36  H    0.033373
    37  H    0.023749
    38  H    0.035779
    39  H    0.058761
    40  H    0.077607
    41  H    0.022467
    42  C   -0.099587
    43  O   -0.272388
    44  C    0.160039
    45  H    0.129590
    46  N   -0.106120
    47  O   -0.344406
    48  C    0.332964
    49  H    0.044038
    50  C    0.171649
    51  C    0.047480
    52  N   -0.274481
    53  H    0.035318
    54  H    0.042684
    55  H    0.024626
    56  H    0.125776
    57  H    0.117853
    58  N   -0.046578
    59  C    0.081778
    60  C    0.209010
    61  N   -0.260488
    62  H    0.024936
    63  C    0.157819
    64  N   -0.294563
    65  H    0.035188
    66  C    0.119965
    67  N   -0.249883
    68  C    0.048623
    69  C    0.177320
    70  N   -0.301416
 Sum of Mulliken charges =  -0.00000

 Dipole moment (field-independent basis, Debye):
    X=             -5.2315    Y=              5.7926    Z=             -4.9968  Tot=              9.2677
 Quadrupole moment (field-independent basis, Debye-Ang):
   XX=           -146.8357   YY=           -224.0366   ZZ=           -262.1617
   XY=            -10.3330   XZ=              3.6661   YZ=             -0.3896

 Normal termination of Gaussian 16 at Thu Jan 18 15:30:39 2018.
