 Gaussian 16, Revision A.03,
 Gaussian 16:  EM64L-G16RevA.03 25-Dec-2016

 ---------------------------------------
 #p wb97xd/cc-pvdz sp scf=(maxcycles=20)
 ---------------------------------------

 ------------------
 Base pair stacking
 ------------------
 Symbolic Z-matrix:
 Charge =  0 Multiplicity = 1

                         Standard orientation:
 ---------------------------------------------------------------------
 Center     Atomic      Atomic             Coordinates (Angstroms)
 Number     Number       Type             X           Y           Z
 ---------------------------------------------------------------------
      1          7           0        4.825612   -2.002852   -0.899215
      2          6           0        6.109530   -1.741444   -1.578367
      3          6           0        2.686703   -2.071781   -0.391648
      4          7           0        3.349078   -2.741319    0.627030
      5          6           0        4.611185   -2.672990    0.280473
      6          1           0        5.435450   -3.098214    0.853809
      7          7           0        1.000925   -1.105545   -1.728612
      8          6           0        1.980683   -0.725036   -2.554967
      9          1           0        1.657431   -0.172606   -3.436219
     10          7           0        3.293629   -0.923547   -2.456657
     11          6           0        3.583658   -1.610953   -1.339613
     12          6           0        1.325287   -1.795566   -0.613388
     13          7           0        0.348676   -2.176266    0.212737
     14          1           0        0.542647   -2.688915    1.049861
     15          1           0       -0.609632   -1.962144    0.023145
     16          1           0        6.554003   -2.609606   -1.799521
     17          1           0        5.943770   -1.228945   -2.420385
     18          1           0        6.704484   -1.208015   -0.977128
     19          7           0        5.334568    1.461853    0.350915
     20          6           0        3.985991    1.697240    0.232605
     21          6           0        6.387196    2.098664   -0.465880
     22          7           0        1.343489    3.340862   -1.309290
     23          1           0        0.347073    3.368030   -1.234108
     24          1           0        1.762294    3.927205   -2.003204
     25          7           0        3.400634    2.543019   -0.642647
     26          6           0        2.085585    2.553835   -0.515683
     27          7           0        1.394687    1.795185    0.397902
     28          1           0        0.389175    1.867481    0.424033
     29          6           0        1.976305    0.918210    1.308121
     30          8           0        1.261834    0.279855    2.090907
     31          6           0        3.388725    0.895759    1.183757
     32          7           0        4.343120    0.171770    1.885087
     33          6           0        5.479527    0.539125    1.357984
     34          1           0        6.456725    0.166736    1.667334
     35          1           0        6.896183    1.396690   -0.962828
     36          1           0        5.965506    2.727372   -1.117928
     37          1           0        7.011436    2.605189    0.127883
     38          1           0       -4.619702    2.198966   -0.384639
     39          1           0       -4.557392    3.306043    0.984728
     40          1           0       -3.181200    3.182635   -0.111743
     41          1           0       -4.332136   -0.925859    3.262189
     42          6           0       -3.683364   -0.259330    2.693800
     43          8           0       -1.675496   -1.284739    3.431424
     44          6           0       -2.264690   -0.431477    2.768418
     45          1           0       -0.530637    0.373829    2.038443
     46          7           0       -1.536550    0.463998    2.011330
     47          8           0       -1.303114    2.215435    0.584732
     48          6           0       -2.029284    1.470979    1.219648
     49          1           0       -5.265405    0.886531    1.839414
     50          6           0       -4.193831    0.713835    1.930263
     51          6           0       -3.979010    2.634876    0.367402
     52          7           0       -3.406368    1.573198    1.199674
     53          1           0       -6.399846    0.728446   -3.861077
     54          1           0       -5.021346    1.498016   -3.449237
     55          1           0       -6.437873    1.942355   -2.770940
     56          1           0       -2.969218   -2.958628    1.588864
     57          1           0       -4.667898   -2.886184    1.449745
     58          7           0       -3.771705   -2.573992    1.132558
     59          6           0       -3.653137   -1.684256    0.144891
     60          6           0       -4.466732   -0.205019   -1.531901
     61          7           0       -3.250434    0.196029   -1.937126
     62          1           0       -1.277788   -0.140413   -1.494307
     63          6           0       -2.299267   -0.409771   -1.229176
     64          7           0       -2.415994   -1.301192   -0.239571
     65          1           0       -7.695807   -0.353955   -1.476859
     66          6           0       -6.628692   -0.484450   -1.294732
     67          7           0       -6.119540   -1.282175   -0.388048
     68          6           0       -4.749454   -1.114580   -0.527768
     69          6           0       -5.903526    1.169392   -3.113262
     70          7           0       -5.685600    0.198399   -2.023448
 ---------------------------------------------------------------------

 SCF Done:  E(RwB97XD) =  -2048.74829471     A.U. after   15 cycles

 The electronic state is 1-A.
 Alpha  occ. eigenvalues --  -19.25368 -19.21941 -19.20777 -14.52563 -14.51854
 Alpha  occ. eigenvalues --  -14.49271 -14.48714 -14.47810 -14.47358 -14.46965
 Alpha  occ. eigenvalues --  -14.46766 -14.45418 -14.44486 -14.44390 -14.42440
 Alpha  occ. eigenvalues --  -14.42124 -14.41364 -14.41144 -14.40997 -14.40609
 Alpha  occ. eigenvalues --  -10.44937 -10.41357 -10.39882 -10.39863 -10.38421
 Alpha  occ. eigenvalues --  -10.38005 -10.37279 -10.36940 -10.35945 -10.35627
 Alpha  occ. eigenvalues --  -10.34692 -10.34665 -10.34006 -10.33864 -10.33818
 Alpha  occ. eigenvalues --  -10.33436 -10.33320 -10.32722 -10.31483 -10.31281
 Alpha  occ. eigenvalues --  -10.30494 -10.28555 -10.28442  -1.18936  -1.15286
 Alpha  occ. eigenvalues --   -1.13391  -1.12872  -1.11272  -1.10949  -1.09378
 Alpha  occ. eigenvalues --   -1.08793  -1.08652  -1.05258  -1.04816  -1.02071
 Alpha  occ. eigenvalues --   -1.00986  -1.00586  -0.99861  -0.98750  -0.97051
 Alpha  occ. eigenvalues --   -0.96965  -0.96768  -0.92931  -0.90488  -0.87691
 Alpha  occ. eigenvalues --   -0.85962  -0.84523  -0.83980  -0.83165  -0.82918
 Alpha  occ. eigenvalues --   -0.82436  -0.78344  -0.77045  -0.74933  -0.74897
 Alpha  occ. eigenvalues --   -0.73784  -0.72985  -0.72898  -0.71171  -0.70382
 Alpha  occ. eigenvalues --   -0.67592  -0.66808  -0.66401  -0.66046  -0.64559
 Alpha  occ. eigenvalues --   -0.64186  -0.63621  -0.62829  -0.62758  -0.61974
 Alpha  occ. eigenvalues --   -0.60759  -0.60576  -0.60357  -0.59522  -0.58998
 Alpha  occ. eigenvalues --   -0.58850  -0.58497  -0.57731  -0.56683  -0.55984
 Alpha  occ. eigenvalues --   -0.55785  -0.55643  -0.55269  -0.54395  -0.54160
 Alpha  occ. eigenvalues --   -0.53953  -0.53678  -0.53583  -0.53190  -0.53125
 Alpha  occ. eigenvalues --   -0.52831  -0.51946  -0.51877  -0.50789  -0.50450
 Alpha  occ. eigenvalues --   -0.50421  -0.50024  -0.49528  -0.49145  -0.49000
 Alpha  occ. eigenvalues --   -0.48903  -0.48508  -0.48220  -0.47860  -0.47344
 Alpha  occ. eigenvalues --   -0.47072  -0.46044  -0.45249  -0.44871  -0.42822
 Alpha  occ. eigenvalues --   -0.41208  -0.40751  -0.39087  -0.38023  -0.37562
 Alpha  occ. eigenvalues --   -0.37483  -0.37393  -0.37112  -0.35915  -0.34635
 Alpha  occ. eigenvalues --   -0.34427  -0.34083  -0.33635  -0.33464  -0.33207
 Alpha  occ. eigenvalues --   -0.32891  -0.32573  -0.31970  -0.31187  -0.30988
 Alpha  occ. eigenvalues --   -0.30578  -0.30127  -0.26589  -0.25020
 Alpha virt. eigenvalues --    0.03537   0.04014   0.06959   0.07647   0.08599
 Alpha virt. eigenvalues --    0.09027   0.09699   0.10404   0.10989   0.12085
 Alpha virt. eigenvalues --    0.13115   0.13230   0.14207   0.14565   0.14814

 Mulliken charges:
               1
     1  N   -0.302622
     2  C    0.182939
     3  C    0.048810
     4  N   -0.241040
     5  C    0.143383
     6  H    0.024155
     7  N   -0.292888
     8  C    0.129819
     9  H    0.009710
    10  N   -0.283965
    11  C    0.236574
    12  C    0.078753
    13  N   -0.047444
    14  H    0.117286
    15  H    0.086255
    16  H    0.026774
    17  H    0.034062
    18  H    0.011054
    19  N   -0.306862
    20  C    0.257897
    21  C    0.183636
    22  N   -0.124065
    23  H    0.118557
    24  H    0.119311
    25  N   -0.308698
    26  C    0.247708
    27  N   -0.142646
    28  H    0.121374
    29  C    0.185837
    30  O   -0.320756
    31  C   -0.013947
    32  N   -0.212713
    33  C    0.108159
    34  H    0.021341
    35  H    0.015568
    36  H    0.033617
    37  H    0.026537
    38  H    0.046534
    39  H    0.055814
    40  H    0.075756
    41  H    0.015135
    42  C   -0.100603
    43  O   -0.277584
    44  C    0.170122
    45  H    0.128410
    46  N   -0.110524
    47  O   -0.351273
    48  C    0.333947
    49  H    0.044592
    50  C    0.165593
    51  C    0.049193
    52  N   -0.274986
    53  H    0.036468
    54  H    0.041925
    55  H    0.028202
    56  H    0.126090
    57  H    0.116626
    58  N   -0.049662
    59  C    0.085245
    60  C    0.222554
    61  N   -0.263765
    62  H    0.030786
    63  C    0.164531
    64  N   -0.303715
    65  H    0.037981
    66  C    0.133652
    67  N   -0.256532
    68  C    0.039674
    69  C    0.177392
    70  N   -0.309047
 Sum of Mulliken charges =  -0.00000

 Dipole moment (field-independent basis, Debye):
    X=             -5.4038    Y=              5.4549    Z=             -5.6055  Tot=              9.5068
 Quadrupole moment (field-independent basis, Debye-Ang):
   XX=           -147.1103   YY=           -226.4443   ZZ=           -257.9822
   XY=             -9.8833   XZ=             -1.1929   YZ=             -8.1460

 Normal termination of Gaussian 16 at Thu Jan 18 20:02:14 2018.
