 Gaussian 16, Revision A.03,
 Gaussian 16:  EM64L-G16RevA.03 25-Dec-2016

 ---------------------------------------
 #p wb97xd/cc-pvdz sp scf=(maxcycles=20)
 ---------------------------------------

 ------------------
 Base pair stacking
 ------------------
 Symbolic Z-matrix:
 Charge =  0 Multiplicity = 1

                         Standard orientation:
 ---------------------------------------------------------------------
 Center     Atomic      Atomic             Coordinates (Angstroms)
 Number     Number       Type             X           Y           Z
 ---------------------------------------------------------------------
      1          7           0        4.818504   -2.297162   -0.380361
      2          6           0        6.091050   -2.311039   -1.127635
      3          6           0        2.689741   -2.148124    0.152094
      4          7           0        3.365503   -2.431625    1.330097
      5          6           0        4.620956   -2.510072    0.962170
      6          1           0        5.452125   -2.722708    1.635136
      7          7           0        0.987546   -1.680058   -1.412003
      8          6           0        1.954303   -1.628455   -2.334117
      9          1           0        1.619118   -1.412565   -3.347677
     10          7           0        3.266784   -1.802671   -2.192848
     11          6           0        3.572106   -2.062245   -0.910735
     12          6           0        1.327124   -1.943293   -0.131192
     13          7           0        0.363512   -1.995218    0.790709
     14          1           0        0.568987   -2.186997    1.751040
     15          1           0       -0.596111   -1.844281    0.553038
     16          1           0        6.521624   -3.209298   -1.038702
     17          1           0        5.913687   -2.121590   -2.092924
     18          1           0        6.703787   -1.611710   -0.759562
     19          7           0        5.333333    1.597936   -0.025942
     20          6           0        3.985752    1.814727   -0.184303
     21          6           0        6.387673    2.068450   -0.946643
     22          7           0        1.348786    3.161369   -1.999436
     23          1           0        0.352654    3.207127   -1.929672
     24          1           0        1.769283    3.608170   -2.789542
     25          7           0        3.403085    2.488567   -1.199427
     26          6           0        2.088320    2.529455   -1.075498
     27          7           0        1.395268    1.955025   -0.037604
     28          1           0        0.390181    2.036203   -0.024329
     29          6           0        1.974103    1.256947    1.017620
     30          8           0        1.257841    0.776882    1.904888
     31          6           0        3.386158    1.204594    0.898301
     32          7           0        4.338161    0.616591    1.719787
     33          6           0        5.475455    0.874954    1.133251
     34          1           0        6.451324    0.560509    1.504869
     35          1           0        6.892238    1.284508   -1.306738
     36          1           0        5.967980    2.569022   -1.702645
     37          1           0        7.015531    2.672047   -0.456458
     38          1           0       -4.618409    2.240084   -0.875858
     39          1           0       -4.548051    3.579328    0.266997
     40          1           0       -3.174480    3.249517   -0.789363
     41          1           0       -4.340003   -0.163823    3.282304
     42          6           0       -3.688917    0.383640    2.600688
     43          8           0       -1.684910   -0.499568    3.512289
     44          6           0       -2.271003    0.220608    2.704431
     45          1           0       -0.534233    0.869094    1.837585
     46          7           0       -1.539722    0.958063    1.795231
     47          8           0       -1.300039    2.416668    0.071218
     48          6           0       -2.028808    1.805231    0.832599
     49          1           0       -5.266709    1.361558    1.551843
     50          6           0       -4.195858    1.202812    1.671936
     51          6           0       -3.974177    2.803221   -0.217141
     52          7           0       -3.405389    1.909317    0.795360
     53          1           0       -6.435028   -0.578392   -3.936669
     54          1           0       -5.040289    0.262758   -3.840487
     55          1           0       -6.437881    0.939936   -3.338256
     56          1           0       -2.933878   -2.191622    2.404072
     57          1           0       -4.634163   -2.143165    2.274476
     58          7           0       -3.741322   -1.976585    1.854586
     59          6           0       -3.633364   -1.489295    0.616811
     60          6           0       -4.465026   -0.673955   -1.458104
     61          7           0       -3.253005   -0.460298   -1.996418
     62          1           0       -1.275468   -0.654937   -1.494327
     63          6           0       -2.294168   -0.797388   -1.136233
     64          7           0       -2.400265   -1.285607    0.103913
     65          1           0       -7.693730   -0.739032   -1.305035
     66          6           0       -6.624581   -0.816076   -1.105204
     67          7           0       -6.105655   -1.256128    0.014949
     68          6           0       -4.736977   -1.171275   -0.195469
     69          6           0       -5.918912    0.087097   -3.397451
     70          7           0       -5.689256   -0.446476   -2.040782
 ---------------------------------------------------------------------

 SCF Done:  E(RwB97XD) =  -2048.73331939     A.U. after   15 cycles

 The electronic state is 1-A.
 Alpha  occ. eigenvalues --  -19.25417 -19.22456 -19.20892 -14.52433 -14.51843
 Alpha  occ. eigenvalues --  -14.49300 -14.48518 -14.47609 -14.47420 -14.47106
 Alpha  occ. eigenvalues --  -14.46896 -14.45343 -14.44391 -14.44294 -14.42265
 Alpha  occ. eigenvalues --  -14.42134 -14.41380 -14.40934 -14.40750 -14.40377
 Alpha  occ. eigenvalues --  -10.44985 -10.41497 -10.40258 -10.39650 -10.38528
 Alpha  occ. eigenvalues --  -10.37933 -10.37184 -10.36644 -10.35814 -10.35382
 Alpha  occ. eigenvalues --  -10.34825 -10.34743 -10.33853 -10.33842 -10.33636
 Alpha  occ. eigenvalues --  -10.33231 -10.33109 -10.32641 -10.31494 -10.31087
 Alpha  occ. eigenvalues --  -10.30700 -10.28517 -10.28348  -1.19010  -1.15174
 Alpha  occ. eigenvalues --   -1.13499  -1.13393  -1.11089  -1.10990  -1.09319
 Alpha  occ. eigenvalues --   -1.08891  -1.08715  -1.05030  -1.04774  -1.02318
 Alpha  occ. eigenvalues --   -1.00898  -1.00341  -0.99992  -0.98857  -0.97055
 Alpha  occ. eigenvalues --   -0.96899  -0.96587  -0.92693  -0.90599  -0.87586
 Alpha  occ. eigenvalues --   -0.85840  -0.84569  -0.83785  -0.83268  -0.82964
 Alpha  occ. eigenvalues --   -0.82233  -0.78462  -0.76955  -0.75011  -0.74824
 Alpha  occ. eigenvalues --   -0.73901  -0.73098  -0.72758  -0.70954  -0.70297
 Alpha  occ. eigenvalues --   -0.67700  -0.66875  -0.66195  -0.66049  -0.64670
 Alpha  occ. eigenvalues --   -0.64165  -0.63725  -0.62854  -0.62586  -0.62081
 Alpha  occ. eigenvalues --   -0.60576  -0.60403  -0.60207  -0.59410  -0.59040
 Alpha  occ. eigenvalues --   -0.58914  -0.58602  -0.57434  -0.56470  -0.56112
 Alpha  occ. eigenvalues --   -0.55900  -0.55412  -0.55142  -0.54615  -0.54286
 Alpha  occ. eigenvalues --   -0.53907  -0.53783  -0.53583  -0.53269  -0.53126
 Alpha  occ. eigenvalues --   -0.52716  -0.52115  -0.51672  -0.50730  -0.50546
 Alpha  occ. eigenvalues --   -0.50249  -0.49966  -0.49816  -0.49312  -0.49029
 Alpha  occ. eigenvalues --   -0.48795  -0.48743  -0.48209  -0.47680  -0.47497
 Alpha  occ. eigenvalues --   -0.46863  -0.46079  -0.45246  -0.44774  -0.42595
 Alpha  occ. eigenvalues --   -0.41010  -0.40655  -0.39189  -0.38133  -0.37593
 Alpha  occ. eigenvalues --   -0.37489  -0.37395  -0.36910  -0.35986  -0.34571
 Alpha  occ. eigenvalues --   -0.34415  -0.34040  -0.33674  -0.33565  -0.33242
 Alpha  occ. eigenvalues --   -0.33042  -0.32546  -0.31913  -0.31145  -0.30842
 Alpha  occ. eigenvalues --   -0.30354  -0.29755  -0.26477  -0.24986
 Alpha virt. eigenvalues --    0.03386   0.04163   0.07188   0.07841   0.08649
 Alpha virt. eigenvalues --    0.08937   0.09583   0.10479   0.11121   0.11871
 Alpha virt. eigenvalues --    0.12922   0.13064   0.14214   0.14719   0.14775

 Mulliken charges:
               1
     1  N   -0.305864
     2  C    0.182532
     3  C    0.042619
     4  N   -0.237053
     5  C    0.142916
     6  H    0.022975
     7  N   -0.296214
     8  C    0.131130
     9  H    0.010051
    10  N   -0.287163
    11  C    0.239245
    12  C    0.082657
    13  N   -0.047143
    14  H    0.119321
    15  H    0.087037
    16  H    0.026061
    17  H    0.033528
    18  H    0.013426
    19  N   -0.309513
    20  C    0.260247
    21  C    0.181597
    22  N   -0.124347
    23  H    0.118201
    24  H    0.119593
    25  N   -0.312127
    26  C    0.251280
    27  N   -0.147881
    28  H    0.120783
    29  C    0.191837
    30  O   -0.321783
    31  C   -0.016208
    32  N   -0.212347
    33  C    0.111894
    34  H    0.020702
    35  H    0.021075
    36  H    0.032657
    37  H    0.026309
    38  H    0.051202
    39  H    0.057064
    40  H    0.074651
    41  H    0.012340
    42  C   -0.101999
    43  O   -0.283233
    44  C    0.174478
    45  H    0.128114
    46  N   -0.108344
    47  O   -0.353901
    48  C    0.339718
    49  H    0.043182
    50  C    0.166833
    51  C    0.047016
    52  N   -0.278694
    53  H    0.035184
    54  H    0.042489
    55  H    0.027274
    56  H    0.124414
    57  H    0.115006
    58  N   -0.045923
    59  C    0.078874
    60  C    0.235386
    61  N   -0.266216
    62  H    0.032474
    63  C    0.165088
    64  N   -0.302001
    65  H    0.037876
    66  C    0.134220
    67  N   -0.258404
    68  C    0.036348
    69  C    0.178937
    70  N   -0.311480
 Sum of Mulliken charges =  -0.00000

 Dipole moment (field-independent basis, Debye):
    X=             -5.3464    Y=              4.6455    Z=             -6.3824  Tot=              9.5341
 Quadrupole moment (field-independent basis, Debye-Ang):
   XX=           -146.8053   YY=           -232.5662   ZZ=           -250.1712
   XY=             -9.1805   XZ=              1.9707   YZ=            -13.6307

 Normal termination of Gaussian 16 at Fri Jan 19 04:53:36 2018.
