 Gaussian 16, Revision A.03,
 Gaussian 16:  EM64L-G16RevA.03 25-Dec-2016

 ---------------------------------------
 #p wb97xd/cc-pvdz sp scf=(maxcycles=20)
 ---------------------------------------

 ------------------
 Base pair stacking
 ------------------
 Symbolic Z-matrix:
 Charge =  0 Multiplicity = 1

                         Standard orientation:
 ---------------------------------------------------------------------
 Center     Atomic      Atomic             Coordinates (Angstroms)
 Number     Number       Type             X           Y           Z
 ---------------------------------------------------------------------
      1          7           0        4.509411   -2.264028   -0.728635
      2          6           0        5.778114   -2.174898   -1.477271
      3          6           0        2.386450   -2.167099   -0.162085
      4          7           0        3.061558   -2.659678    0.945313
      5          6           0        4.313538   -2.698357    0.559668
      6          1           0        5.143214   -3.038183    1.180232
      7          7           0        0.687148   -1.407406   -1.610600
      8          6           0        1.650676   -1.218194   -2.518011
      9          1           0        1.315433   -0.826714   -3.477504
     10          7           0        2.959990   -1.438935   -2.418614
     11          6           0        3.265667   -1.918561   -1.201670
     12          6           0        1.027003   -1.891095   -0.395846
     13          7           0        0.066603   -2.080652    0.511287
     14          1           0        0.272402   -2.436851    1.423416
     15          1           0       -0.890820   -1.873177    0.310188
     16          1           0        6.190898   -3.083261   -1.545641
     17          1           0        5.600350   -1.820685   -2.394901
     18          1           0        6.406427   -1.560182   -1.000457
     19          7           0        5.623990    1.371868    0.078089
     20          6           0        4.280106    1.632969   -0.039557
     21          6           0        6.676638    1.894305   -0.816167
     22          7           0        1.652074    3.191096   -1.691050
     23          1           0        0.658458    3.254130   -1.601619
     24          1           0        2.072371    3.693670   -2.447015
     25          7           0        3.700105    2.404445   -0.984267
     26          6           0        2.388641    2.465474   -0.836150
     27          7           0        1.696214    1.821043    0.160223
     28          1           0        0.693738    1.924376    0.196532
     29          6           0        2.272344    1.022090    1.142888
     30          8           0        1.556932    0.485044    1.997590
     31          6           0        3.680852    0.946950    0.996827
     32          7           0        4.629445    0.268821    1.749961
     33          6           0        5.764433    0.549496    1.169254
     34          1           0        6.737330    0.181671    1.497050
     35          1           0        7.156507    1.132313   -1.249623
     36          1           0        6.258889    2.467270   -1.520072
     37          1           0        7.326073    2.438976   -0.286655
     38          1           0       -4.319739    2.317724   -0.553833
     39          1           0       -4.200192    3.552585    0.697363
     40          1           0       -2.850180    3.281914   -0.405177
     41          1           0       -4.042595   -0.437997    3.380087
     42          6           0       -3.387787    0.150164    2.737040
     43          8           0       -1.393666   -0.854398    3.537934
     44          6           0       -1.973027   -0.054364    2.803714
     45          1           0       -0.233073    0.624727    1.967226
     46          7           0       -1.236552    0.740580    1.948779
     47          8           0       -0.985043    2.334895    0.351253
     48          6           0       -1.717960    1.678018    1.069582
     49          1           0       -4.955440    1.250775    1.800591
     50          6           0       -3.887265    1.057265    1.889511
     51          6           0       -3.652571    2.807339    0.139869
     52          7           0       -3.091933    1.817208    1.063499
     53          1           0       -6.722803    0.249127   -3.853558
     54          1           0       -5.310984    1.034879   -3.626650
     55          1           0       -6.692437    1.643325   -3.005791
     56          1           0       -3.226924   -2.485582    2.093351
     57          1           0       -4.926439   -2.383330    1.987094
     58          7           0       -4.032291   -2.164845    1.594699
     59          6           0       -3.919997   -1.476287    0.456957
     60          6           0       -4.744215   -0.304204   -1.442679
     61          7           0       -3.530517   -0.025283   -1.946239
     62          1           0       -1.555116   -0.340202   -1.499918
     63          6           0       -2.574880   -0.522004   -1.163343
     64          7           0       -2.685316   -1.211910   -0.023426
     65          1           0       -7.972862   -0.332689   -1.277815
     66          6           0       -6.904616   -0.463002   -1.102293
     67          7           0       -6.389719   -1.096987   -0.077298
     68          6           0       -5.020562   -1.003735   -0.280866
     69          6           0       -6.191009    0.803221   -3.213107
     70          7           0       -5.966172    0.042396   -1.968678
 ---------------------------------------------------------------------

 SCF Done:  E(RwB97XD) =  -2048.74415510     A.U. after   15 cycles

 The electronic state is 1-A.
 Alpha  occ. eigenvalues --  -19.25322 -19.22058 -19.20846 -14.52571 -14.51799
 Alpha  occ. eigenvalues --  -14.49471 -14.48482 -14.47870 -14.47397 -14.47085
 Alpha  occ. eigenvalues --  -14.46885 -14.45450 -14.44608 -14.44479 -14.42374
 Alpha  occ. eigenvalues --  -14.42281 -14.41597 -14.41038 -14.40747 -14.40516
 Alpha  occ. eigenvalues --  -10.44904 -10.41517 -10.39947 -10.39939 -10.38536
 Alpha  occ. eigenvalues --  -10.38055 -10.37407 -10.36800 -10.36065 -10.35527
 Alpha  occ. eigenvalues --  -10.34860 -10.34584 -10.34000 -10.33951 -10.33652
 Alpha  occ. eigenvalues --  -10.33286 -10.33205 -10.32854 -10.31633 -10.30995
 Alpha  occ. eigenvalues --  -10.30437 -10.28618 -10.28426  -1.18891  -1.15325
 Alpha  occ. eigenvalues --   -1.13522  -1.12949  -1.11144  -1.11041  -1.09510
 Alpha  occ. eigenvalues --   -1.08861  -1.08632  -1.05150  -1.04957  -1.02069
 Alpha  occ. eigenvalues --   -1.01030  -1.00483  -0.99992  -0.98912  -0.97169
 Alpha  occ. eigenvalues --   -0.97070  -0.96630  -0.92825  -0.90463  -0.87763
 Alpha  occ. eigenvalues --   -0.85974  -0.84682  -0.83795  -0.83171  -0.82974
 Alpha  occ. eigenvalues --   -0.82242  -0.78344  -0.77114  -0.75082  -0.74980
 Alpha  occ. eigenvalues --   -0.73921  -0.72915  -0.72809  -0.71036  -0.70482
 Alpha  occ. eigenvalues --   -0.67730  -0.66911  -0.66250  -0.66047  -0.64714
 Alpha  occ. eigenvalues --   -0.64309  -0.63589  -0.62884  -0.62667  -0.62111
 Alpha  occ. eigenvalues --   -0.60620  -0.60523  -0.60245  -0.59526  -0.59009
 Alpha  occ. eigenvalues --   -0.58939  -0.58592  -0.57665  -0.56524  -0.55972
 Alpha  occ. eigenvalues --   -0.55850  -0.55548  -0.55267  -0.54529  -0.54270
 Alpha  occ. eigenvalues --   -0.53968  -0.53713  -0.53599  -0.53282  -0.53054
 Alpha  occ. eigenvalues --   -0.52848  -0.51958  -0.51660  -0.50710  -0.50553
 Alpha  occ. eigenvalues --   -0.50327  -0.50001  -0.49775  -0.49311  -0.48971
 Alpha  occ. eigenvalues --   -0.48852  -0.48593  -0.48372  -0.47721  -0.47403
 Alpha  occ. eigenvalues --   -0.46907  -0.45910  -0.45430  -0.44947  -0.42569
 Alpha  occ. eigenvalues --   -0.41144  -0.40815  -0.39118  -0.38063  -0.37718
 Alpha  occ. eigenvalues --   -0.37623  -0.37524  -0.36978  -0.35746  -0.34821
 Alpha  occ. eigenvalues --   -0.34487  -0.34246  -0.33505  -0.33319  -0.33300
 Alpha  occ. eigenvalues --   -0.33037  -0.32823  -0.32079  -0.30977  -0.30860
 Alpha  occ. eigenvalues --   -0.30459  -0.30209  -0.26454  -0.25236
 Alpha virt. eigenvalues --    0.02858   0.04512   0.07001   0.07965   0.08541
 Alpha virt. eigenvalues --    0.08968   0.09560   0.10358   0.10920   0.12162
 Alpha virt. eigenvalues --    0.13129   0.13175   0.14180   0.14538   0.14891

 Mulliken charges:
               1
     1  N   -0.304347
     2  C    0.185127
     3  C    0.040765
     4  N   -0.240615
     5  C    0.149449
     6  H    0.024666
     7  N   -0.296041
     8  C    0.129186
     9  H    0.009407
    10  N   -0.284833
    11  C    0.239167
    12  C    0.081707
    13  N   -0.054467
    14  H    0.119836
    15  H    0.089496
    16  H    0.025534
    17  H    0.033171
    18  H    0.010574
    19  N   -0.308921
    20  C    0.258726
    21  C    0.182322
    22  N   -0.123566
    23  H    0.118761
    24  H    0.119689
    25  N   -0.311357
    26  C    0.251595
    27  N   -0.145470
    28  H    0.120692
    29  C    0.190705
    30  O   -0.319005
    31  C   -0.014093
    32  N   -0.214452
    33  C    0.106255
    34  H    0.022840
    35  H    0.018993
    36  H    0.033417
    37  H    0.027170
    38  H    0.053321
    39  H    0.055350
    40  H    0.074409
    41  H    0.011822
    42  C   -0.096274
    43  O   -0.280642
    44  C    0.175197
    45  H    0.130244
    46  N   -0.118947
    47  O   -0.352917
    48  C    0.340759
    49  H    0.045811
    50  C    0.158017
    51  C    0.046751
    52  N   -0.275063
    53  H    0.035572
    54  H    0.042111
    55  H    0.028833
    56  H    0.125198
    57  H    0.117354
    58  N   -0.052944
    59  C    0.083074
    60  C    0.231112
    61  N   -0.265798
    62  H    0.033970
    63  C    0.165495
    64  N   -0.304844
    65  H    0.039160
    66  C    0.138222
    67  N   -0.259752
    68  C    0.036589
    69  C    0.178669
    70  N   -0.311946
 Sum of Mulliken charges =  -0.00000

 Dipole moment (field-independent basis, Debye):
    X=             -5.4386    Y=              5.2697    Z=             -6.0137  Tot=              9.6701
 Quadrupole moment (field-independent basis, Debye-Ang):
   XX=           -146.6917   YY=           -229.0743   ZZ=           -254.3138
   XY=            -10.5688   XZ=             -3.2350   YZ=            -11.0356

 Normal termination of Gaussian 16 at Fri Jan 19 01:21:41 2018.
