 Gaussian 16, Revision A.03,
 Gaussian 16:  EM64L-G16RevA.03 25-Dec-2016

 ---------------------------------------
 #p wb97xd/cc-pvdz sp scf=(maxcycles=20)
 ---------------------------------------

 ------------------
 Base pair stacking
 ------------------
 Symbolic Z-matrix:
 Charge =  0 Multiplicity = 1

                         Standard orientation:
 ---------------------------------------------------------------------
 Center     Atomic      Atomic             Coordinates (Angstroms)
 Number     Number       Type             X           Y           Z
 ---------------------------------------------------------------------
      1          7           0        4.862093   -0.841381   -1.653878
      2          6           0        6.162499   -0.154340   -1.776099
      3          6           0        2.707930   -1.266524   -1.526739
      4          7           0        3.351982   -2.490837   -1.421990
      5          6           0        4.624007   -2.185700   -1.502773
      6          1           0        5.439084   -2.908578   -1.457520
      7          7           0        1.044178    0.401466   -1.639438
      8          6           0        2.042559    1.281036   -1.770468
      9          1           0        1.735780    2.321468   -1.868665
     10          7           0        3.356834    1.069344   -1.798266
     11          6           0        3.625683   -0.240517   -1.670160
     12          6           0        1.347488   -0.908877   -1.512591
     13          7           0        0.352266   -1.788411   -1.381689
     14          1           0        0.530315   -2.768288   -1.284973
     15          1           0       -0.604698   -1.498020   -1.375838
     16          1           0        6.648671   -0.498547   -2.579425
     17          1           0        6.012826    0.829057   -1.874271
     18          1           0        6.710879   -0.326264   -0.957737
     19          7           0        5.313249    0.807483    0.993791
     20          6           0        3.961622    1.054743    0.989955
     21          6           0        6.358599    1.771598    0.595765
     22          7           0        1.299212    3.206648    0.404587
     23          1           0        0.302263    3.182394    0.473470
     24          1           0        1.711205    4.059803    0.083496
     25          7           0        3.366185    2.210694    0.624874
     26          6           0        2.050714    2.143385    0.728027
     27          7           0        1.368615    1.030157    1.155770
     28          1           0        0.362034    1.068971    1.203352
     29          6           0        1.960676   -0.170034    1.536404
     30          8           0        1.253562   -1.115102    1.907308
     31          6           0        3.373650   -0.113008    1.430912
     32          7           0        4.336773   -1.074055    1.706049
     33          6           0        5.469097   -0.484653    1.432801
     34          1           0        6.450881   -0.948439    1.534209
     35          1           0        6.879804    1.402248   -0.172817
     36          1           0        5.929415    2.631721    0.323272
     37          1           0        6.973171    1.936478    1.366429
     38          1           0       -4.648752    1.689877    0.603991
     39          1           0       -4.607641    2.000286    2.337941
     40          1           0       -3.226284    2.437090    1.331751
     41          1           0       -4.325020   -2.802314    2.295751
     42          6           0       -3.684707   -1.936693    2.125610
     43          8           0       -1.663761   -3.166807    2.297912
     44          6           0       -2.263816   -2.106670    2.122356
     45          1           0       -0.539961   -1.028721    1.888515
     46          7           0       -1.547047   -0.948584    1.898043
     47          8           0       -1.335861    1.276265    1.494741
     48          6           0       -2.052588    0.309396    1.684828
     49          1           0       -5.281348   -0.539736    1.913384
     50          6           0       -4.207561   -0.722125    1.920571
     51          6           0       -4.017153    1.716783    1.479452
     52          7           0       -3.431005    0.392262    1.702668
     53          1           0       -6.325041    3.288342   -1.846516
     54          1           0       -4.995433    3.400514   -0.907547
     55          1           0       -6.455121    3.135857   -0.226871
     56          1           0       -2.988251   -3.323065   -1.376704
     57          1           0       -4.681109   -3.149391   -1.495780
     58          7           0       -3.784954   -2.718608   -1.383789
     59          6           0       -3.659020   -1.396718   -1.249932
     60          6           0       -4.457287    0.840084   -1.104296
     61          7           0       -3.241231    1.390975   -0.955482
     62          1           0       -1.277529    0.813103   -0.852602
     63          6           0       -2.298223    0.451031   -0.968109
     64          7           0       -2.422336   -0.873446   -1.102069
     65          1           0       -7.677790    0.742868   -1.370870
     66          6           0       -6.615072    0.507065   -1.307994
     67          7           0       -6.114393   -0.701922   -1.381183
     68          6           0       -4.747044   -0.505027   -1.253423
     69          6           0       -5.877765    2.944684   -1.020778
     70          7           0       -5.668935    1.488635   -1.140429
 ---------------------------------------------------------------------

 SCF Done:  E(RwB97XD) =  -2048.69877402     A.U. after   15 cycles

 The electronic state is 1-A.
 Alpha  occ. eigenvalues --  -19.25035 -19.21246 -19.20696 -14.53028 -14.51530
 Alpha  occ. eigenvalues --  -14.49279 -14.49092 -14.48479 -14.47065 -14.46582
 Alpha  occ. eigenvalues --  -14.46538 -14.45775 -14.44685 -14.44474 -14.43003
 Alpha  occ. eigenvalues --  -14.41579 -14.41500 -14.41460 -14.41237 -14.40923
 Alpha  occ. eigenvalues --  -10.44657 -10.40864 -10.40385 -10.39348 -10.38357
 Alpha  occ. eigenvalues --  -10.38267 -10.37566 -10.36966 -10.36181 -10.35989
 Alpha  occ. eigenvalues --  -10.34578 -10.34437 -10.34298 -10.33868 -10.33746
 Alpha  occ. eigenvalues --  -10.33445 -10.33240 -10.33090 -10.31664 -10.31326
 Alpha  occ. eigenvalues --  -10.30219 -10.28821 -10.28375  -1.18776  -1.15890
 Alpha  occ. eigenvalues --   -1.13330  -1.12275  -1.11683  -1.10907  -1.09771
 Alpha  occ. eigenvalues --   -1.08645  -1.08440  -1.05665  -1.05315  -1.01707
 Alpha  occ. eigenvalues --   -1.01524  -1.01088  -0.99695  -0.98580  -0.97527
 Alpha  occ. eigenvalues --   -0.97322  -0.96846  -0.93353  -0.90153  -0.88185
 Alpha  occ. eigenvalues --   -0.86516  -0.85029  -0.83985  -0.83408  -0.82673
 Alpha  occ. eigenvalues --   -0.82505  -0.78064  -0.77533  -0.75453  -0.74866
 Alpha  occ. eigenvalues --   -0.73767  -0.73316  -0.72574  -0.71606  -0.70886
 Alpha  occ. eigenvalues --   -0.67547  -0.67343  -0.66806  -0.65815  -0.64729
 Alpha  occ. eigenvalues --   -0.64521  -0.63447  -0.63333  -0.62614  -0.62063
 Alpha  occ. eigenvalues --   -0.61821  -0.61218  -0.60927  -0.60074  -0.59307
 Alpha  occ. eigenvalues --   -0.58942  -0.58737  -0.58335  -0.57238  -0.56324
 Alpha  occ. eigenvalues --   -0.55898  -0.55577  -0.55204  -0.54800  -0.54319
 Alpha  occ. eigenvalues --   -0.54178  -0.53940  -0.53369  -0.53190  -0.52976
 Alpha  occ. eigenvalues --   -0.52572  -0.52150  -0.51346  -0.51125  -0.50522
 Alpha  occ. eigenvalues --   -0.50338  -0.49848  -0.49453  -0.49289  -0.49029
 Alpha  occ. eigenvalues --   -0.48646  -0.48535  -0.48046  -0.47683  -0.47607
 Alpha  occ. eigenvalues --   -0.47017  -0.46092  -0.44998  -0.44689  -0.42458
 Alpha  occ. eigenvalues --   -0.41228  -0.40991  -0.38836  -0.38271  -0.38002
 Alpha  occ. eigenvalues --   -0.37744  -0.37178  -0.36593  -0.35748  -0.35030
 Alpha  occ. eigenvalues --   -0.34705  -0.34245  -0.33978  -0.33711  -0.32978
 Alpha  occ. eigenvalues --   -0.32844  -0.32388  -0.31944  -0.31324  -0.31077
 Alpha  occ. eigenvalues --   -0.30263  -0.30203  -0.27294  -0.24397
 Alpha virt. eigenvalues --    0.03466   0.03968   0.06291   0.06467   0.07925
 Alpha virt. eigenvalues --    0.09188   0.09842   0.10036   0.11709   0.12746
 Alpha virt. eigenvalues --    0.12802   0.13188   0.14110   0.14462   0.15204

 Mulliken charges:
               1
     1  N   -0.294579
     2  C    0.188325
     3  C    0.071608
     4  N   -0.250217
     5  C    0.141202
     6  H    0.025492
     7  N   -0.278774
     8  C    0.138199
     9  H   -0.002124
    10  N   -0.261098
    11  C    0.213528
    12  C    0.063150
    13  N   -0.049699
    14  H    0.111856
    15  H    0.084102
    16  H    0.027146
    17  H    0.035874
    18  H    0.004812
    19  N   -0.293809
    20  C    0.224510
    21  C    0.184426
    22  N   -0.094932
    23  H    0.120864
    24  H    0.120322
    25  N   -0.251417
    26  C    0.140862
    27  N   -0.098951
    28  H    0.119733
    29  C    0.166044
    30  O   -0.318565
    31  C    0.010441
    32  N   -0.209716
    33  C    0.098737
    34  H    0.025372
    35  H   -0.001802
    36  H    0.036796
    37  H    0.024635
    38  H    0.020363
    39  H    0.041474
    40  H    0.077388
    41  H    0.022809
    42  C   -0.102794
    43  O   -0.270766
    44  C    0.173703
    45  H    0.128931
    46  N   -0.110446
    47  O   -0.343483
    48  C    0.310742
    49  H    0.044917
    50  C    0.160374
    51  C    0.080873
    52  N   -0.273101
    53  H    0.037013
    54  H    0.044128
    55  H    0.032444
    56  H    0.124128
    57  H    0.120572
    58  N   -0.060719
    59  C    0.112637
    60  C    0.205865
    61  N   -0.276474
    62  H    0.019196
    63  C    0.180638
    64  N   -0.307967
    65  H    0.038791
    66  C    0.134328
    67  N   -0.253165
    68  C    0.047933
    69  C    0.181487
    70  N   -0.314172
 Sum of Mulliken charges =  -0.00000

 Dipole moment (field-independent basis, Debye):
    X=             -5.4735    Y=              7.3816    Z=             -3.2365  Tot=              9.7427
 Quadrupole moment (field-independent basis, Debye-Ang):
   XX=           -147.7547   YY=           -231.8898   ZZ=           -258.3219
   XY=             -6.0921   XZ=             -7.5402   YZ=             16.0134

 Normal termination of Gaussian 16 at Fri Jan 19 00:09:28 2018.
