 Gaussian 16, Revision A.03,
 Gaussian 16:  EM64L-G16RevA.03 25-Dec-2016

 ---------------------------------------
 #p wb97xd/cc-pvdz sp scf=(maxcycles=20)
 ---------------------------------------

 ------------------
 Base pair stacking
 ------------------
 Symbolic Z-matrix:
 Charge =  0 Multiplicity = 1

                         Standard orientation:
 ---------------------------------------------------------------------
 Center     Atomic      Atomic             Coordinates (Angstroms)
 Number     Number       Type             X           Y           Z
 ---------------------------------------------------------------------
      1          7           0       -6.790687    0.738966   -0.345500
      2          6           0       -8.050406   -0.029358   -0.317406
      3          6           0       -4.677557    1.313182   -0.551173
      4          7           0       -5.359303    2.465604   -0.188048
      5          6           0       -6.605094    2.073546   -0.078668
      6          1           0       -7.437317    2.722142    0.196408
      7          7           0       -2.971694   -0.199315   -1.155618
      8          6           0       -3.925825   -1.134168   -1.212637
      9          1           0       -3.584185   -2.131120   -1.487662
     10          7           0       -5.232486   -1.022948   -0.982003
     11          6           0       -5.546595    0.240755   -0.652130
     12          6           0       -3.319881    1.062343   -0.820829
     13          7           0       -2.368876    1.996929   -0.763374
     14          1           0       -2.581056    2.943970   -0.519825
     15          1           0       -1.412413    1.782449   -0.961723
     16          1           0       -8.695121    0.360784   -0.974902
     17          1           0       -7.866138   -0.981924   -0.557782
     18          1           0       -8.447168    0.010469    0.599645
     19          7           0       -3.284734   -1.389472    1.411532
     20          6           0       -1.946226   -1.523191    1.131233
     21          6           0       -4.340832   -2.338655    1.006069
     22          7           0        0.660222   -3.303407   -0.317564
     23          1           0        1.651225   -3.213782   -0.413037
     24          1           0        0.235434   -4.108599   -0.732223
     25          7           0       -1.375503   -2.536021    0.443838
     26          6           0       -0.067242   -2.385596    0.336898
     27          7           0        0.630638   -1.325159    0.862212
     28          1           0        1.630061   -1.292355    0.731727
     29          6           0        0.064064   -0.271809    1.573063
     30          8           0        0.783749    0.637126    2.005095
     31          6           0       -1.340899   -0.419458    1.696162
     32          7           0       -2.280473    0.390889    2.318609
     33          6           0       -3.416211   -0.222787    2.124436
     34          1           0       -4.383321    0.133250    2.481094
     35          1           0       -5.007638   -1.870602    0.427200
     36          1           0       -3.929946   -3.093225    0.496104
     37          1           0       -4.798837   -2.697345    1.818714
     38          1           0        6.473832   -1.385995   -0.811584
     39          1           0        6.759098   -2.027246    0.804611
     40          1           0        5.240037   -2.370118   -0.023793
     41          1           0        6.260822    2.655408    1.789992
     42          6           0        5.639373    1.790789    1.556620
     43          8           0        3.629854    2.800098    2.311761
     44          6           0        4.234961    1.844789    1.825932
     45          1           0        2.546677    0.698720    1.669192
     46          7           0        3.541588    0.698504    1.493499
     47          8           0        3.360180   -1.416409    0.686394
     48          6           0        4.055813   -0.450537    0.946836
     49          1           0        7.232146    0.592301    0.799982
     50          6           0        6.170152    0.683997    1.023803
     51          6           0        6.011835   -1.631320    0.133113
     52          7           0        5.417253   -0.425531    0.716471
     53          1           0        4.383792   -2.468692   -3.007365
     54          1           0        3.258783   -2.783851   -1.868450
     55          1           0        4.801707   -2.482035   -1.429836
     56          1           0        0.823120    3.775737   -1.165024
     57          1           0        2.471983    3.747298   -1.601524
     58          7           0        1.637655    3.238968   -1.385358
     59          6           0        1.613440    1.904597   -1.390959
     60          6           0        2.549876   -0.266435   -1.658237
     61          7           0        1.415246   -0.922496   -1.363955
     62          1           0       -0.525184   -0.512629   -0.846879
     63          6           0        0.434568   -0.062394   -1.096755
     64          7           0        0.456830    1.274413   -1.090618
     65          1           0        5.655162    0.107612   -2.476446
     66          6           0        4.610708    0.252407   -2.198806
     67          7           0        4.037670    1.419891   -2.036697
     68          6           0        2.730718    1.105268   -1.693749
     69          6           0        4.077910   -2.251629   -2.080373
     70          7           0        3.768694   -0.811693   -1.985608
 ---------------------------------------------------------------------

 SCF Done:  E(RwB97XD) =  -2048.65533804     A.U. after   15 cycles

 The electronic state is 1-A.
 Alpha  occ. eigenvalues --  -19.26077 -19.21979 -19.20426 -14.52829 -14.51411
 Alpha  occ. eigenvalues --  -14.50323 -14.48000 -14.47817 -14.47061 -14.45976
 Alpha  occ. eigenvalues --  -14.45821 -14.44367 -14.43420 -14.43333 -14.42909
 Alpha  occ. eigenvalues --  -14.42644 -14.42321 -14.41761 -14.41528 -14.40393
 Alpha  occ. eigenvalues --  -10.45722 -10.40525 -10.40084 -10.38858 -10.37824
 Alpha  occ. eigenvalues --  -10.37808 -10.37109 -10.36766 -10.36237 -10.36126
 Alpha  occ. eigenvalues --  -10.35558 -10.35073 -10.34961 -10.34457 -10.33814
 Alpha  occ. eigenvalues --  -10.33290 -10.32860 -10.32320 -10.31406 -10.31150
 Alpha  occ. eigenvalues --  -10.30108 -10.27721 -10.27493  -1.19891  -1.14251
 Alpha  occ. eigenvalues --   -1.13105  -1.13026  -1.12939  -1.10188  -1.09686
 Alpha  occ. eigenvalues --   -1.08468  -1.08030  -1.06640  -1.03850  -1.02693
 Alpha  occ. eigenvalues --   -1.02244  -1.00041  -0.99208  -0.98454  -0.98245
 Alpha  occ. eigenvalues --   -0.96035  -0.95667  -0.94339  -0.91291  -0.87021
 Alpha  occ. eigenvalues --   -0.85720  -0.85628  -0.84185  -0.83810  -0.83457
 Alpha  occ. eigenvalues --   -0.81155  -0.79106  -0.76244  -0.74544  -0.74235
 Alpha  occ. eigenvalues --   -0.73972  -0.73614  -0.73236  -0.72689  -0.69676
 Alpha  occ. eigenvalues --   -0.67884  -0.67044  -0.66684  -0.66101  -0.65013
 Alpha  occ. eigenvalues --   -0.64388  -0.63497  -0.63274  -0.62672  -0.61748
 Alpha  occ. eigenvalues --   -0.61600  -0.61206  -0.60219  -0.59725  -0.59038
 Alpha  occ. eigenvalues --   -0.58561  -0.58060  -0.57924  -0.57846  -0.56946
 Alpha  occ. eigenvalues --   -0.56776  -0.56119  -0.55808  -0.55085  -0.54494
 Alpha  occ. eigenvalues --   -0.54347  -0.53520  -0.53421  -0.53005  -0.52361
 Alpha  occ. eigenvalues --   -0.52219  -0.51781  -0.51716  -0.51315  -0.50772
 Alpha  occ. eigenvalues --   -0.50449  -0.49827  -0.49612  -0.48759  -0.48633
 Alpha  occ. eigenvalues --   -0.48595  -0.48162  -0.47932  -0.47848  -0.47200
 Alpha  occ. eigenvalues --   -0.47083  -0.45720  -0.45589  -0.44351  -0.42911
 Alpha  occ. eigenvalues --   -0.40977  -0.40402  -0.39736  -0.38606  -0.37285
 Alpha  occ. eigenvalues --   -0.37124  -0.36939  -0.36378  -0.35355  -0.35192
 Alpha  occ. eigenvalues --   -0.34789  -0.34193  -0.33617  -0.33277  -0.33119
 Alpha  occ. eigenvalues --   -0.32564  -0.32377  -0.31949  -0.31809  -0.31564
 Alpha  occ. eigenvalues --   -0.31080  -0.27947  -0.26565  -0.24994
 Alpha virt. eigenvalues --    0.02980   0.04771   0.05999   0.08035   0.08175
 Alpha virt. eigenvalues --    0.08993   0.09563   0.10411   0.11270   0.11896
 Alpha virt. eigenvalues --    0.12334   0.13139   0.14426   0.14620   0.15061

 Mulliken charges:
               1
     1  N   -0.314852
     2  C    0.179356
     3  C    0.055888
     4  N   -0.254583
     5  C    0.132752
     6  H    0.031280
     7  N   -0.252523
     8  C    0.109105
     9  H    0.025517
    10  N   -0.293626
    11  C    0.243349
    12  C    0.088706
    13  N   -0.042430
    14  H    0.107449
    15  H    0.087797
    16  H    0.030271
    17  H    0.036938
    18  H    0.027707
    19  N   -0.289998
    20  C    0.231011
    21  C    0.196878
    22  N   -0.074381
    23  H    0.108488
    24  H    0.109367
    25  N   -0.280341
    26  C    0.184163
    27  N   -0.122111
    28  H    0.132007
    29  C    0.135037
    30  O   -0.324105
    31  C    0.024998
    32  N   -0.223686
    33  C    0.113225
    34  H    0.021856
    35  H    0.022175
    36  H    0.014585
    37  H    0.002008
    38  H    0.041092
    39  H    0.064542
    40  H    0.088902
    41  H    0.032079
    42  C   -0.095683
    43  O   -0.263673
    44  C    0.184783
    45  H    0.132177
    46  N   -0.122646
    47  O   -0.344804
    48  C    0.340943
    49  H    0.044956
    50  C    0.166114
    51  C    0.040865
    52  N   -0.278932
    53  H    0.031059
    54  H    0.018251
    55  H   -0.019815
    56  H    0.117852
    57  H    0.120942
    58  N   -0.067858
    59  C    0.132736
    60  C    0.214429
    61  N   -0.304606
    62  H    0.032363
    63  C    0.193737
    64  N   -0.310362
    65  H    0.029405
    66  C    0.108667
    67  N   -0.249058
    68  C    0.023861
    69  C    0.204136
    70  N   -0.285734
 Sum of Mulliken charges =  -0.00000

 Dipole moment (field-independent basis, Debye):
    X=              4.3281    Y=             -5.4155    Z=             -5.1709  Tot=              8.6486
 Quadrupole moment (field-independent basis, Debye-Ang):
   XX=           -139.0327   YY=           -229.0039   ZZ=           -261.4420
   XY=            -18.6317   XZ=            -14.5526   YZ=             -7.5744

 Normal termination of Gaussian 16 at Fri Jan 19 05:06:32 2018.
