 Gaussian 16, Revision A.03,
 Gaussian 16:  EM64L-G16RevA.03 25-Dec-2016

 ---------------------------------------
 #p wb97xd/cc-pvdz sp scf=(maxcycles=20)
 ---------------------------------------

 ------------------
 Base pair stacking
 ------------------
 Symbolic Z-matrix:
 Charge =  0 Multiplicity = 1

                         Standard orientation:
 ---------------------------------------------------------------------
 Center     Atomic      Atomic             Coordinates (Angstroms)
 Number     Number       Type             X           Y           Z
 ---------------------------------------------------------------------
      1          7           0       -6.325142   -1.169995    0.510201
      2          6           0       -7.618595   -0.590943    0.922105
      3          6           0       -4.178669   -1.612120    0.324433
      4          7           0       -4.827642   -2.460086   -0.561290
      5          6           0       -6.094842   -2.159775   -0.413924
      6          1           0       -6.911727   -2.633448   -0.959162
      7          7           0       -2.510184   -0.505696    1.571403
      8          6           0       -3.501350    0.194229    2.132887
      9          1           0       -3.189773    0.929775    2.873257
     10          7           0       -4.813448    0.122323    1.918120
     11          6           0       -5.088630   -0.810992    0.992037
     12          6           0       -2.819731   -1.437221    0.643213
     13          7           0       -1.831712   -2.136933    0.081609
     14          1           0       -2.014552   -2.836545   -0.609998
     15          1           0       -0.875599   -1.985743    0.332881
     16          1           0       -8.201007   -1.309484    1.302465
     17          1           0       -7.464053    0.113004    1.614716
     18          1           0       -8.070903   -0.182483    0.129276
     19          7           0       -3.792583    1.871684   -1.100037
     20          6           0       -2.443303    1.976432   -0.862317
     21          6           0       -4.829116    2.765044   -0.544868
     22          7           0        0.224586    3.586837    0.670889
     23          1           0        1.218553    3.489833    0.714053
     24          1           0       -0.181058    4.337991    1.192365
     25          7           0       -1.842544    2.905595   -0.087848
     26          6           0       -0.531236    2.747822   -0.053470
     27          7           0        0.142177    1.756602   -0.725413
     28          1           0        1.146122    1.712055   -0.641325
     29          6           0       -0.455490    0.789865   -1.527965
     30          8           0        0.243877   -0.061458   -2.090871
     31          6           0       -1.864094    0.946447   -1.574673
     32          7           0       -2.830311    0.209900   -2.246103
     33          6           0       -3.955833    0.793913   -1.935745
     34          1           0       -4.937640    0.478158   -2.290193
     35          1           0       -5.472014    2.231808    0.003896
     36          1           0       -4.395936    3.457489    0.030580
     37          1           0       -5.320002    3.213055   -1.291281
     38          1           0        6.050278    1.642849    0.699260
     39          1           0        6.268955    2.465772   -0.843335
     40          1           0        4.786433    2.707002    0.081490
     41          1           0        5.721497   -2.074752   -2.336844
     42          6           0        5.111903   -1.244388   -1.980297
     43          8           0        3.070777   -2.166593   -2.761600
     44          6           0        3.697374   -1.271394   -2.195225
     45          1           0        2.019187   -0.155853   -1.838022
     46          7           0        3.020567   -0.172773   -1.705092
     47          8           0        2.876845    1.835276   -0.654251
     48          6           0        3.559251    0.907644   -1.052366
     49          1           0        6.737049   -0.135659   -1.158447
     50          6           0        5.666467   -0.204300   -1.346824
     51          6           0        5.549680    1.993333   -0.191034
     52          7           0        4.929070    0.860494   -0.883333
     53          1           0        4.834576    1.018934    4.103644
     54          1           0        3.625540    1.791642    3.326944
     55          1           0        5.149676    1.871905    2.748439
     56          1           0        1.459049   -3.630448   -0.592579
     57          1           0        3.129321   -3.710122   -0.255020
     58          7           0        2.260043   -3.225511   -0.151468
     59          6           0        2.173907   -2.089799    0.544168
     60          6           0        3.023057   -0.303452    1.866915
     61          7           0        1.842504    0.325648    1.989249
     62          1           0       -0.105742    0.099487    1.394441
     63          6           0        0.888010   -0.343653    1.345915
     64          7           0        0.972275   -1.481307    0.648623
     65          1           0        6.188383   -0.816964    2.278192
     66          6           0        5.136217   -0.874243    1.997830
     67          7           0        4.609173   -1.830496    1.272916
     68          6           0        3.269689   -1.480752    1.182335
     69          6           0        4.480515    1.287680    3.207870
     70          7           0        4.233500    0.083237    2.391586
 ---------------------------------------------------------------------

 SCF Done:  E(RwB97XD) =  -2048.75337597     A.U. after   15 cycles

 The electronic state is 1-A.
 Alpha  occ. eigenvalues --  -19.25765 -19.21934 -19.20626 -14.52440 -14.51743
 Alpha  occ. eigenvalues --  -14.49578 -14.48577 -14.47693 -14.46843 -14.46575
 Alpha  occ. eigenvalues --  -14.46535 -14.44613 -14.43314 -14.43141 -14.42699
 Alpha  occ. eigenvalues --  -14.42116 -14.41893 -14.41654 -14.40824 -14.40678
 Alpha  occ. eigenvalues --  -10.45407 -10.41108 -10.39966 -10.38725 -10.38170
 Alpha  occ. eigenvalues --  -10.37470 -10.37158 -10.36275 -10.36035 -10.35742
 Alpha  occ. eigenvalues --  -10.34886 -10.34804 -10.34188 -10.34089 -10.33702
 Alpha  occ. eigenvalues --  -10.33595 -10.33186 -10.31798 -10.31651 -10.30698
 Alpha  occ. eigenvalues --  -10.30419 -10.29227 -10.27961  -1.19376  -1.14384
 Alpha  occ. eigenvalues --   -1.13136  -1.12962  -1.12124  -1.10455  -1.09275
 Alpha  occ. eigenvalues --   -1.08484  -1.08085  -1.05649  -1.03599  -1.02442
 Alpha  occ. eigenvalues --   -1.01055  -1.00113  -0.99628  -0.98424  -0.97676
 Alpha  occ. eigenvalues --   -0.96379  -0.95705  -0.93283  -0.90804  -0.86825
 Alpha  occ. eigenvalues --   -0.85274  -0.84681  -0.83939  -0.83842  -0.83051
 Alpha  occ. eigenvalues --   -0.82205  -0.78733  -0.76058  -0.74485  -0.73846
 Alpha  occ. eigenvalues --   -0.73561  -0.73520  -0.73262  -0.71717  -0.69421
 Alpha  occ. eigenvalues --   -0.67255  -0.66958  -0.66434  -0.65747  -0.64362
 Alpha  occ. eigenvalues --   -0.63638  -0.63447  -0.63145  -0.62545  -0.61616
 Alpha  occ. eigenvalues --   -0.61019  -0.60827  -0.59616  -0.59349  -0.58657
 Alpha  occ. eigenvalues --   -0.58249  -0.58033  -0.57439  -0.57154  -0.56298
 Alpha  occ. eigenvalues --   -0.55946  -0.55855  -0.55011  -0.54573  -0.54282
 Alpha  occ. eigenvalues --   -0.53584  -0.53484  -0.52840  -0.52763  -0.52599
 Alpha  occ. eigenvalues --   -0.52426  -0.52128  -0.51978  -0.51456  -0.50865
 Alpha  occ. eigenvalues --   -0.50018  -0.49768  -0.49402  -0.49111  -0.48928
 Alpha  occ. eigenvalues --   -0.48667  -0.48270  -0.47986  -0.47604  -0.47497
 Alpha  occ. eigenvalues --   -0.47345  -0.45661  -0.45399  -0.43820  -0.43258
 Alpha  occ. eigenvalues --   -0.41829  -0.39840  -0.39358  -0.37828  -0.37158
 Alpha  occ. eigenvalues --   -0.37137  -0.37082  -0.36666  -0.35848  -0.34287
 Alpha  occ. eigenvalues --   -0.34214  -0.33953  -0.33792  -0.33318  -0.33163
 Alpha  occ. eigenvalues --   -0.32609  -0.32170  -0.31789  -0.31594  -0.31483
 Alpha  occ. eigenvalues --   -0.31031  -0.28651  -0.26459  -0.25271
 Alpha virt. eigenvalues --    0.03061   0.05001   0.07256   0.07740   0.08883
 Alpha virt. eigenvalues --    0.09017   0.09885   0.10404   0.10921   0.11930
 Alpha virt. eigenvalues --    0.13322   0.13423   0.14091   0.14708   0.14982

 Mulliken charges:
               1
     1  N   -0.310200
     2  C    0.179039
     3  C    0.047714
     4  N   -0.247432
     5  C    0.123544
     6  H    0.027944
     7  N   -0.283375
     8  C    0.134645
     9  H    0.015217
    10  N   -0.291942
    11  C    0.233809
    12  C    0.095438
    13  N   -0.040334
    14  H    0.111128
    15  H    0.091521
    16  H    0.029290
    17  H    0.035847
    18  H    0.023104
    19  N   -0.300292
    20  C    0.254372
    21  C    0.184646
    22  N   -0.118250
    23  H    0.115124
    24  H    0.117396
    25  N   -0.305754
    26  C    0.235305
    27  N   -0.143259
    28  H    0.123940
    29  C    0.171101
    30  O   -0.325178
    31  C   -0.012125
    32  N   -0.223386
    33  C    0.127945
    34  H    0.022895
    35  H    0.020568
    36  H    0.028776
    37  H    0.020418
    38  H    0.042154
    39  H    0.064176
    40  H    0.076535
    41  H    0.025362
    42  C   -0.076216
    43  O   -0.274460
    44  C    0.162298
    45  H    0.135182
    46  N   -0.123838
    47  O   -0.343465
    48  C    0.339776
    49  H    0.042070
    50  C    0.168323
    51  C    0.041701
    52  N   -0.278596
    53  H    0.034161
    54  H    0.040192
    55  H    0.008465
    56  H    0.121847
    57  H    0.118062
    58  N   -0.037891
    59  C    0.104813
    60  C    0.227513
    61  N   -0.270643
    62  H    0.034641
    63  C    0.154006
    64  N   -0.303629
    65  H    0.030082
    66  C    0.113769
    67  N   -0.244328
    68  C    0.013188
    69  C    0.184787
    70  N   -0.299240
 Sum of Mulliken charges =  -0.00000

 Dipole moment (field-independent basis, Debye):
    X=              5.0899    Y=              5.3345    Z=              4.8206  Tot=              8.8092
 Quadrupole moment (field-independent basis, Debye-Ang):
   XX=           -143.8282   YY=           -225.1084   ZZ=           -258.8206
   XY=             10.7902   XZ=             15.0744   YZ=              2.4021

 Normal termination of Gaussian 16 at Fri Jan 19 08:24:19 2018.
