 Gaussian 16, Revision A.03,
 Gaussian 16:  EM64L-G16RevA.03 25-Dec-2016

 ---------------------------------------
 #p wb97xd/cc-pvdz sp scf=(maxcycles=20)
 ---------------------------------------

 ------------------
 Base pair stacking
 ------------------
 Symbolic Z-matrix:
 Charge =  0 Multiplicity = 1

                         Standard orientation:
 ---------------------------------------------------------------------
 Center     Atomic      Atomic             Coordinates (Angstroms)
 Number     Number       Type             X           Y           Z
 ---------------------------------------------------------------------
      1          7           0        5.445525   -1.627235   -0.841067
      2          6           0        6.742706   -1.187019   -1.390204
      3          6           0        3.292640   -1.890802   -0.476503
      4          7           0        3.944034   -2.694679    0.447733
      5          6           0        5.214996   -2.503715    0.191099
      6          1           0        6.034644   -2.981185    0.728825
      7          7           0        1.618463   -0.790485   -1.721233
      8          6           0        2.612350   -0.222533   -2.412026
      9          1           0        2.299454    0.459026   -3.201854
     10          7           0        3.928543   -0.369406   -2.274284
     11          6           0        4.205016   -1.226691   -1.277773
     12          6           0        1.929416   -1.648307   -0.724981
     13          7           0        0.938681   -2.216247   -0.034277
     14          1           0        1.122431   -2.857409    0.711628
     15          1           0       -0.020457   -2.020313   -0.238729
     16          1           0        7.247816   -1.979659   -1.731907
     17          1           0        6.587337   -0.543737   -2.139308
     18          1           0        7.275658   -0.738261   -0.672870
     19          7           0        4.732247    1.637576    0.718891
     20          6           0        3.379633    1.817547    0.557381
     21          6           0        5.784638    2.394807    0.011940
     22          7           0        0.724311    3.463820   -0.959459
     23          1           0       -0.274493    3.436247   -0.929815
     24          1           0        1.141644    4.129393   -1.578784
     25          7           0        2.789439    2.709218   -0.267634
     26          6           0        1.471346    2.645437   -0.203088
     27          7           0        0.782022    1.775701    0.606787
     28          1           0       -0.226076    1.796981    0.591137
     29          6           0        1.368597    0.849688    1.463692
     30          8           0        0.655139    0.110196    2.152801
     31          6           0        2.784316    0.906329    1.405367
     32          7           0        3.743888    0.169127    2.085551
     33          6           0        4.881358    0.636379    1.647338
     34          1           0        5.862321    0.285157    1.969266
     35          1           0        6.350516    1.765430   -0.519537
     36          1           0        5.359383    3.058401   -0.602120
     37          1           0        6.355386    2.875515    0.676745
     38          1           0       -5.205742    1.958553   -0.423520
     39          1           0       -5.260460    2.940244    1.038652
     40          1           0       -3.833577    2.981798    0.002497
     41          1           0       -4.913887   -1.462906    2.946191
     42          6           0       -4.276725   -0.717751    2.469741
     43          8           0       -2.251971   -1.707460    3.209996
     44          6           0       -2.855575   -0.827549    2.596640
     45          1           0       -1.135852    0.122274    2.023295
     46          7           0       -2.142975    0.166079    1.956194
     47          8           0       -1.939559    2.047438    0.700688
     48          6           0       -2.652768    1.215080    1.232841
     49          1           0       -5.877839    0.422687    1.644141
     50          6           0       -4.803664    0.294232    1.770590
     51          6           0       -4.621759    2.355625    0.393400
     52          7           0       -4.031152    1.252416    1.156189
     53          1           0       -5.767494    1.017200   -3.926282
     54          1           0       -4.458190    1.770483   -3.309538
     55          1           0       -5.929301    2.017707   -2.647129
     56          1           0       -2.389071   -3.392450    0.993748
     57          1           0       -4.080474   -3.381642    0.772027
     58          7           0       -3.190185   -2.974322    0.565362
     59          6           0       -3.077407   -1.920383   -0.245617
     60          6           0       -3.896038   -0.212529   -1.686028
     61          7           0       -2.687630    0.313584   -1.945593
     62          1           0       -0.721948    0.003606   -1.455049
     63          6           0       -1.737198   -0.358716   -1.299368
     64          7           0       -1.848140   -1.414555   -0.486671
     65          1           0       -7.109596   -0.529839   -1.842761
     66          6           0       -6.046546   -0.636808   -1.624974
     67          7           0       -5.534993   -1.554732   -0.841778
     68          6           0       -4.172120   -1.297044   -0.871699
     69          6           0       -5.334426    1.344400   -3.086405
     70          7           0       -5.111756    0.209462   -2.169714
 ---------------------------------------------------------------------

 SCF Done:  E(RwB97XD) =  -2048.75106189     A.U. after   15 cycles

 The electronic state is 1-A.
 Alpha  occ. eigenvalues --  -19.25486 -19.21700 -19.20636 -14.52354 -14.52122
 Alpha  occ. eigenvalues --  -14.49067 -14.48925 -14.47479 -14.47425 -14.46859
 Alpha  occ. eigenvalues --  -14.46651 -14.45220 -14.44067 -14.43988 -14.42543
 Alpha  occ. eigenvalues --  -14.41992 -14.41447 -14.41265 -14.41004 -14.40657
 Alpha  occ. eigenvalues --  -10.45088 -10.41214 -10.39850 -10.39469 -10.38275
 Alpha  occ. eigenvalues --  -10.37820 -10.37262 -10.36967 -10.35765 -10.35554
 Alpha  occ. eigenvalues --  -10.35070 -10.34429 -10.34196 -10.34023 -10.33655
 Alpha  occ. eigenvalues --  -10.33520 -10.33441 -10.32347 -10.31631 -10.31098
 Alpha  occ. eigenvalues --  -10.30600 -10.28763 -10.28187  -1.19098  -1.15074
 Alpha  occ. eigenvalues --   -1.13218  -1.12781  -1.11593  -1.10680  -1.08994
 Alpha  occ. eigenvalues --   -1.08920  -1.08565  -1.05380  -1.04401  -1.02197
 Alpha  occ. eigenvalues --   -1.00783  -1.00731  -0.99727  -0.98551  -0.97237
 Alpha  occ. eigenvalues --   -0.96678  -0.96500  -0.93041  -0.90625  -0.87445
 Alpha  occ. eigenvalues --   -0.85828  -0.84342  -0.84163  -0.83449  -0.82803
 Alpha  occ. eigenvalues --   -0.82553  -0.78500  -0.76741  -0.74706  -0.74553
 Alpha  occ. eigenvalues --   -0.73627  -0.73209  -0.73032  -0.71354  -0.70086
 Alpha  occ. eigenvalues --   -0.67415  -0.66621  -0.66467  -0.66197  -0.64381
 Alpha  occ. eigenvalues --   -0.63898  -0.63692  -0.63023  -0.62628  -0.61794
 Alpha  occ. eigenvalues --   -0.61267  -0.60640  -0.60180  -0.59271  -0.59133
 Alpha  occ. eigenvalues --   -0.58522  -0.58378  -0.57671  -0.56891  -0.56091
 Alpha  occ. eigenvalues --   -0.55779  -0.55744  -0.55141  -0.54608  -0.54151
 Alpha  occ. eigenvalues --   -0.53783  -0.53604  -0.53433  -0.52995  -0.52829
 Alpha  occ. eigenvalues --   -0.52604  -0.52191  -0.52155  -0.51068  -0.50601
 Alpha  occ. eigenvalues --   -0.50209  -0.49882  -0.49327  -0.49151  -0.49068
 Alpha  occ. eigenvalues --   -0.48833  -0.48366  -0.48036  -0.47675  -0.47315
 Alpha  occ. eigenvalues --   -0.47254  -0.46137  -0.45010  -0.44512  -0.43163
 Alpha  occ. eigenvalues --   -0.41351  -0.40479  -0.39135  -0.37696  -0.37390
 Alpha  occ. eigenvalues --   -0.37282  -0.37220  -0.37096  -0.36053  -0.34486
 Alpha  occ. eigenvalues --   -0.34300  -0.33981  -0.33666  -0.33529  -0.33039
 Alpha  occ. eigenvalues --   -0.32662  -0.32265  -0.31869  -0.31606  -0.31179
 Alpha  occ. eigenvalues --   -0.30731  -0.29509  -0.26474  -0.25102
 Alpha virt. eigenvalues --    0.03321   0.04425   0.07198   0.07497   0.08613
 Alpha virt. eigenvalues --    0.09219   0.09695   0.10578   0.10742   0.12178
 Alpha virt. eigenvalues --    0.13134   0.13483   0.14117   0.14320   0.14950

 Mulliken charges:
               1
     1  N   -0.304614
     2  C    0.177292
     3  C    0.059463
     4  N   -0.241718
     5  C    0.127339
     6  H    0.024616
     7  N   -0.290782
     8  C    0.135416
     9  H    0.010816
    10  N   -0.285143
    11  C    0.228461
    12  C    0.085332
    13  N   -0.043151
    14  H    0.113725
    15  H    0.085967
    16  H    0.028665
    17  H    0.036904
    18  H    0.018820
    19  N   -0.300132
    20  C    0.255206
    21  C    0.185991
    22  N   -0.123691
    23  H    0.118381
    24  H    0.118389
    25  N   -0.306980
    26  C    0.244271
    27  N   -0.141309
    28  H    0.117201
    29  C    0.185364
    30  O   -0.324793
    31  C   -0.017746
    32  N   -0.213098
    33  C    0.116649
    34  H    0.017942
    35  H    0.013405
    36  H    0.032851
    37  H    0.023884
    38  H    0.038739
    39  H    0.059802
    40  H    0.077447
    41  H    0.021553
    42  C   -0.100072
    43  O   -0.275409
    44  C    0.159183
    45  H    0.129598
    46  N   -0.105065
    47  O   -0.346327
    48  C    0.334926
    49  H    0.044145
    50  C    0.174086
    51  C    0.046660
    52  N   -0.275734
    53  H    0.035133
    54  H    0.042401
    55  H    0.023611
    56  H    0.126553
    57  H    0.116994
    58  N   -0.041574
    59  C    0.074250
    60  C    0.217871
    61  N   -0.263304
    62  H    0.027097
    63  C    0.157630
    64  N   -0.294572
    65  H    0.035007
    66  C    0.120090
    67  N   -0.250791
    68  C    0.045844
    69  C    0.177832
    70  N   -0.302795
 Sum of Mulliken charges =  -0.00000

 Dipole moment (field-independent basis, Debye):
    X=             -5.2629    Y=              5.4536    Z=             -5.3156  Tot=              9.2572
 Quadrupole moment (field-independent basis, Debye-Ang):
   XX=           -146.5809   YY=           -224.8572   ZZ=           -260.3588
   XY=             -9.7053   XZ=              5.0737   YZ=             -4.9818

 Normal termination of Gaussian 16 at Fri Jan 19 07:46:39 2018.
