 Gaussian 16, Revision A.03,
 Gaussian 16:  EM64L-G16RevA.03 25-Dec-2016

 ---------------------------------------
 #p wb97xd/cc-pvdz sp scf=(maxcycles=20)
 ---------------------------------------

 ------------------
 Base pair stacking
 ------------------
 Symbolic Z-matrix:
 Charge =  0 Multiplicity = 1

                         Standard orientation:
 ---------------------------------------------------------------------
 Center     Atomic      Atomic             Coordinates (Angstroms)
 Number     Number       Type             X           Y           Z
 ---------------------------------------------------------------------
      1          7           0        6.563830   -0.880391   -0.488664
      2          6           0        7.841196   -0.153683   -0.623657
      3          6           0        4.433527   -1.424397   -0.545096
      4          7           0        5.097532   -2.512439    0.002611
      5          6           0        6.354389   -2.141147    0.014688
      6          1           0        7.178157   -2.753167    0.383170
      7          7           0        2.748169    0.002972   -1.372829
      8          6           0        3.721808    0.886760   -1.614775
      9          1           0        3.396348    1.828192   -2.055269
     10          7           0        5.030976    0.782695   -1.395308
     11          6           0        5.324168   -0.410736   -0.852916
     12          6           0        3.075587   -1.188490   -0.826683
     13          7           0        2.105088   -2.072012   -0.584422
     14          1           0        2.301508   -2.966406   -0.181069
     15          1           0        1.149111   -1.870157   -0.797743
     16          1           0        8.459927   -0.671367   -1.214713
     17          1           0        7.672878    0.745951   -1.025454
     18          1           0        8.260013   -0.041343    0.277436
     19          7           0        3.534167    1.528461    1.372608
     20          6           0        2.190855    1.660406    1.115376
     21          6           0        4.582891    2.474456    0.941364
     22          7           0       -0.441029    3.430549   -0.299382
     23          1           0       -1.433596    3.340428   -0.376408
     24          1           0       -0.023687    4.232611   -0.727433
     25          7           0        1.607974    2.668319    0.430967
     26          6           0        0.297991    2.517372    0.348599
     27          7           0       -0.390426    1.460930    0.894052
     28          1           0       -1.392035    1.427383    0.781752
     29          6           0        0.188730    0.412665    1.602279
     30          8           0       -0.523160   -0.492947    2.053751
     31          6           0        1.595684    0.560926    1.699091
     32          7           0        2.546211   -0.245047    2.310477
     33          6           0        3.678330    0.366971    2.091499
     34          1           0        4.651652    0.013340    2.433346
     35          1           0        5.239179    2.002066    0.354055
     36          1           0        4.162987    3.225371    0.433367
     37          1           0        5.055410    2.838956    1.743030
     38          1           0       -6.262700    1.510752   -0.675108
     39          1           0       -6.518889    2.163804    0.941227
     40          1           0       -5.014899    2.500331    0.083239
     41          1           0       -6.003346   -2.511664    1.951582
     42          6           0       -5.386126   -1.648885    1.700818
     43          8           0       -3.363459   -2.653070    2.427135
     44          6           0       -3.977111   -1.701196    1.945288
     45          1           0       -2.291829   -0.556639    1.749961
     46          7           0       -3.289737   -0.557497    1.592142
     47          8           0       -3.122675    1.551452    0.766540
     48          6           0       -3.813599    0.587631    1.046438
     49          1           0       -6.992123   -0.455611    0.964150
     50          6           0       -5.926293   -0.545890    1.169556
     51          6           0       -5.783821    1.762849    0.259331
     52          7           0       -5.178954    0.561225    0.840707
     53          1           0       -4.597643    2.107551   -3.444572
     54          1           0       -3.437230    2.588646   -2.403373
     55          1           0       -4.975096    2.411192   -1.886126
     56          1           0       -1.136124   -3.806555   -0.597322
     57          1           0       -2.794418   -3.811094   -0.997525
     58          7           0       -1.943416   -3.295353   -0.892468
     59          6           0       -1.888654   -1.984186   -1.135392
     60          6           0       -2.781342    0.129868   -1.764343
     61          7           0       -1.624834    0.796632   -1.614891
     62          1           0        0.318103    0.432238   -1.073771
     63          6           0       -0.657756   -0.028898   -1.219697
     64          7           0       -0.710621   -1.342413   -0.975853
     65          1           0       -5.914124   -0.298679   -2.438325
     66          6           0       -4.866582   -0.420338   -2.161189
     67          7           0       -4.316645   -1.555822   -1.806326
     68          6           0       -2.994543   -1.221045   -1.551967
     69          6           0       -4.273476    2.049744   -2.500333
     70          7           0       -3.995184    0.641452   -2.157879
 ---------------------------------------------------------------------

 SCF Done:  E(RwB97XD) =  -2048.73502292     A.U. after   15 cycles

 The electronic state is 1-A.
 Alpha  occ. eigenvalues --  -19.25847 -19.21902 -19.20489 -14.52569 -14.51732
 Alpha  occ. eigenvalues --  -14.50019 -14.48225 -14.47790 -14.47015 -14.46436
 Alpha  occ. eigenvalues --  -14.46198 -14.44610 -14.43308 -14.43275 -14.43146
 Alpha  occ. eigenvalues --  -14.42575 -14.42071 -14.41745 -14.41171 -14.40493
 Alpha  occ. eigenvalues --  -10.45487 -10.40818 -10.39981 -10.38932 -10.37956
 Alpha  occ. eigenvalues --  -10.37617 -10.37230 -10.36471 -10.36311 -10.36033
 Alpha  occ. eigenvalues --  -10.35232 -10.34987 -10.34527 -10.34053 -10.33960
 Alpha  occ. eigenvalues --  -10.33528 -10.33019 -10.32108 -10.31660 -10.30904
 Alpha  occ. eigenvalues --  -10.29727 -10.29311 -10.27757  -1.19540  -1.14413
 Alpha  occ. eigenvalues --   -1.13009  -1.12916  -1.12579  -1.10261  -1.09426
 Alpha  occ. eigenvalues --   -1.08321  -1.08223  -1.06102  -1.03817  -1.02502
 Alpha  occ. eigenvalues --   -1.01590  -1.00186  -0.99363  -0.98255  -0.98113
 Alpha  occ. eigenvalues --   -0.96077  -0.95877  -0.93766  -0.91005  -0.86978
 Alpha  occ. eigenvalues --   -0.85466  -0.85122  -0.84082  -0.83635  -0.83431
 Alpha  occ. eigenvalues --   -0.81664  -0.78873  -0.76235  -0.74284  -0.74026
 Alpha  occ. eigenvalues --   -0.73970  -0.73447  -0.73270  -0.72193  -0.69627
 Alpha  occ. eigenvalues --   -0.67420  -0.67045  -0.66538  -0.65955  -0.64565
 Alpha  occ. eigenvalues --   -0.63866  -0.63423  -0.63392  -0.62491  -0.61622
 Alpha  occ. eigenvalues --   -0.61388  -0.61221  -0.59935  -0.59492  -0.58917
 Alpha  occ. eigenvalues --   -0.58043  -0.57862  -0.57605  -0.57539  -0.56537
 Alpha  occ. eigenvalues --   -0.56275  -0.55928  -0.55408  -0.54654  -0.54360
 Alpha  occ. eigenvalues --   -0.54122  -0.53265  -0.53134  -0.52983  -0.52461
 Alpha  occ. eigenvalues --   -0.52375  -0.51967  -0.51805  -0.51442  -0.51146
 Alpha  occ. eigenvalues --   -0.50138  -0.49766  -0.49417  -0.48977  -0.48728
 Alpha  occ. eigenvalues --   -0.48456  -0.48218  -0.48031  -0.47884  -0.47455
 Alpha  occ. eigenvalues --   -0.47191  -0.45795  -0.45345  -0.44228  -0.43216
 Alpha  occ. eigenvalues --   -0.41870  -0.40068  -0.39467  -0.38344  -0.37192
 Alpha  occ. eigenvalues --   -0.37068  -0.36984  -0.36731  -0.35643  -0.34764
 Alpha  occ. eigenvalues --   -0.34561  -0.34015  -0.33624  -0.33439  -0.33069
 Alpha  occ. eigenvalues --   -0.32491  -0.32036  -0.31804  -0.31681  -0.31608
 Alpha  occ. eigenvalues --   -0.31402  -0.28735  -0.26869  -0.25048
 Alpha virt. eigenvalues --    0.02963   0.04935   0.06759   0.07867   0.08570
 Alpha virt. eigenvalues --    0.09233   0.09640   0.10162   0.11133   0.11879
 Alpha virt. eigenvalues --    0.12921   0.13064   0.14570   0.14696   0.14861

 Mulliken charges:
               1
     1  N   -0.311303
     2  C    0.178623
     3  C    0.054711
     4  N   -0.252026
     5  C    0.128762
     6  H    0.029889
     7  N   -0.269870
     8  C    0.128904
     9  H    0.018173
    10  N   -0.294756
    11  C    0.234100
    12  C    0.093766
    13  N   -0.041267
    14  H    0.108695
    15  H    0.088837
    16  H    0.030216
    17  H    0.037234
    18  H    0.025602
    19  N   -0.291830
    20  C    0.241170
    21  C    0.186180
    22  N   -0.102165
    23  H    0.112931
    24  H    0.113866
    25  N   -0.293240
    26  C    0.209093
    27  N   -0.135922
    28  H    0.130888
    29  C    0.150236
    30  O   -0.324262
    31  C    0.008451
    32  N   -0.224356
    33  C    0.119628
    34  H    0.022265
    35  H    0.018407
    36  H    0.024697
    37  H    0.015775
    38  H    0.040499
    39  H    0.065237
    40  H    0.080701
    41  H    0.029477
    42  C   -0.088882
    43  O   -0.267362
    44  C    0.177216
    45  H    0.133635
    46  N   -0.123539
    47  O   -0.340262
    48  C    0.334079
    49  H    0.043305
    50  C    0.165791
    51  C    0.040103
    52  N   -0.276931
    53  H    0.031568
    54  H    0.034821
    55  H   -0.002851
    56  H    0.120120
    57  H    0.120581
    58  N   -0.059758
    59  C    0.125874
    60  C    0.215448
    61  N   -0.281411
    62  H    0.031644
    63  C    0.169566
    64  N   -0.306417
    65  H    0.032579
    66  C    0.112604
    67  N   -0.245117
    68  C    0.020814
    69  C    0.187926
    70  N   -0.291163
 Sum of Mulliken charges =  -0.00000

 Dipole moment (field-independent basis, Debye):
    X=             -4.6697    Y=              5.5188    Z=             -4.8066  Tot=              8.6814
 Quadrupole moment (field-independent basis, Debye-Ang):
   XX=           -142.1056   YY=           -226.4315   ZZ=           -260.9534
   XY=            -15.7657   XZ=             14.4388   YZ=              5.2141

 Normal termination of Gaussian 16 at Thu Jan 18 19:25:39 2018.
