 Gaussian 16, Revision A.03,
 Gaussian 16:  EM64L-G16RevA.03 25-Dec-2016

 ---------------------------------------
 #p wb97xd/cc-pvdz sp scf=(maxcycles=20)
 ---------------------------------------

 ------------------
 Base pair stacking
 ------------------
 Symbolic Z-matrix:
 Charge =  0 Multiplicity = 1

                         Standard orientation:
 ---------------------------------------------------------------------
 Center     Atomic      Atomic             Coordinates (Angstroms)
 Number     Number       Type             X           Y           Z
 ---------------------------------------------------------------------
      1          7           0       -6.882785   -0.954151    0.208950
      2          6           0       -8.173995   -0.401411    0.661993
      3          6           0       -4.743304   -1.429336    0.024124
      4          7           0       -5.384000   -2.122156   -0.992860
      5          6           0       -6.647310   -1.808148   -0.840800
      6          1           0       -7.457502   -2.174306   -1.472038
      7          7           0       -3.089376   -0.563036    1.465293
      8          6           0       -4.080435    0.078854    2.092479
      9          1           0       -3.774899    0.691349    2.939685
     10          7           0       -5.386107    0.077752    1.831485
     11          6           0       -5.654162   -0.704941    0.773196
     12          6           0       -3.391656   -1.342614    0.404179
     13          7           0       -2.403743   -1.984166   -0.223201
     14          1           0       -2.581346   -2.571960   -1.013253
     15          1           0       -1.452929   -1.899190    0.074940
     16          1           0       -8.786815   -1.149155    0.917951
     17          1           0       -8.024576    0.191358    1.452841
     18          1           0       -8.589231    0.129549   -0.076687
     19          7           0       -3.145989    2.158860   -1.123239
     20          6           0       -1.799758    2.197122   -0.850730
     21          6           0       -4.146301    3.122267   -0.621324
     22          7           0        0.910885    3.703414    0.712997
     23          1           0        1.896545    3.554045    0.786537
     24          1           0        0.533381    4.489804    1.202680
     25          7           0       -1.169669    3.113879   -0.084839
     26          6           0        0.129640    2.886434   -0.009576
     27          7           0        0.765242    1.841700   -0.635711
     28          1           0        1.762651    1.745300   -0.522412
     29          6           0        0.136930    0.886483   -1.428596
     30          8           0        0.803214   -0.016952   -1.948787
     31          6           0       -1.259241    1.117646   -1.518856
     32          7           0       -2.246273    0.415815   -2.197162
     33          6           0       -3.345899    1.068369   -1.934116
     34          1           0       -4.333809    0.796329   -2.307348
     35          1           0       -4.831782    2.640249   -0.076737
     36          1           0       -3.691191    3.806200   -0.052663
     37          1           0       -4.591937    3.574955   -1.392879
     38          1           0        6.618407    1.448725    0.956251
     39          1           0        6.922672    2.214820   -0.601048
     40          1           0        5.431632    2.561853    0.275170
     41          1           0        6.166772   -2.329713   -1.987565
     42          6           0        5.594413   -1.457874   -1.670500
     43          8           0        3.527193   -2.289975   -2.483728
     44          6           0        4.186715   -1.414375   -1.924132
     45          1           0        2.563359   -0.200077   -1.643928
     46          7           0        3.558431   -0.267380   -1.482629
     47          8           0        3.497257    1.774312   -0.490185
     48          6           0        4.138072    0.800281   -0.844151
     49          1           0        7.255572   -0.415968   -0.833384
     50          6           0        6.188200   -0.431872   -1.049751
     51          6           0        6.161538    1.800548    0.043261
     52          7           0        5.498290    0.683884   -0.635658
     53          1           0        4.203967    0.363126    4.403261
     54          1           0        3.041411    1.274815    3.710877
     55          1           0        4.585418    1.391205    3.194563
     56          1           0        0.868404   -3.463969   -1.009022
     57          1           0        2.524004   -3.641115   -0.637937
     58          7           0        1.664416   -3.150433   -0.491133
     59          6           0        1.584264   -2.123750    0.357787
     60          6           0        2.434400   -0.571070    1.947821
     61          7           0        1.266865    0.069189    2.124926
     62          1           0       -0.665741   -0.011131    1.447286
     63          6           0        0.317449   -0.472364    1.364506
     64          7           0        0.395732   -1.500689    0.513619
     65          1           0        5.570248   -1.232759    2.372989
     66          6           0        4.526831   -1.217810    2.056780
     67          7           0        3.999874   -2.044397    1.186859
     68          6           0        2.673482   -1.645303    1.108532
     69          6           0        3.886725    0.767640    3.545515
     70          7           0        3.636267   -0.299808    2.557678
 ---------------------------------------------------------------------

 SCF Done:  E(RwB97XD) =  -2048.75089901     A.U. after   15 cycles

 The electronic state is 1-A.
 Alpha  occ. eigenvalues --  -19.26039 -19.22220 -19.20739 -14.52546 -14.51055
 Alpha  occ. eigenvalues --  -14.49661 -14.48643 -14.47905 -14.47009 -14.46769
 Alpha  occ. eigenvalues --  -14.45474 -14.43938 -14.42522 -14.42498 -14.42340
 Alpha  occ. eigenvalues --  -14.42310 -14.42080 -14.41694 -14.40823 -14.40816
 Alpha  occ. eigenvalues --  -10.45607 -10.41293 -10.40235 -10.38336 -10.37792
 Alpha  occ. eigenvalues --  -10.37529 -10.36590 -10.36035 -10.35800 -10.35501
 Alpha  occ. eigenvalues --  -10.34976 -10.34378 -10.34224 -10.34108 -10.33776
 Alpha  occ. eigenvalues --  -10.33213 -10.33042 -10.31737 -10.30927 -10.30846
 Alpha  occ. eigenvalues --  -10.30524 -10.29385 -10.28147  -1.19586  -1.13692
 Alpha  occ. eigenvalues --   -1.13299  -1.13212  -1.12251  -1.10581  -1.09434
 Alpha  occ. eigenvalues --   -1.08664  -1.07193  -1.05681  -1.02707  -1.02618
 Alpha  occ. eigenvalues --   -1.01066  -0.99838  -0.99381  -0.98585  -0.97759
 Alpha  occ. eigenvalues --   -0.96504  -0.94843  -0.93275  -0.90943  -0.86099
 Alpha  occ. eigenvalues --   -0.84769  -0.84585  -0.84071  -0.83943  -0.83103
 Alpha  occ. eigenvalues --   -0.82328  -0.78878  -0.75293  -0.74602  -0.73722
 Alpha  occ. eigenvalues --   -0.73610  -0.73428  -0.73025  -0.71793  -0.68618
 Alpha  occ. eigenvalues --   -0.67422  -0.66999  -0.66603  -0.64930  -0.64488
 Alpha  occ. eigenvalues --   -0.63766  -0.63395  -0.62697  -0.62437  -0.61769
 Alpha  occ. eigenvalues --   -0.60807  -0.60277  -0.59544  -0.58842  -0.58444
 Alpha  occ. eigenvalues --   -0.58201  -0.57936  -0.57293  -0.57057  -0.56447
 Alpha  occ. eigenvalues --   -0.56084  -0.55874  -0.54502  -0.54444  -0.53935
 Alpha  occ. eigenvalues --   -0.53660  -0.53527  -0.52916  -0.52731  -0.52604
 Alpha  occ. eigenvalues --   -0.52195  -0.52022  -0.51568  -0.51255  -0.50871
 Alpha  occ. eigenvalues --   -0.50196  -0.49737  -0.49542  -0.48928  -0.48602
 Alpha  occ. eigenvalues --   -0.48373  -0.48241  -0.47834  -0.47774  -0.47647
 Alpha  occ. eigenvalues --   -0.47433  -0.45726  -0.45154  -0.43959  -0.42947
 Alpha  occ. eigenvalues --   -0.41899  -0.39605  -0.39157  -0.37937  -0.37342
 Alpha  occ. eigenvalues --   -0.37226  -0.36762  -0.35944  -0.35398  -0.34430
 Alpha  occ. eigenvalues --   -0.34385  -0.34230  -0.33393  -0.32961  -0.32747
 Alpha  occ. eigenvalues --   -0.32516  -0.32297  -0.31966  -0.31742  -0.31678
 Alpha  occ. eigenvalues --   -0.31011  -0.27844  -0.26433  -0.25471
 Alpha virt. eigenvalues --    0.03090   0.05614   0.07182   0.08129   0.08898
 Alpha virt. eigenvalues --    0.09252   0.09646   0.10336   0.10672   0.12352
 Alpha virt. eigenvalues --    0.13204   0.13328   0.14432   0.14803   0.15461

 Mulliken charges:
               1
     1  N   -0.309973
     2  C    0.180462
     3  C    0.033238
     4  N   -0.253777
     5  C    0.127756
     6  H    0.028692
     7  N   -0.281840
     8  C    0.131769
     9  H    0.017174
    10  N   -0.292481
    11  C    0.235214
    12  C    0.097193
    13  N   -0.035086
    14  H    0.108804
    15  H    0.089614
    16  H    0.028300
    17  H    0.035853
    18  H    0.024452
    19  N   -0.304658
    20  C    0.256053
    21  C    0.181534
    22  N   -0.121097
    23  H    0.113017
    24  H    0.118292
    25  N   -0.307429
    26  C    0.244356
    27  N   -0.134472
    28  H    0.117527
    29  C    0.169996
    30  O   -0.325738
    31  C   -0.008043
    32  N   -0.229005
    33  C    0.123432
    34  H    0.028958
    35  H    0.029454
    36  H    0.027814
    37  H    0.021731
    38  H    0.050914
    39  H    0.064010
    40  H    0.075314
    41  H    0.027956
    42  C   -0.071229
    43  O   -0.280731
    44  C    0.179589
    45  H    0.135923
    46  N   -0.128027
    47  O   -0.350403
    48  C    0.345690
    49  H    0.043428
    50  C    0.160953
    51  C    0.038904
    52  N   -0.286834
    53  H    0.031199
    54  H    0.039487
    55  H    0.016306
    56  H    0.116945
    57  H    0.118695
    58  N   -0.032867
    59  C    0.109771
    60  C    0.237627
    61  N   -0.276845
    62  H    0.033200
    63  C    0.159601
    64  N   -0.304142
    65  H    0.023913
    66  C    0.118762
    67  N   -0.249664
    68  C    0.008735
    69  C    0.181586
    70  N   -0.304852
 Sum of Mulliken charges =  -0.00000

 Dipole moment (field-independent basis, Debye):
    X=              5.2464    Y=              5.4544    Z=              4.3449  Tot=              8.7266
 Quadrupole moment (field-independent basis, Debye-Ang):
   XX=           -140.4014   YY=           -227.0532   ZZ=           -253.6973
   XY=              9.3947   XZ=             22.3351   YZ=              3.8850

 Normal termination of Gaussian 16 at Fri Jan 19 01:10:01 2018.
