 Gaussian 16, Revision A.03,
 Gaussian 16:  EM64L-G16RevA.03 25-Dec-2016

 ---------------------------------------
 #p wb97xd/cc-pvdz sp scf=(maxcycles=20)
 ---------------------------------------

 ------------------
 Base pair stacking
 ------------------
 Symbolic Z-matrix:
 Charge =  0 Multiplicity = 1

                         Standard orientation:
 ---------------------------------------------------------------------
 Center     Atomic      Atomic             Coordinates (Angstroms)
 Number     Number       Type             X           Y           Z
 ---------------------------------------------------------------------
      1          7           0       -6.340862   -1.306873    0.331971
      2          6           0       -7.638529   -0.880737    0.890955
      3          6           0       -4.190519   -1.652865    0.026016
      4          7           0       -4.834790   -2.231656   -1.057800
      5          6           0       -6.104506   -2.000044   -0.830089
      6          1           0       -6.919031   -2.315255   -1.482879
      7          7           0       -2.527699   -0.912294    1.525852
      8          6           0       -3.523618   -0.407382    2.261221
      9          1           0       -3.216271    0.099148    3.175127
     10          7           0       -4.836045   -0.434098    2.038207
     11          6           0       -5.105790   -1.078950    0.891115
     12          6           0       -2.831840   -1.555286    0.377315
     13          7           0       -1.839073   -2.059988   -0.358115
     14          1           0       -2.017835   -2.543799   -1.215550
     15          1           0       -0.883320   -1.971755   -0.077242
     16          1           0       -8.210234   -1.683791    1.059573
     17          1           0       -7.488103   -0.393416    1.750624
     18          1           0       -8.100277   -0.275143    0.242855
     19          7           0       -3.767595    2.156280   -0.801980
     20          6           0       -2.415865    2.220107   -0.563624
     21          6           0       -4.790569    2.995851   -0.146748
     22          7           0        0.279089    3.626816    1.115704
     23          1           0        1.272093    3.514906    1.141353
     24          1           0       -0.114893    4.321791    1.717791
     25          7           0       -1.800043    3.053833    0.302232
     26          6           0       -0.490465    2.879000    0.310427
     27          7           0        0.167634    1.958668   -0.468930
     28          1           0        1.171453    1.894395   -0.397027
     29          6           0       -0.445693    1.090591   -1.366791
     30          8           0        0.240584    0.297298   -2.022869
     31          6           0       -1.852639    1.266613   -1.386693
     32          7           0       -2.831087    0.617250   -2.126874
     33          6           0       -3.948018    1.176651   -1.747721
     34          1           0       -4.935386    0.911631   -2.127361
     35          1           0       -5.436484    2.413629    0.345809
     36          1           0       -4.346165    3.617507    0.496924
     37          1           0       -5.280458    3.526988   -0.837203
     38          1           0        6.081980    1.627774    0.894625
     39          1           0        6.301435    2.609672   -0.551880
     40          1           0        4.827061    2.765993    0.403706
     41          1           0        5.693081   -1.737280   -2.521762
     42          6           0        5.095160   -0.943583   -2.073709
     43          8           0        3.039126   -1.753969   -2.935737
     44          6           0        3.679219   -0.931871   -2.280582
     45          1           0        2.016080    0.156893   -1.793839
     46          7           0        3.017937    0.114845   -1.670387
     47          8           0        2.903381    1.999444   -0.408487
     48          6           0        3.572756    1.112733   -0.908838
     49          1           0        6.737635    0.052393   -1.148437
     50          6           0        5.665280    0.016112   -1.335762
     51          6           0        5.580444    2.077561    0.050697
     52          7           0        4.942876    1.032736   -0.755272
     53          1           0        4.813666   -0.051522    4.362350
     54          1           0        3.591097    0.889943    3.832205
     55          1           0        5.110714    1.146399    3.294557
     56          1           0        1.464848   -3.266871   -1.426640
     57          1           0        3.137912   -3.415129   -1.128361
     58          7           0        2.263667   -2.989160   -0.892867
     59          6           0        2.168398   -2.090828    0.089522
     60          6           0        3.004456   -0.728271    1.851952
     61          7           0        1.817386   -0.172631    2.146169
     62          1           0       -0.131583   -0.250874    1.516882
     63          6           0        0.866975   -0.650569    1.345419
     64          7           0        0.960386   -1.550341    0.360913
     65          1           0        6.177960   -1.294569    2.097595
     66          6           0        5.124888   -1.285776    1.814926
     67          7           0        4.604753   -2.011449    0.855485
     68          6           0        3.260764   -1.667566    0.868310
     69          6           0        4.451170    0.449480    3.576482
     70          7           0        4.213400   -0.485892    2.459997
 ---------------------------------------------------------------------

 SCF Done:  E(RwB97XD) =  -2048.74326739     A.U. after   15 cycles

 The electronic state is 1-A.
 Alpha  occ. eigenvalues --  -19.25892 -19.22136 -19.20768 -14.52499 -14.51447
 Alpha  occ. eigenvalues --  -14.49380 -14.48727 -14.47841 -14.47016 -14.46711
 Alpha  occ. eigenvalues --  -14.45899 -14.44339 -14.42929 -14.42717 -14.42390
 Alpha  occ. eigenvalues --  -14.42037 -14.41937 -14.41400 -14.40805 -14.40596
 Alpha  occ. eigenvalues --  -10.45516 -10.41266 -10.40062 -10.38319 -10.38235
 Alpha  occ. eigenvalues --  -10.37443 -10.36863 -10.35947 -10.35783 -10.35680
 Alpha  occ. eigenvalues --  -10.34630 -10.34569 -10.34343 -10.33888 -10.33497
 Alpha  occ. eigenvalues --  -10.33318 -10.33292 -10.31624 -10.31295 -10.30730
 Alpha  occ. eigenvalues --  -10.30701 -10.29016 -10.28113  -1.19475  -1.14087
 Alpha  occ. eigenvalues --   -1.13306  -1.13273  -1.11931  -1.10597  -1.09357
 Alpha  occ. eigenvalues --   -1.08637  -1.07671  -1.05417  -1.03195  -1.02617
 Alpha  occ. eigenvalues --   -1.00799  -0.99807  -0.99780  -0.98568  -0.97471
 Alpha  occ. eigenvalues --   -0.96540  -0.95305  -0.93036  -0.90826  -0.86492
 Alpha  occ. eigenvalues --   -0.84959  -0.84487  -0.84077  -0.83869  -0.82856
 Alpha  occ. eigenvalues --   -0.82412  -0.78800  -0.75707  -0.74624  -0.73700
 Alpha  occ. eigenvalues --   -0.73466  -0.73387  -0.73341  -0.71500  -0.69043
 Alpha  occ. eigenvalues --   -0.67403  -0.66735  -0.66524  -0.65391  -0.64458
 Alpha  occ. eigenvalues --   -0.63775  -0.63182  -0.62803  -0.62672  -0.61759
 Alpha  occ. eigenvalues --   -0.60600  -0.60579  -0.59440  -0.59213  -0.58408
 Alpha  occ. eigenvalues --   -0.58290  -0.58220  -0.57206  -0.56921  -0.56420
 Alpha  occ. eigenvalues --   -0.55993  -0.55689  -0.54911  -0.54410  -0.54272
 Alpha  occ. eigenvalues --   -0.53681  -0.53511  -0.52931  -0.52657  -0.52581
 Alpha  occ. eigenvalues --   -0.52239  -0.52090  -0.51650  -0.51340  -0.50662
 Alpha  occ. eigenvalues --   -0.50242  -0.49645  -0.49533  -0.49299  -0.48912
 Alpha  occ. eigenvalues --   -0.48664  -0.48367  -0.47765  -0.47609  -0.47482
 Alpha  occ. eigenvalues --   -0.47390  -0.45603  -0.45414  -0.43643  -0.42859
 Alpha  occ. eigenvalues --   -0.41616  -0.39557  -0.39477  -0.37610  -0.37325
 Alpha  occ. eigenvalues --   -0.37249  -0.37216  -0.36364  -0.35733  -0.34255
 Alpha  occ. eigenvalues --   -0.34006  -0.33894  -0.33555  -0.33479  -0.32985
 Alpha  occ. eigenvalues --   -0.32742  -0.32287  -0.31925  -0.31424  -0.31315
 Alpha  occ. eigenvalues --   -0.30782  -0.27915  -0.26231  -0.25405
 Alpha virt. eigenvalues --    0.03020   0.05155   0.07481   0.07866   0.08872
 Alpha virt. eigenvalues --    0.09196   0.09763   0.10581   0.10788   0.12154
 Alpha virt. eigenvalues --    0.13475   0.13537   0.14128   0.14641   0.14939

 Mulliken charges:
               1
     1  N   -0.310126
     2  C    0.179998
     3  C    0.042115
     4  N   -0.246217
     5  C    0.121696
     6  H    0.026995
     7  N   -0.287224
     8  C    0.135089
     9  H    0.014845
    10  N   -0.293056
    11  C    0.235796
    12  C    0.096972
    13  N   -0.039328
    14  H    0.111716
    15  H    0.092684
    16  H    0.028285
    17  H    0.035259
    18  H    0.022227
    19  N   -0.305828
    20  C    0.258648
    21  C    0.182695
    22  N   -0.121988
    23  H    0.115685
    24  H    0.118463
    25  N   -0.309173
    26  C    0.244313
    27  N   -0.146252
    28  H    0.121271
    29  C    0.179381
    30  O   -0.326655
    31  C   -0.015776
    32  N   -0.225095
    33  C    0.131076
    34  H    0.024089
    35  H    0.026448
    36  H    0.029263
    37  H    0.021741
    38  H    0.046900
    39  H    0.063180
    40  H    0.075641
    41  H    0.023331
    42  C   -0.062879
    43  O   -0.280012
    44  C    0.152073
    45  H    0.136119
    46  N   -0.122371
    47  O   -0.346545
    48  C    0.345790
    49  H    0.041867
    50  C    0.169218
    51  C    0.041903
    52  N   -0.281476
    53  H    0.032768
    54  H    0.040854
    55  H    0.015190
    56  H    0.121569
    57  H    0.115723
    58  N   -0.017247
    59  C    0.090148
    60  C    0.235572
    61  N   -0.275033
    62  H    0.031818
    63  C    0.157097
    64  N   -0.303923
    65  H    0.027678
    66  C    0.114986
    67  N   -0.246393
    68  C    0.007127
    69  C    0.182563
    70  N   -0.303268
 Sum of Mulliken charges =  -0.00000

 Dipole moment (field-independent basis, Debye):
    X=              5.3040    Y=              5.0625    Z=              4.9330  Tot=              8.8371
 Quadrupole moment (field-independent basis, Debye-Ang):
   XX=           -143.5834   YY=           -227.2527   ZZ=           -254.6259
   XY=              6.9953   XZ=             16.6246   YZ=              7.8736

 Normal termination of Gaussian 16 at Thu Jan 18 23:31:55 2018.
