 Gaussian 16, Revision A.03,
 Gaussian 16:  EM64L-G16RevA.03 25-Dec-2016

 ---------------------------------------
 #p wb97xd/cc-pvdz sp scf=(maxcycles=20)
 ---------------------------------------

 ------------------
 Base pair stacking
 ------------------
 Symbolic Z-matrix:
 Charge =  0 Multiplicity = 1

                         Standard orientation:
 ---------------------------------------------------------------------
 Center     Atomic      Atomic             Coordinates (Angstroms)
 Number     Number       Type             X           Y           Z
 ---------------------------------------------------------------------
      1          7           0        4.224267   -1.273801   -1.934102
      2          6           0        5.498359   -0.709433   -2.420072
      3          6           0        2.098366   -1.570001   -1.454370
      4          7           0        2.762986   -2.692104   -0.981206
      5          6           0        4.017155   -2.468742   -1.289169
      6          1           0        4.840521   -3.148363   -1.067475
      7          7           0        0.413569   -0.010366   -1.994701
      8          6           0        1.384191    0.738350   -2.528444
      9          1           0        1.057787    1.682467   -2.962447
     10          7           0        2.691341    0.497053   -2.606196
     11          6           0        2.985935   -0.686933   -2.044237
     12          6           0        0.742320   -1.196149   -1.437084
     13          7           0       -0.225178   -1.944956   -0.903773
     14          1           0       -0.027665   -2.829760   -0.480322
     15          1           0       -1.179880   -1.647195   -0.909315
     16          1           0        5.905543   -1.330360   -3.090008
     17          1           0        5.328899    0.177428   -2.848894
     18          1           0        6.127633   -0.591525   -1.651885
     19          7           0        5.895315    0.917071    0.671153
     20          6           0        4.552546    1.199484    0.743644
     21          6           0        6.937789    1.844306    0.187221
     22          7           0        1.913303    3.406680    0.269907
     23          1           0        0.922175    3.410084    0.399898
     24          1           0        2.325784    4.241335   -0.096052
     25          7           0        3.964603    2.362145    0.387840
     26          6           0        2.656707    2.331631    0.572441
     27          7           0        1.974819    1.246527    1.067503
     28          1           0        0.974343    1.312752    1.175313
     29          6           0        2.559259    0.040094    1.440102
     30          8           0        1.853091   -0.877573    1.875923
     31          6           0        3.964054    0.057715    1.247472
     32          7           0        4.918165   -0.921793    1.486470
     33          6           0        6.045808   -0.368528    1.130751
     34          1           0        7.020186   -0.855463    1.183334
     35          1           0        7.401472    1.444283   -0.602576
     36          1           0        6.514102    2.709041   -0.079222
     37          1           0        7.602450    2.010296    0.914870
     38          1           0       -4.046891    2.051013    0.867273
     39          1           0       -3.891644    2.399086    2.587564
     40          1           0       -2.564338    2.776875    1.488975
     41          1           0       -3.731141   -2.409003    2.643551
     42          6           0       -3.081260   -1.564487    2.414021
     43          8           0       -1.084628   -2.842909    2.492494
     44          6           0       -1.667906   -1.771632    2.328376
     45          1           0        0.064486   -0.744708    1.964256
     46          7           0       -0.937809   -0.638030    2.033128
     47          8           0       -0.696791    1.570910    1.564429
     48          6           0       -1.424202    0.627644    1.820938
     49          1           0       -4.652846   -0.131312    2.265885
     50          6           0       -3.585489   -0.341544    2.212088
     51          6           0       -3.362223    2.081019    1.701773
     52          7           0       -2.796436    0.746949    1.920641
     53          1           0       -6.970524    2.799867   -2.504596
     54          1           0       -5.555041    3.206075   -1.802111
     55          1           0       -6.936420    3.239723   -0.933358
     56          1           0       -3.531511   -3.290214   -0.024763
     57          1           0       -5.229584   -3.127206   -0.032980
     58          7           0       -4.331481   -2.707989   -0.170402
     59          6           0       -4.207245   -1.429267   -0.531794
     60          6           0       -5.011336    0.731545   -1.120077
     61          7           0       -3.792571    1.267834   -1.297408
     62          1           0       -1.822233    0.714734   -1.185793
     63          6           0       -2.845351    0.361595   -1.064160
     64          7           0       -2.967759   -0.919620   -0.702100
     65          1           0       -8.241099    0.628131   -1.019742
     66          6           0       -7.174897    0.403191   -0.980198
     67          7           0       -6.670882   -0.764517   -0.663823
     68          6           0       -5.299836   -0.570119   -0.748625
     69          6           0       -6.439246    2.762683   -1.658219
     70          7           0       -6.227527    1.355194   -1.268133
 ---------------------------------------------------------------------

 SCF Done:  E(RwB97XD) =  -2048.75128287     A.U. after   15 cycles

 The electronic state is 1-A.
 Alpha  occ. eigenvalues --  -19.25163 -19.21528 -19.20779 -14.52682 -14.51603
 Alpha  occ. eigenvalues --  -14.49648 -14.48593 -14.48376 -14.47181 -14.47028
 Alpha  occ. eigenvalues --  -14.46822 -14.45519 -14.44818 -14.44715 -14.42845
 Alpha  occ. eigenvalues --  -14.42259 -14.41815 -14.41337 -14.40981 -14.40848
 Alpha  occ. eigenvalues --  -10.44741 -10.41495 -10.40261 -10.39554 -10.38525
 Alpha  occ. eigenvalues --  -10.38120 -10.37566 -10.36867 -10.36290 -10.35879
 Alpha  occ. eigenvalues --  -10.34977 -10.34176 -10.34050 -10.33907 -10.33830
 Alpha  occ. eigenvalues --  -10.33516 -10.33493 -10.33034 -10.31796 -10.30924
 Alpha  occ. eigenvalues --  -10.30271 -10.28707 -10.28704  -1.18708  -1.15449
 Alpha  occ. eigenvalues --   -1.13541  -1.12497  -1.11264  -1.11207  -1.09722
 Alpha  occ. eigenvalues --   -1.08803  -1.08450  -1.05467  -1.05205  -1.01793
 Alpha  occ. eigenvalues --   -1.01142  -1.00840  -0.99943  -0.98955  -0.97324
 Alpha  occ. eigenvalues --   -0.97276  -0.96830  -0.93157  -0.90227  -0.87928
 Alpha  occ. eigenvalues --   -0.86095  -0.84799  -0.83970  -0.83238  -0.82642
 Alpha  occ. eigenvalues --   -0.82374  -0.78140  -0.77289  -0.75204  -0.75140
 Alpha  occ. eigenvalues --   -0.73904  -0.73074  -0.72636  -0.71308  -0.70672
 Alpha  occ. eigenvalues --   -0.67728  -0.67086  -0.66497  -0.65859  -0.64778
 Alpha  occ. eigenvalues --   -0.64466  -0.63375  -0.62951  -0.62878  -0.62096
 Alpha  occ. eigenvalues --   -0.60795  -0.60715  -0.60333  -0.59759  -0.58904
 Alpha  occ. eigenvalues --   -0.58887  -0.58523  -0.58137  -0.56745  -0.55860
 Alpha  occ. eigenvalues --   -0.55783  -0.55727  -0.55446  -0.54616  -0.54348
 Alpha  occ. eigenvalues --   -0.54039  -0.53844  -0.53412  -0.53222  -0.53025
 Alpha  occ. eigenvalues --   -0.52582  -0.51768  -0.51545  -0.50781  -0.50588
 Alpha  occ. eigenvalues --   -0.50504  -0.50177  -0.49689  -0.49397  -0.49073
 Alpha  occ. eigenvalues --   -0.48886  -0.48477  -0.48278  -0.47484  -0.47238
 Alpha  occ. eigenvalues --   -0.47106  -0.45764  -0.45457  -0.45224  -0.42725
 Alpha  occ. eigenvalues --   -0.41436  -0.40988  -0.38997  -0.38026  -0.37869
 Alpha  occ. eigenvalues --   -0.37829  -0.37518  -0.37217  -0.35394  -0.35041
 Alpha  occ. eigenvalues --   -0.34743  -0.34208  -0.33609  -0.33532  -0.33261
 Alpha  occ. eigenvalues --   -0.33174  -0.32646  -0.32120  -0.31100  -0.31029
 Alpha  occ. eigenvalues --   -0.30730  -0.30424  -0.26506  -0.25582
 Alpha virt. eigenvalues --    0.02705   0.04835   0.06524   0.07758   0.08528
 Alpha virt. eigenvalues --    0.09058   0.09441   0.10171   0.10577   0.12495
 Alpha virt. eigenvalues --    0.13243   0.13560   0.13994   0.14395   0.14872

 Mulliken charges:
               1
     1  N   -0.300654
     2  C    0.189103
     3  C    0.043012
     4  N   -0.243911
     5  C    0.151161
     6  H    0.027440
     7  N   -0.293192
     8  C    0.124987
     9  H    0.007631
    10  N   -0.278854
    11  C    0.234889
    12  C    0.080380
    13  N   -0.059776
    14  H    0.118781
    15  H    0.088952
    16  H    0.025661
    17  H    0.033266
    18  H    0.007145
    19  N   -0.305004
    20  C    0.246954
    21  C    0.182899
    22  N   -0.120193
    23  H    0.119396
    24  H    0.119553
    25  N   -0.306391
    26  C    0.247212
    27  N   -0.139093
    28  H    0.119663
    29  C    0.188502
    30  O   -0.317150
    31  C   -0.008986
    32  N   -0.216193
    33  C    0.099228
    34  H    0.024541
    35  H    0.016432
    36  H    0.034389
    37  H    0.028145
    38  H    0.057833
    39  H    0.051225
    40  H    0.072975
    41  H    0.015467
    42  C   -0.098549
    43  O   -0.275749
    44  C    0.172110
    45  H    0.131510
    46  N   -0.124165
    47  O   -0.350219
    48  C    0.340361
    49  H    0.046313
    50  C    0.156578
    51  C    0.044404
    52  N   -0.273034
    53  H    0.035882
    54  H    0.041527
    55  H    0.030055
    56  H    0.125917
    57  H    0.118773
    58  N   -0.056739
    59  C    0.088503
    60  C    0.228692
    61  N   -0.268508
    62  H    0.036850
    63  C    0.160000
    64  N   -0.303809
    65  H    0.039883
    66  C    0.140911
    67  N   -0.259288
    68  C    0.038201
    69  C    0.178882
    70  N   -0.312716
 Sum of Mulliken charges =  -0.00000

 Dipole moment (field-independent basis, Debye):
    X=             -5.5620    Y=              7.6126    Z=             -2.3330  Tot=              9.7124
 Quadrupole moment (field-independent basis, Debye-Ang):
   XX=           -147.1697   YY=           -227.8146   ZZ=           -257.1402
   XY=             -4.1347   XZ=            -13.0182   YZ=             10.3226

 Normal termination of Gaussian 16 at Fri Jan 19 11:02:16 2018.
