 Gaussian 16, Revision A.03,
 Gaussian 16:  EM64L-G16RevA.03 25-Dec-2016

 ---------------------------------------
 #p wb97xd/cc-pvdz sp scf=(maxcycles=20)
 ---------------------------------------

 ------------------
 Base pair stacking
 ------------------
 Symbolic Z-matrix:
 Charge =  0 Multiplicity = 1

                         Standard orientation:
 ---------------------------------------------------------------------
 Center     Atomic      Atomic             Coordinates (Angstroms)
 Number     Number       Type             X           Y           Z
 ---------------------------------------------------------------------
      1          7           0       -6.533689    0.812030   -0.491443
      2          6           0       -7.802456    0.058225   -0.495006
      3          6           0       -4.410724    1.363796   -0.652290
      4          7           0       -5.085660    2.519900   -0.288122
      5          6           0       -6.337661    2.141209   -0.205798
      6          1           0       -7.167226    2.796313    0.061758
      7          7           0       -2.711648   -0.161539   -1.243432
      8          6           0       -3.675269   -1.084470   -1.328519
      9          1           0       -3.340160   -2.082132   -1.608927
     10          7           0       -4.984530   -0.960611   -1.120201
     11          6           0       -5.290038    0.302829   -0.781362
     12          6           0       -3.051336    1.100192   -0.900324
     13          7           0       -2.090856    2.022871   -0.814863
     14          1           0       -2.296530    2.969485   -0.564176
     15          1           0       -1.133488    1.799501   -0.998411
     16          1           0       -8.430597    0.463369   -1.159434
     17          1           0       -7.624809   -0.893623   -0.743089
     18          1           0       -8.215327    0.092216    0.415152
     19          7           0       -3.572563   -1.356489    1.368856
     20          6           0       -2.230818   -1.502649    1.111197
     21          6           0       -4.631968   -2.288561    0.933401
     22          7           0        0.380887   -3.296565   -0.310989
     23          1           0        1.374435   -3.217451   -0.387530
     24          1           0       -0.045523   -4.091941   -0.742580
     25          7           0       -1.659380   -2.514166    0.422464
     26          6           0       -0.347750   -2.377844    0.340886
     27          7           0        0.352611   -1.331715    0.891000
     28          1           0        1.354551   -1.309116    0.778945
     29          6           0       -0.214640   -0.280000    1.603729
     30          8           0        0.507477    0.615452    2.059220
     31          6           0       -1.623211   -0.412599    1.699752
     32          7           0       -2.564562    0.401519    2.314545
     33          6           0       -3.703562   -0.196571    2.092800
     34          1           0       -4.672835    0.166657    2.436083
     35          1           0       -5.282728   -1.806156    0.348090
     36          1           0       -4.220584   -3.042009    0.422182
     37          1           0       -5.108745   -2.651137    1.733421
     38          1           0        6.224158   -1.441774   -0.677772
     39          1           0        6.472636   -2.104742    0.935732
     40          1           0        4.965032   -2.420333    0.076142
     41          1           0        6.010380    2.571856    1.966388
     42          6           0        5.383379    1.717288    1.711806
     43          8           0        3.372206    2.741343    2.442288
     44          6           0        3.975021    1.784633    1.956364
     45          1           0        2.276805    0.660258    1.755887
     46          7           0        3.274679    0.650397    1.598168
     47          8           0        3.083672   -1.452889    0.763371
     48          6           0        3.785510   -0.498252    1.047540
     49          1           0        6.975759    0.508966    0.970106
     50          6           0        5.910996    0.610523    1.175803
     51          6           0        5.742300   -1.692453    0.255524
     52          7           0        5.151107   -0.486544    0.842050
     53          1           0        4.649700   -2.495508   -2.988555
     54          1           0        3.500644   -2.810477   -1.873851
     55          1           0        5.038713   -2.531763   -1.404009
     56          1           0        1.128125    3.768687   -1.138176
     57          1           0        2.784216    3.725959   -1.545171
     58          7           0        1.940314    3.224987   -1.350011
     59          6           0        1.900877    1.891135   -1.371567
     60          6           0        2.817006   -0.287507   -1.647176
     61          7           0        1.669744   -0.933565   -1.381045
     62          1           0       -0.274908   -0.506965   -0.894309
     63          6           0        0.694322   -0.065159   -1.121579
     64          7           0        0.731839    1.271135   -1.099494
     65          1           0        5.940734    0.059512   -2.404860
     66          6           0        4.893133    0.213331   -2.144430
     67          7           0        4.330707    1.385514   -1.979104
     68          6           0        3.014212    1.082303   -1.663459
     69          6           0        4.329536   -2.285491   -2.064765
     70          7           0        4.035224   -0.843209   -1.958842
 ---------------------------------------------------------------------

 SCF Done:  E(RwB97XD) =  -2048.66182864     A.U. after   15 cycles

 The electronic state is 1-A.
 Alpha  occ. eigenvalues --  -19.25778 -19.21870 -19.20474 -14.52608 -14.51812
 Alpha  occ. eigenvalues --  -14.50244 -14.48027 -14.47818 -14.47339 -14.46146
 Alpha  occ. eigenvalues --  -14.45935 -14.44757 -14.43472 -14.43270 -14.43260
 Alpha  occ. eigenvalues --  -14.42740 -14.42001 -14.41673 -14.41184 -14.40415
 Alpha  occ. eigenvalues --  -10.45452 -10.40659 -10.39966 -10.39162 -10.37858
 Alpha  occ. eigenvalues --  -10.37678 -10.37378 -10.36527 -10.36473 -10.35921
 Alpha  occ. eigenvalues --  -10.35388 -10.35057 -10.34645 -10.33982 -10.33836
 Alpha  occ. eigenvalues --  -10.33102 -10.32978 -10.32353 -10.31793 -10.30956
 Alpha  occ. eigenvalues --  -10.29894 -10.28064 -10.27650  -1.19665  -1.14574
 Alpha  occ. eigenvalues --   -1.13087  -1.12903  -1.12782  -1.10276  -1.09525
 Alpha  occ. eigenvalues --   -1.08539  -1.08193  -1.06299  -1.04092  -1.02554
 Alpha  occ. eigenvalues --   -1.01969  -1.00380  -0.99253  -0.98334  -0.98247
 Alpha  occ. eigenvalues --   -0.96145  -0.95936  -0.94029  -0.91162  -0.87451
 Alpha  occ. eigenvalues --   -0.85985  -0.85411  -0.83939  -0.83706  -0.83449
 Alpha  occ. eigenvalues --   -0.81307  -0.78949  -0.76485  -0.74459  -0.74295
 Alpha  occ. eigenvalues --   -0.74065  -0.73538  -0.73278  -0.72422  -0.69907
 Alpha  occ. eigenvalues --   -0.67653  -0.66995  -0.66636  -0.66282  -0.65178
 Alpha  occ. eigenvalues --   -0.64107  -0.63676  -0.63424  -0.62671  -0.62069
 Alpha  occ. eigenvalues --   -0.61485  -0.61221  -0.60413  -0.59634  -0.59165
 Alpha  occ. eigenvalues --   -0.58637  -0.57856  -0.57842  -0.57530  -0.56888
 Alpha  occ. eigenvalues --   -0.56609  -0.56250  -0.55559  -0.55018  -0.54597
 Alpha  occ. eigenvalues --   -0.54228  -0.53608  -0.53441  -0.53023  -0.52461
 Alpha  occ. eigenvalues --   -0.52285  -0.51898  -0.51636  -0.50999  -0.50734
 Alpha  occ. eigenvalues --   -0.50316  -0.49667  -0.49484  -0.48980  -0.48647
 Alpha  occ. eigenvalues --   -0.48383  -0.48204  -0.48092  -0.47704  -0.47123
 Alpha  occ. eigenvalues --   -0.47077  -0.45769  -0.45325  -0.44205  -0.42977
 Alpha  occ. eigenvalues --   -0.41364  -0.40397  -0.39589  -0.38325  -0.37339
 Alpha  occ. eigenvalues --   -0.37203  -0.36911  -0.36890  -0.35584  -0.35027
 Alpha  occ. eigenvalues --   -0.34629  -0.34103  -0.33682  -0.33264  -0.33030
 Alpha  occ. eigenvalues --   -0.32452  -0.32013  -0.31776  -0.31673  -0.31554
 Alpha  occ. eigenvalues --   -0.30953  -0.28683  -0.26720  -0.24925
 Alpha virt. eigenvalues --    0.02920   0.04705   0.06555   0.07635   0.08387
 Alpha virt. eigenvalues --    0.09104   0.09410   0.10257   0.11306   0.11939
 Alpha virt. eigenvalues --    0.12782   0.13077   0.14299   0.14665   0.14761

 Mulliken charges:
               1
     1  N   -0.313514
     2  C    0.177548
     3  C    0.062665
     4  N   -0.252640
     5  C    0.129871
     6  H    0.030483
     7  N   -0.261643
     8  C    0.120781
     9  H    0.020360
    10  N   -0.300616
    11  C    0.237665
    12  C    0.089319
    13  N   -0.043581
    14  H    0.107471
    15  H    0.088116
    16  H    0.030897
    17  H    0.039975
    18  H    0.026674
    19  N   -0.285916
    20  C    0.218718
    21  C    0.200925
    22  N   -0.087156
    23  H    0.113579
    24  H    0.110989
    25  N   -0.281828
    26  C    0.188444
    27  N   -0.139448
    28  H    0.137042
    29  C    0.146152
    30  O   -0.324159
    31  C    0.023709
    32  N   -0.222876
    33  C    0.118208
    34  H    0.020967
    35  H    0.026003
    36  H    0.018640
    37  H    0.002507
    38  H    0.029041
    39  H    0.062106
    40  H    0.072955
    41  H    0.030515
    42  C   -0.095180
    43  O   -0.264774
    44  C    0.180995
    45  H    0.132845
    46  N   -0.122624
    47  O   -0.336568
    48  C    0.333325
    49  H    0.043650
    50  C    0.166436
    51  C    0.060160
    52  N   -0.276276
    53  H    0.026425
    54  H    0.029637
    55  H    0.004275
    56  H    0.119504
    57  H    0.120928
    58  N   -0.065451
    59  C    0.128585
    60  C    0.210015
    61  N   -0.291883
    62  H    0.030920
    63  C    0.180772
    64  N   -0.310386
    65  H    0.037095
    66  C    0.109343
    67  N   -0.244595
    68  C    0.026181
    69  C    0.187688
    70  N   -0.289988
 Sum of Mulliken charges =  -0.00000

 Dipole moment (field-independent basis, Debye):
    X=              4.4299    Y=             -5.5134    Z=             -5.1768  Tot=              8.7647
 Quadrupole moment (field-independent basis, Debye-Ang):
   XX=           -141.6035   YY=           -228.0653   ZZ=           -262.6388
   XY=            -16.9200   XZ=            -12.0884   YZ=             -8.1269

 Normal termination of Gaussian 16 at Thu Feb  1 13:18:53 2018.
