 Gaussian 16, Revision A.03,
 Gaussian 16:  EM64L-G16RevA.03 25-Dec-2016

 ---------------------------------------
 #p wb97xd/cc-pvdz sp scf=(maxcycles=20)
 ---------------------------------------

 ------------------
 Base pair stacking
 ------------------
 Symbolic Z-matrix:
 Charge =  0 Multiplicity = 1

                         Standard orientation:
 ---------------------------------------------------------------------
 Center     Atomic      Atomic             Coordinates (Angstroms)
 Number     Number       Type             X           Y           Z
 ---------------------------------------------------------------------
      1          7           0        4.558636   -0.793598   -1.858887
      2          6           0        5.854415   -0.111064   -2.040868
      3          6           0        2.410282   -1.212517   -1.643490
      4          7           0        3.056135   -2.436386   -1.544743
      5          6           0        4.324593   -2.135013   -1.678460
      6          1           0        5.139780   -2.858741   -1.653259
      7          7           0        0.745788    0.456869   -1.718156
      8          6           0        1.739696    1.332382   -1.900378
      9          1           0        1.430848    2.371812   -2.002618
     10          7           0        3.051654    1.117698   -1.974910
     11          6           0        3.323352   -0.190618   -1.837258
     12          6           0        1.051855   -0.852006   -1.583056
     13          7           0        0.061105   -1.727484   -1.401085
     14          1           0        0.241334   -2.706147   -1.296352
     15          1           0       -0.894539   -1.435149   -1.363255
     16          1           0        6.309196   -0.468323   -2.856779
     17          1           0        5.702498    0.871043   -2.148193
     18          1           0        6.433287   -0.271691   -1.241434
     19          7           0        5.598748    0.750242    0.903333
     20          6           0        4.249280    1.003615    0.956259
     21          6           0        6.638836    1.735157    0.544362
     22          7           0        1.585969    3.204342    0.602238
     23          1           0        0.591266    3.180033    0.698153
     24          1           0        1.994426    4.076153    0.330499
     25          7           0        3.651547    2.185392    0.691360
     26          6           0        2.339151    2.117230    0.827644
     27          7           0        1.661982    0.979737    1.195147
     28          1           0        0.657467    1.019899    1.274572
     29          6           0        2.256484   -0.247245    1.472531
     30          8           0        1.553844   -1.212866    1.795980
     31          6           0        3.666215   -0.189650    1.330347
     32          7           0        4.630232   -1.172392    1.508679
     33          6           0        5.758272   -0.570520    1.245075
     34          1           0        6.739360   -1.045022    1.284856
     35          1           0        7.135289    1.418769   -0.263257
     36          1           0        6.207912    2.614492    0.346003
     37          1           0        7.276336    1.841995    1.306591
     38          1           0       -4.364061    1.705718    0.866425
     39          1           0       -4.271211    1.892126    2.616076
     40          1           0       -2.916283    2.392602    1.603640
     41          1           0       -4.022724   -2.896660    2.225876
     42          6           0       -3.381662   -2.024232    2.098906
     43          8           0       -1.365049   -3.273123    2.124947
     44          6           0       -1.962630   -2.200343    2.042361
     45          1           0       -0.238857   -1.116784    1.835447
     46          7           0       -1.244684   -1.032710    1.879860
     47          8           0       -1.029938    1.214109    1.629089
     48          6           0       -1.747520    0.239632    1.770995
     49          1           0       -4.974138   -0.608116    2.032537
     50          6           0       -3.901847   -0.795687    1.995613
     51          6           0       -3.707494    1.667430    1.722886
     52          7           0       -3.124253    0.327616    1.834679
     53          1           0       -6.621918    3.354845   -1.688681
     54          1           0       -5.257401    3.478568   -0.802753
     55          1           0       -6.690509    3.227113   -0.063132
     56          1           0       -3.278950   -3.255287   -1.245806
     57          1           0       -4.974862   -3.080091   -1.303064
     58          7           0       -4.074493   -2.649433   -1.231770
     59          6           0       -3.941707   -1.325922   -1.122878
     60          6           0       -4.730722    0.914402   -0.980948
     61          7           0       -3.509101    1.465065   -0.886849
     62          1           0       -1.543729    0.884935   -0.849951
     63          6           0       -2.568589    0.523179   -0.921060
     64          7           0       -2.699551   -0.802925   -1.030085
     65          1           0       -7.959168    0.819534   -1.123383
     66          6           0       -6.895153    0.582611   -1.097382
     67          7           0       -6.399318   -0.628331   -1.171195
     68          6           0       -5.027822   -0.432239   -1.098520
     69          6           0       -6.144047    3.022825   -0.875419
     70          7           0       -5.941954    1.564725   -0.980825
 ---------------------------------------------------------------------

 SCF Done:  E(RwB97XD) =  -2048.72769478     A.U. after   15 cycles

 The electronic state is 1-A.
 Alpha  occ. eigenvalues --  -19.25057 -19.21271 -19.20700 -14.53008 -14.51521
 Alpha  occ. eigenvalues --  -14.49444 -14.48953 -14.48471 -14.47070 -14.46760
 Alpha  occ. eigenvalues --  -14.46696 -14.45733 -14.44671 -14.44646 -14.43023
 Alpha  occ. eigenvalues --  -14.41826 -14.41640 -14.41407 -14.41388 -14.40952
 Alpha  occ. eigenvalues --  -10.44656 -10.41135 -10.40381 -10.39360 -10.38360
 Alpha  occ. eigenvalues --  -10.38304 -10.37609 -10.36875 -10.36229 -10.36035
 Alpha  occ. eigenvalues --  -10.34668 -10.34397 -10.34230 -10.33984 -10.33758
 Alpha  occ. eigenvalues --  -10.33560 -10.33200 -10.33150 -10.31692 -10.31307
 Alpha  occ. eigenvalues --  -10.30212 -10.28905 -10.28488  -1.18681  -1.15739
 Alpha  occ. eigenvalues --   -1.13391  -1.12280  -1.11571  -1.11064  -1.09813
 Alpha  occ. eigenvalues --   -1.08657  -1.08367  -1.05657  -1.05366  -1.01662
 Alpha  occ. eigenvalues --   -1.01389  -1.01058  -0.99774  -0.98725  -0.97498
 Alpha  occ. eigenvalues --   -0.97238  -0.97015  -0.93344  -0.90117  -0.88113
 Alpha  occ. eigenvalues --   -0.86373  -0.84824  -0.84133  -0.83206  -0.82668
 Alpha  occ. eigenvalues --   -0.82467  -0.78033  -0.77453  -0.75442  -0.74978
 Alpha  occ. eigenvalues --   -0.73732  -0.73336  -0.72518  -0.71564  -0.70835
 Alpha  occ. eigenvalues --   -0.67562  -0.67279  -0.66775  -0.65736  -0.64664
 Alpha  occ. eigenvalues --   -0.64622  -0.63286  -0.63241  -0.62705  -0.61930
 Alpha  occ. eigenvalues --   -0.61428  -0.61055  -0.60841  -0.59980  -0.59072
 Alpha  occ. eigenvalues --   -0.58944  -0.58783  -0.58379  -0.57093  -0.56133
 Alpha  occ. eigenvalues --   -0.55796  -0.55590  -0.55103  -0.54713  -0.54483
 Alpha  occ. eigenvalues --   -0.54258  -0.53976  -0.53342  -0.53219  -0.52999
 Alpha  occ. eigenvalues --   -0.52521  -0.52119  -0.51272  -0.50855  -0.50540
 Alpha  occ. eigenvalues --   -0.50407  -0.50062  -0.49484  -0.49414  -0.49170
 Alpha  occ. eigenvalues --   -0.48741  -0.48646  -0.48064  -0.47476  -0.47422
 Alpha  occ. eigenvalues --   -0.47060  -0.45952  -0.45160  -0.44921  -0.42546
 Alpha  occ. eigenvalues --   -0.41291  -0.40985  -0.38832  -0.38276  -0.38055
 Alpha  occ. eigenvalues --   -0.37891  -0.37299  -0.36942  -0.35538  -0.35085
 Alpha  occ. eigenvalues --   -0.34573  -0.34223  -0.33847  -0.33598  -0.33122
 Alpha  occ. eigenvalues --   -0.33047  -0.32434  -0.31988  -0.31212  -0.31102
 Alpha  occ. eigenvalues --   -0.30719  -0.30307  -0.27109  -0.24915
 Alpha virt. eigenvalues --    0.03159   0.04464   0.06395   0.07167   0.08499
 Alpha virt. eigenvalues --    0.09001   0.09407   0.09982   0.10867   0.12676
 Alpha virt. eigenvalues --    0.13111   0.13330   0.14020   0.14525   0.14698

 Mulliken charges:
               1
     1  N   -0.294943
     2  C    0.190264
     3  C    0.055629
     4  N   -0.249072
     5  C    0.147240
     6  H    0.026832
     7  N   -0.280936
     8  C    0.123926
     9  H   -0.000644
    10  N   -0.266985
    11  C    0.223565
    12  C    0.075037
    13  N   -0.054806
    14  H    0.113977
    15  H    0.085284
    16  H    0.026576
    17  H    0.034783
    18  H    0.001365
    19  N   -0.298897
    20  C    0.231282
    21  C    0.180179
    22  N   -0.102320
    23  H    0.120503
    24  H    0.119610
    25  N   -0.273924
    26  C    0.186764
    27  N   -0.112221
    28  H    0.119706
    29  C    0.178065
    30  O   -0.318486
    31  C    0.000103
    32  N   -0.210694
    33  C    0.095318
    34  H    0.025169
    35  H    0.006790
    36  H    0.036617
    37  H    0.028890
    38  H    0.042166
    39  H    0.042244
    40  H    0.071657
    41  H    0.021027
    42  C   -0.100949
    43  O   -0.271991
    44  C    0.175311
    45  H    0.130526
    46  N   -0.117654
    47  O   -0.343466
    48  C    0.316937
    49  H    0.046109
    50  C    0.153887
    51  C    0.073852
    52  N   -0.270927
    53  H    0.037586
    54  H    0.043055
    55  H    0.031031
    56  H    0.123909
    57  H    0.120101
    58  N   -0.061342
    59  C    0.108451
    60  C    0.212142
    61  N   -0.278151
    62  H    0.032068
    63  C    0.168202
    64  N   -0.308379
    65  H    0.040045
    66  C    0.139324
    67  N   -0.256234
    68  C    0.041118
    69  C    0.179504
    70  N   -0.310703
 Sum of Mulliken charges =  -0.00000

 Dipole moment (field-independent basis, Debye):
    X=             -5.6291    Y=              7.6480    Z=             -2.3288  Tot=              9.7776
 Quadrupole moment (field-independent basis, Debye-Ang):
   XX=           -147.5993   YY=           -232.9812   ZZ=           -255.5897
   XY=             -3.5000   XZ=            -10.9198   YZ=             16.7780

 Normal termination of Gaussian 16 at Thu Jan 18 20:27:20 2018.
