 Gaussian 16, Revision A.03,
 Gaussian 16:  EM64L-G16RevA.03 25-Dec-2016

 ---------------------------------------
 #p wb97xd/cc-pvdz sp scf=(maxcycles=20)
 ---------------------------------------

 ------------------
 Base pair stacking
 ------------------
 Symbolic Z-matrix:
 Charge =  0 Multiplicity = 1

                         Standard orientation:
 ---------------------------------------------------------------------
 Center     Atomic      Atomic             Coordinates (Angstroms)
 Number     Number       Type             X           Y           Z
 ---------------------------------------------------------------------
      1          7           0       -5.747107   -1.488709    0.719578
      2          6           0       -7.045216   -1.007050    1.230394
      3          6           0       -3.593629   -1.811191    0.410019
      4          7           0       -4.243412   -2.615897   -0.514630
      5          6           0       -5.514796   -2.389400   -0.291127
      6          1           0       -6.333498   -2.856651   -0.839164
      7          7           0       -1.921634   -0.729118    1.673546
      8          6           0       -2.916702   -0.124561    2.330751
      9          1           0       -2.605178    0.563634    3.115352
     10          7           0       -4.232633   -0.241918    2.165038
     11          6           0       -4.507386   -1.110447    1.177833
     12          6           0       -2.230859   -1.597353    0.685800
     13          7           0       -1.238946   -2.201839    0.028621
     14          1           0       -1.421401   -2.851984   -0.709788
     15          1           0       -0.280176   -2.025528    0.251829
     16          1           0       -7.577440   -1.780755    1.574354
     17          1           0       -6.891147   -0.354043    1.971311
     18          1           0       -7.550394   -0.558772    0.492950
     19          7           0       -4.420979    1.748897   -0.834063
     20          6           0       -3.068372    1.898890   -0.644334
     21          6           0       -5.470205    2.544379   -0.165453
     22          7           0       -0.408511    3.507823    0.904287
     23          1           0        0.589720    3.455436    0.898405
     24          1           0       -0.823302    4.194642    1.501736
     25          7           0       -2.475317    2.791008    0.178142
     26          6           0       -1.158074    2.694035    0.145462
     27          7           0       -0.472138    1.793027   -0.632473
     28          1           0        0.535555    1.790085   -0.593744
     29          6           0       -1.061699    0.865900   -1.486133
     30          8           0       -0.351183    0.096715   -2.145120
     31          6           0       -2.476545    0.958001   -1.461813
     32          7           0       -3.438262    0.231918   -2.150888
     33          6           0       -4.573544    0.734679   -1.747697
     34          1           0       -5.555279    0.401526   -2.086059
     35          1           0       -6.063465    1.938833    0.363854
     36          1           0       -5.042815    3.208646    0.446393
     37          1           0       -6.013558    3.026481   -0.851851
     38          1           0        5.493215    1.849270    0.533580
     39          1           0        5.605573    2.802228   -0.944224
     40          1           0        4.156852    2.897526    0.057505
     41          1           0        5.193925   -1.625612   -2.780364
     42          6           0        4.564660   -0.856539   -2.332269
     43          8           0        2.533499   -1.810226   -3.101682
     44          6           0        3.144503   -0.934081   -2.490246
     45          1           0        1.436136    0.067663   -1.974175
     46          7           0        2.442239    0.088209   -1.884430
     47          8           0        2.256763    1.996769   -0.667802
     48          6           0        2.961149    1.137659   -1.168246
     49          1           0        6.174201    0.259687   -1.490110
     50          6           0        5.100348    0.155060   -1.639219
     51          6           0        4.938041    2.245294   -0.303683
     52          7           0        4.337921    1.142886   -1.060196
     53          1           0        5.454446    0.938860    4.017377
     54          1           0        4.178596    1.712244    3.356949
     55          1           0        5.670117    1.911395    2.724671
     56          1           0        2.081329   -3.477310   -0.900446
     57          1           0        3.766966   -3.503521   -0.639620
     58          7           0        2.882542   -3.070942   -0.461050
     59          6           0        2.777352   -1.999814    0.328120
     60          6           0        3.604831   -0.286104    1.756469
     61          7           0        2.404174    0.273917    1.978381
     62          1           0        0.443159    0.002809    1.447803
     63          6           0        1.452434   -0.386885    1.322307
     64          7           0        1.555778   -1.459907    0.531404
     65          1           0        6.805134   -0.678470    1.993648
     66          6           0        5.745027   -0.763571    1.753106
     67          7           0        5.228964   -1.683070    0.974730
     68          6           0        3.872550   -1.391831    0.968294
     69          6           0        5.048902    1.260962    3.161936
     70          7           0        4.819242    0.115062    2.260722
 ---------------------------------------------------------------------

 SCF Done:  E(RwB97XD) =  -2048.75241707     A.U. after   15 cycles

 The electronic state is 1-A.
 Alpha  occ. eigenvalues --  -19.25556 -19.21663 -19.20642 -14.52278 -14.52197
 Alpha  occ. eigenvalues --  -14.49230 -14.48790 -14.47559 -14.47081 -14.46894
 Alpha  occ. eigenvalues --  -14.46636 -14.45078 -14.43820 -14.43683 -14.42562
 Alpha  occ. eigenvalues --  -14.41975 -14.41657 -14.41326 -14.40862 -14.40625
 Alpha  occ. eigenvalues --  -10.45193 -10.41210 -10.39853 -10.39223 -10.38264
 Alpha  occ. eigenvalues --  -10.37680 -10.37380 -10.36822 -10.35805 -10.35344
 Alpha  occ. eigenvalues --  -10.35325 -10.34383 -10.34345 -10.33942 -10.33769
 Alpha  occ. eigenvalues --  -10.33465 -10.33354 -10.32164 -10.31691 -10.30874
 Alpha  occ. eigenvalues --  -10.30594 -10.28866 -10.28108  -1.19184  -1.14903
 Alpha  occ. eigenvalues --   -1.13194  -1.12788  -1.11748  -1.10587  -1.09100
 Alpha  occ. eigenvalues --   -1.08638  -1.08549  -1.05410  -1.04136  -1.02273
 Alpha  occ. eigenvalues --   -1.00796  -1.00604  -0.99711  -0.98511  -0.97358
 Alpha  occ. eigenvalues --   -0.96569  -0.96236  -0.93061  -0.90683  -0.87290
 Alpha  occ. eigenvalues --   -0.85695  -0.84401  -0.84093  -0.83614  -0.82825
 Alpha  occ. eigenvalues --   -0.82470  -0.78578  -0.76543  -0.74632  -0.74332
 Alpha  occ. eigenvalues --   -0.73602  -0.73289  -0.73112  -0.71426  -0.69891
 Alpha  occ. eigenvalues --   -0.67364  -0.66698  -0.66294  -0.66225  -0.64344
 Alpha  occ. eigenvalues --   -0.63727  -0.63684  -0.63082  -0.62600  -0.61739
 Alpha  occ. eigenvalues --   -0.61316  -0.60664  -0.60010  -0.59227  -0.59047
 Alpha  occ. eigenvalues --   -0.58368  -0.58311  -0.57539  -0.56953  -0.56193
 Alpha  occ. eigenvalues --   -0.55798  -0.55758  -0.55050  -0.54820  -0.54172
 Alpha  occ. eigenvalues --   -0.53691  -0.53560  -0.53248  -0.52913  -0.52551
 Alpha  occ. eigenvalues --   -0.52422  -0.52317  -0.52254  -0.51207  -0.50654
 Alpha  occ. eigenvalues --   -0.50128  -0.49780  -0.49363  -0.49179  -0.49150
 Alpha  occ. eigenvalues --   -0.48744  -0.48322  -0.48061  -0.47499  -0.47335
 Alpha  occ. eigenvalues --   -0.47296  -0.46019  -0.45193  -0.44097  -0.43136
 Alpha  occ. eigenvalues --   -0.41483  -0.40285  -0.39204  -0.37519  -0.37462
 Alpha  occ. eigenvalues --   -0.37205  -0.37156  -0.37022  -0.36041  -0.34369
 Alpha  occ. eigenvalues --   -0.34275  -0.33955  -0.33635  -0.33599  -0.33015
 Alpha  occ. eigenvalues --   -0.32610  -0.32259  -0.31859  -0.31547  -0.31293
 Alpha  occ. eigenvalues --   -0.30793  -0.29174  -0.26252  -0.25347
 Alpha virt. eigenvalues --    0.03453   0.04384   0.07433   0.07560   0.08508
 Alpha virt. eigenvalues --    0.09137   0.09751   0.10560   0.10748   0.12136
 Alpha virt. eigenvalues --    0.13312   0.13505   0.13934   0.14428   0.14916

 Mulliken charges:
               1
     1  N   -0.306900
     2  C    0.177255
     3  C    0.058825
     4  N   -0.242663
     5  C    0.122273
     6  H    0.025722
     7  N   -0.290049
     8  C    0.137268
     9  H    0.011956
    10  N   -0.288220
    11  C    0.227627
    12  C    0.089195
    13  N   -0.042876
    14  H    0.112774
    15  H    0.088358
    16  H    0.029436
    17  H    0.037030
    18  H    0.020373
    19  N   -0.298257
    20  C    0.253343
    21  C    0.185620
    22  N   -0.121489
    23  H    0.117645
    24  H    0.118127
    25  N   -0.307502
    26  C    0.241185
    27  N   -0.144039
    28  H    0.118965
    29  C    0.185857
    30  O   -0.325598
    31  C   -0.020422
    32  N   -0.214395
    33  C    0.122839
    34  H    0.017990
    35  H    0.017026
    36  H    0.031577
    37  H    0.022405
    38  H    0.038693
    39  H    0.061766
    40  H    0.076996
    41  H    0.022927
    42  C   -0.092913
    43  O   -0.275933
    44  C    0.154345
    45  H    0.132636
    46  N   -0.109991
    47  O   -0.343920
    48  C    0.337108
    49  H    0.042055
    50  C    0.174992
    51  C    0.045574
    52  N   -0.275859
    53  H    0.035068
    54  H    0.042568
    55  H    0.017530
    56  H    0.125638
    57  H    0.117070
    58  N   -0.038882
    59  C    0.081324
    60  C    0.225266
    61  N   -0.263805
    62  H    0.029380
    63  C    0.156719
    64  N   -0.296238
    65  H    0.033701
    66  C    0.113744
    67  N   -0.248285
    68  C    0.035088
    69  C    0.180091
    70  N   -0.302715
 Sum of Mulliken charges =  -0.00000

 Dipole moment (field-independent basis, Debye):
    X=              5.2422    Y=              5.3741    Z=              5.2544  Tot=              9.1635
 Quadrupole moment (field-independent basis, Debye-Ang):
   XX=           -145.8067   YY=           -224.8809   ZZ=           -260.0036
   XY=              9.6676   XZ=              8.8471   YZ=              4.6396

 Normal termination of Gaussian 16 at Fri Jan 19 06:56:44 2018.
