 Gaussian 16, Revision A.03,
 Gaussian 16:  EM64L-G16RevA.03 25-Dec-2016

 ---------------------------------------
 #p wb97xd/cc-pvdz sp scf=(maxcycles=20)
 ---------------------------------------

 ------------------
 Base pair stacking
 ------------------
 Symbolic Z-matrix:
 Charge =  0 Multiplicity = 1

                         Standard orientation:
 ---------------------------------------------------------------------
 Center     Atomic      Atomic             Coordinates (Angstroms)
 Number     Number       Type             X           Y           Z
 ---------------------------------------------------------------------
      1          7           0        4.872396   -0.729181   -1.632653
      2          6           0        6.174011   -0.034557   -1.668663
      3          6           0        2.716989   -1.162950   -1.574259
      4          7           0        3.359974   -2.392210   -1.589336
      5          6           0        4.632784   -2.081681   -1.623913
      6          1           0        5.447393   -2.806217   -1.644449
      7          7           0        1.054409    0.509484   -1.532678
      8          6           0        2.054094    1.396843   -1.560943
      9          1           0        1.748301    2.442177   -1.554573
     10          7           0        3.368620    1.187790   -1.595742
     11          6           0        3.636173   -0.128574   -1.600628
     12          6           0        1.356427   -0.807260   -1.538482
     13          7           0        0.359907   -1.694573   -1.510301
     14          1           0        0.536973   -2.679384   -1.513333
     15          1           0       -0.597106   -1.405350   -1.485204
     16          1           0        6.669236   -0.294430   -2.497752
     17          1           0        6.025332    0.953889   -1.666394
     18          1           0        6.713167   -0.290668   -0.866349
     19          7           0        5.304691    0.739526    0.995267
     20          6           0        3.952310    0.982682    0.992734
     21          6           0        6.347938    1.713776    0.616898
     22          7           0        1.284568    3.136530    0.439701
     23          1           0        0.287553    3.107995    0.505849
     24          1           0        1.694637    3.996524    0.134807
     25          7           0        3.354123    2.143131    0.646954
     26          6           0        2.038648    2.069967    0.745870
     27          7           0        1.359033    0.947206    1.152131
     28          1           0        0.352236    0.982096    1.198080
     29          6           0        1.953955   -0.257756    1.512675
     30          8           0        1.248946   -1.211450    1.865037
     31          6           0        3.366978   -0.194547    1.411458
     32          7           0        4.332462   -1.157390    1.671628
     33          6           0        5.463562   -0.559751    1.411536
     34          1           0        6.446548   -1.022266    1.506929
     35          1           0        6.872017    1.359785   -0.156947
     36          1           0        5.916708    2.577309    0.358800
     37          1           0        6.960267    1.866769    1.391789
     38          1           0       -4.659094    1.598253    0.598361
     39          1           0       -4.622833    1.877819    2.337672
     40          1           0       -3.240588    2.336726    1.342598
     41          1           0       -4.325240   -2.922368    2.210541
     42          6           0       -3.687236   -2.051907    2.057320
     43          8           0       -1.662867   -3.278711    2.212316
     44          6           0       -2.265817   -2.217446    2.054305
     45          1           0       -0.544796   -1.130235    1.843675
     46          7           0       -1.552138   -1.053357    1.852307
     47          8           0       -1.346945    1.178965    1.489214
     48          6           0       -2.061099    0.206667    1.660386
     49          1           0       -5.287722   -0.656267    1.866353
     50          6           0       -4.213380   -0.835472    1.872763
     51          6           0       -4.029547    1.611471    1.475614
     52          7           0       -3.439794    0.284991    1.676537
     53          1           0       -6.312366    3.409979   -1.522976
     54          1           0       -4.993427    3.423170   -0.562600
     55          1           0       -6.460652    3.091139    0.070694
     56          1           0       -2.980271   -3.218065   -1.701305
     57          1           0       -4.671697   -3.031261   -1.820767
     58          7           0       -3.776913   -2.615280   -1.654840
     59          6           0       -3.652657   -1.314419   -1.383744
     60          6           0       -4.452793    0.896202   -1.016764
     61          7           0       -3.238547    1.427503   -0.798219
     62          1           0       -1.276061    0.840064   -0.733596
     63          6           0       -2.295350    0.492913   -0.897312
     64          7           0       -2.417775   -0.810505   -1.168760
     65          1           0       -7.670076    0.830401   -1.328025
     66          6           0       -6.608101    0.588254   -1.277932
     67          7           0       -6.106483   -0.607220   -1.470009
     68          6           0       -4.740681   -0.426007   -1.307284
     69          6           0       -5.874377    2.982383   -0.732197
     70          7           0       -5.664032    1.546272   -0.999283
 ---------------------------------------------------------------------

 SCF Done:  E(RwB97XD) =  -2048.64013359     A.U. after   16 cycles

 The electronic state is 1-A.
 Alpha  occ. eigenvalues --  -19.24968 -19.21165 -19.20771 -14.53139 -14.51432
 Alpha  occ. eigenvalues --  -14.49371 -14.49045 -14.48571 -14.47057 -14.46491
 Alpha  occ. eigenvalues --  -14.46475 -14.45871 -14.44697 -14.44358 -14.42986
 Alpha  occ. eigenvalues --  -14.41593 -14.41492 -14.41481 -14.40987 -14.40839
 Alpha  occ. eigenvalues --  -10.44609 -10.40751 -10.40468 -10.39281 -10.38465
 Alpha  occ. eigenvalues --  -10.38315 -10.37664 -10.36924 -10.36149 -10.35896
 Alpha  occ. eigenvalues --  -10.34733 -10.34444 -10.34269 -10.33990 -10.33665
 Alpha  occ. eigenvalues --  -10.33185 -10.33168 -10.32630 -10.31619 -10.31221
 Alpha  occ. eigenvalues --  -10.30160 -10.28693 -10.28495  -1.18821  -1.16139
 Alpha  occ. eigenvalues --   -1.13509  -1.12216  -1.11687  -1.10973  -1.09864
 Alpha  occ. eigenvalues --   -1.08852  -1.08421  -1.05606  -1.05482  -1.01760
 Alpha  occ. eigenvalues --   -1.01623  -1.01159  -0.99805  -0.98670  -0.97640
 Alpha  occ. eigenvalues --   -0.97474  -0.96873  -0.93314  -0.90079  -0.88348
 Alpha  occ. eigenvalues --   -0.86681  -0.85408  -0.83859  -0.83680  -0.82638
 Alpha  occ. eigenvalues --   -0.82391  -0.78025  -0.77683  -0.75652  -0.74986
 Alpha  occ. eigenvalues --   -0.74007  -0.73260  -0.72539  -0.71632  -0.71038
 Alpha  occ. eigenvalues --   -0.67742  -0.67561  -0.66773  -0.65808  -0.64871
 Alpha  occ. eigenvalues --   -0.64652  -0.63587  -0.63387  -0.62682  -0.62277
 Alpha  occ. eigenvalues --   -0.61925  -0.61496  -0.61097  -0.60271  -0.59565
 Alpha  occ. eigenvalues --   -0.59058  -0.58775  -0.58413  -0.57457  -0.56610
 Alpha  occ. eigenvalues --   -0.56102  -0.55614  -0.55544  -0.54707  -0.54429
 Alpha  occ. eigenvalues --   -0.54219  -0.54023  -0.53526  -0.53158  -0.52975
 Alpha  occ. eigenvalues --   -0.52333  -0.51871  -0.51332  -0.51275  -0.50607
 Alpha  occ. eigenvalues --   -0.50372  -0.49767  -0.49447  -0.49344  -0.49109
 Alpha  occ. eigenvalues --   -0.48536  -0.48413  -0.48003  -0.47798  -0.47501
 Alpha  occ. eigenvalues --   -0.46964  -0.46137  -0.44804  -0.44362  -0.42194
 Alpha  occ. eigenvalues --   -0.41067  -0.40919  -0.38935  -0.38472  -0.38054
 Alpha  occ. eigenvalues --   -0.37612  -0.37202  -0.36349  -0.35628  -0.35092
 Alpha  occ. eigenvalues --   -0.34790  -0.34187  -0.34035  -0.33578  -0.33032
 Alpha  occ. eigenvalues --   -0.32788  -0.32373  -0.31990  -0.31338  -0.31035
 Alpha  occ. eigenvalues --   -0.30149  -0.29736  -0.27444  -0.23963
 Alpha virt. eigenvalues --    0.03301   0.04049   0.05524   0.06318   0.07671
 Alpha virt. eigenvalues --    0.09158   0.09909   0.10003   0.12056   0.12718
 Alpha virt. eigenvalues --    0.12787   0.13179   0.14113   0.14466   0.15383

 Mulliken charges:
               1
     1  N   -0.294930
     2  C    0.199448
     3  C    0.074592
     4  N   -0.251821
     5  C    0.139312
     6  H    0.024931
     7  N   -0.276034
     8  C    0.142867
     9  H   -0.000023
    10  N   -0.258439
    11  C    0.209986
    12  C    0.058477
    13  N   -0.051153
    14  H    0.110495
    15  H    0.083433
    16  H    0.025363
    17  H    0.030307
    18  H   -0.000197
    19  N   -0.292850
    20  C    0.210649
    21  C    0.182679
    22  N   -0.084869
    23  H    0.121527
    24  H    0.121730
    25  N   -0.228112
    26  C    0.096099
    27  N   -0.084630
    28  H    0.119598
    29  C    0.162061
    30  O   -0.317591
    31  C    0.021581
    32  N   -0.208070
    33  C    0.098153
    34  H    0.027113
    35  H    0.001915
    36  H    0.037546
    37  H    0.022266
    38  H    0.017498
    39  H    0.032873
    40  H    0.079107
    41  H    0.023578
    42  C   -0.102961
    43  O   -0.270194
    44  C    0.174831
    45  H    0.128926
    46  N   -0.110049
    47  O   -0.342761
    48  C    0.305767
    49  H    0.045024
    50  C    0.160655
    51  C    0.091903
    52  N   -0.274331
    53  H    0.036757
    54  H    0.045532
    55  H    0.032742
    56  H    0.123598
    57  H    0.121236
    58  N   -0.062306
    59  C    0.116802
    60  C    0.216822
    61  N   -0.289188
    62  H    0.017997
    63  C    0.184333
    64  N   -0.308355
    65  H    0.039109
    66  C    0.133487
    67  N   -0.252388
    68  C    0.047254
    69  C    0.182540
    70  N   -0.319244
 Sum of Mulliken charges =  -0.00000

 Dipole moment (field-independent basis, Debye):
    X=             -5.4411    Y=              7.5506    Z=             -3.2448  Tot=              9.8562
 Quadrupole moment (field-independent basis, Debye-Ang):
   XX=           -147.5091   YY=           -234.0900   ZZ=           -257.7391
   XY=             -5.3302   XZ=             -7.3759   YZ=             17.3572

 Normal termination of Gaussian 16 at Fri Jan 19 04:30:22 2018.
