 Gaussian 16, Revision A.03,
 Gaussian 16:  EM64L-G16RevA.03 25-Dec-2016

 ---------------------------------------
 #p wb97xd/cc-pvdz sp scf=(maxcycles=20)
 ---------------------------------------

 ------------------
 Base pair stacking
 ------------------
 Symbolic Z-matrix:
 Charge =  0 Multiplicity = 1

                         Standard orientation:
 ---------------------------------------------------------------------
 Center     Atomic      Atomic             Coordinates (Angstroms)
 Number     Number       Type             X           Y           Z
 ---------------------------------------------------------------------
      1          7           0       -6.000639    0.937222   -0.824997
      2          6           0       -7.286139    0.214620   -0.882837
      3          6           0       -3.859728    1.436388   -0.893117
      4          7           0       -4.521504    2.609911   -0.562006
      5          6           0       -5.784831    2.262205   -0.534220
      6          1           0       -6.609079    2.938331   -0.305238
      7          7           0       -2.174183   -0.132080   -1.404764
      8          6           0       -3.155475   -1.031483   -1.530130
      9          1           0       -2.832908   -2.038025   -1.792995
     10          7           0       -4.469219   -0.874950   -1.380255
     11          6           0       -4.758284    0.396763   -1.058367
     12          6           0       -2.497606    1.138778   -1.080117
     13          7           0       -1.519458    2.038019   -0.954506
     14          1           0       -1.712703    2.990253   -0.715488
     15          1           0       -0.560692    1.790682   -1.094967
     16          1           0       -7.874190    0.632639   -1.575406
     17          1           0       -7.121147   -0.742157   -1.120496
     18          1           0       -7.737858    0.261895    0.008068
     19          7           0       -4.157537   -1.230689    1.256880
     20          6           0       -2.809713   -1.410496    1.059190
     21          6           0       -5.219245   -2.138138    0.777267
     22          7           0       -0.182585   -3.272684   -0.241652
     23          1           0        0.815015   -3.218136   -0.274338
     24          1           0       -0.608922   -4.058930   -0.689720
     25          7           0       -2.233429   -2.438086    0.398899
     26          6           0       -0.916522   -2.334140    0.375091
     27          7           0       -0.215662   -1.303492    0.953086
     28          1           0        0.790510   -1.305768    0.885431
     29          6           0       -0.787834   -0.235711    1.637445
     30          8           0       -0.064774    0.643430    2.122234
     31          6           0       -2.202111   -0.333533    1.671384
     32          7           0       -3.149421    0.505506    2.241927
     33          6           0       -4.291858   -0.065363    1.971457
     34          1           0       -5.266135    0.322645    2.270627
     35          1           0       -5.831471   -1.642053    0.162540
     36          1           0       -4.804309   -2.903213    0.286584
     37          1           0       -5.739647   -2.486118    1.556289
     38          1           0        5.714983   -1.562494   -0.354084
     39          1           0        5.875580   -2.225620    1.270447
     40          1           0        4.400122   -2.507328    0.345773
     41          1           0        5.483242    2.464497    2.268175
     42          6           0        4.847302    1.624598    1.988204
     43          8           0        2.831585    2.700044    2.626467
     44          6           0        3.431593    1.727196    2.170038
     45          1           0        1.716789    0.643937    1.897379
     46          7           0        2.720122    0.609149    1.783991
     47          8           0        2.514567   -1.491785    0.946721
     48          6           0        3.226402   -0.553579    1.259322
     49          1           0        6.440731    0.375131    1.320644
     50          6           0        5.370740    0.503387    1.478773
     51          6           0        5.186349   -1.798022    0.557583
     52          7           0        4.599618   -0.575958    1.114425
     53          1           0        5.197517   -2.651320   -2.816741
     54          1           0        3.992966   -2.934180   -1.753198
     55          1           0        5.515154   -2.691468   -1.216458
     56          1           0        1.752566    3.703528   -1.139347
     57          1           0        3.423461    3.618911   -1.472573
     58          7           0        2.559723    3.139407   -1.313720
     59          6           0        2.488519    1.806845   -1.333729
     60          6           0        3.362155   -0.394483   -1.563188
     61          7           0        2.188738   -1.011387   -1.346487
     62          1           0        0.235535   -0.535682   -0.947316
     63          6           0        1.224428   -0.118493   -1.132570
     64          7           0        1.293729    1.216552   -1.112112
     65          1           0        6.523879   -0.126547   -2.182764
     66          6           0        5.469893    0.053729   -1.969325
     67          7           0        4.929669    1.239885   -1.831914
     68          6           0        3.593459    0.970031   -1.574077
     69          6           0        4.842125   -2.430276   -1.908538
     70          7           0        4.578935   -0.980876   -1.819285
 ---------------------------------------------------------------------

 SCF Done:  E(RwB97XD) =  -2048.66106274     A.U. after   15 cycles

 The electronic state is 1-A.
 Alpha  occ. eigenvalues --  -19.25123 -19.21499 -19.20617 -14.52498 -14.52026
 Alpha  occ. eigenvalues --  -14.49854 -14.48269 -14.47709 -14.47358 -14.46775
 Alpha  occ. eigenvalues --  -14.46622 -14.45645 -14.44141 -14.44058 -14.43173
 Alpha  occ. eigenvalues --  -14.42264 -14.41778 -14.41199 -14.40627 -14.40511
 Alpha  occ. eigenvalues --  -10.44759 -10.41135 -10.39622 -10.39605 -10.38151
 Alpha  occ. eigenvalues --  -10.38151 -10.37304 -10.37170 -10.36249 -10.35263
 Alpha  occ. eigenvalues --  -10.34891 -10.34660 -10.34151 -10.33945 -10.33918
 Alpha  occ. eigenvalues --  -10.33424 -10.33007 -10.32652 -10.32300 -10.30515
 Alpha  occ. eigenvalues --  -10.29664 -10.29265 -10.27823  -1.19175  -1.15517
 Alpha  occ. eigenvalues --   -1.13229  -1.12536  -1.12326  -1.10379  -1.09319
 Alpha  occ. eigenvalues --   -1.08746  -1.08521  -1.05802  -1.04622  -1.02166
 Alpha  occ. eigenvalues --   -1.01393  -1.01308  -0.99689  -0.98521  -0.97951
 Alpha  occ. eigenvalues --   -0.96720  -0.96277  -0.93426  -0.90691  -0.88294
 Alpha  occ. eigenvalues --   -0.86650  -0.84967  -0.83814  -0.83399  -0.83339
 Alpha  occ. eigenvalues --   -0.81869  -0.78491  -0.77123  -0.75062  -0.74384
 Alpha  occ. eigenvalues --   -0.73862  -0.73552  -0.73139  -0.71853  -0.70476
 Alpha  occ. eigenvalues --   -0.67315  -0.67199  -0.66967  -0.66369  -0.65145
 Alpha  occ. eigenvalues --   -0.64433  -0.63834  -0.63546  -0.62805  -0.62494
 Alpha  occ. eigenvalues --   -0.61630  -0.61222  -0.60617  -0.59722  -0.59379
 Alpha  occ. eigenvalues --   -0.58717  -0.58227  -0.57696  -0.57488  -0.56719
 Alpha  occ. eigenvalues --   -0.56195  -0.56124  -0.55319  -0.54632  -0.54489
 Alpha  occ. eigenvalues --   -0.53983  -0.53765  -0.53353  -0.53033  -0.52893
 Alpha  occ. eigenvalues --   -0.52507  -0.51907  -0.51372  -0.50953  -0.50608
 Alpha  occ. eigenvalues --   -0.50034  -0.49607  -0.49438  -0.49067  -0.48931
 Alpha  occ. eigenvalues --   -0.48744  -0.48277  -0.48043  -0.48000  -0.47174
 Alpha  occ. eigenvalues --   -0.46633  -0.45935  -0.45474  -0.44078  -0.42488
 Alpha  occ. eigenvalues --   -0.41785  -0.40724  -0.39212  -0.38061  -0.37736
 Alpha  occ. eigenvalues --   -0.37580  -0.37202  -0.36803  -0.36150  -0.34777
 Alpha  occ. eigenvalues --   -0.34275  -0.34221  -0.33840  -0.33359  -0.32819
 Alpha  occ. eigenvalues --   -0.32544  -0.32364  -0.31659  -0.31637  -0.31065
 Alpha  occ. eigenvalues --   -0.30478  -0.28999  -0.26487  -0.25357
 Alpha virt. eigenvalues --    0.03229   0.04282   0.06714   0.06914   0.08455
 Alpha virt. eigenvalues --    0.08748   0.09664   0.10524   0.11027   0.12376
 Alpha virt. eigenvalues --    0.13273   0.13771   0.14069   0.14280   0.14761

 Mulliken charges:
               1
     1  N   -0.309272
     2  C    0.178878
     3  C    0.071995
     4  N   -0.249346
     5  C    0.124708
     6  H    0.028061
     7  N   -0.279712
     8  C    0.149743
     9  H    0.013451
    10  N   -0.298268
    11  C    0.222055
    12  C    0.079278
    13  N   -0.045693
    14  H    0.108942
    15  H    0.088127
    16  H    0.028579
    17  H    0.052461
    18  H    0.021507
    19  N   -0.277160
    20  C    0.198348
    21  C    0.232038
    22  N   -0.101145
    23  H    0.114748
    24  H    0.115917
    25  N   -0.296390
    26  C    0.216230
    27  N   -0.140191
    28  H    0.124809
    29  C    0.169947
    30  O   -0.321482
    31  C    0.010552
    32  N   -0.216491
    33  C    0.118855
    34  H    0.016070
    35  H   -0.021786
    36  H    0.025660
    37  H    0.012251
    38  H    0.037987
    39  H    0.051043
    40  H    0.062890
    41  H    0.027267
    42  C   -0.101013
    43  O   -0.267218
    44  C    0.173120
    45  H    0.131667
    46  N   -0.120995
    47  O   -0.323481
    48  C    0.321524
    49  H    0.041126
    50  C    0.169191
    51  C    0.057110
    52  N   -0.271823
    53  H    0.025520
    54  H    0.041268
    55  H    0.023766
    56  H    0.121838
    57  H    0.120521
    58  N   -0.063600
    59  C    0.117613
    60  C    0.190542
    61  N   -0.242883
    62  H    0.043225
    63  C    0.134024
    64  N   -0.300189
    65  H    0.039896
    66  C    0.114783
    67  N   -0.240568
    68  C    0.044670
    69  C    0.181246
    70  N   -0.306343
 Sum of Mulliken charges =  -0.00000

 Dipole moment (field-independent basis, Debye):
    X=              4.8436    Y=             -6.1002    Z=             -5.2512  Tot=              9.3940
 Quadrupole moment (field-independent basis, Debye-Ang):
   XX=           -146.7196   YY=           -226.9205   ZZ=           -264.1076
   XY=            -13.5067   XZ=             -7.3174   YZ=             -9.6004

 Normal termination of Gaussian 16 at Fri Jan 19 02:49:15 2018.
