 Gaussian 16, Revision A.03,
 Gaussian 16:  EM64L-G16RevA.03 25-Dec-2016

 ---------------------------------------
 #p wb97xd/cc-pvdz sp scf=(maxcycles=20)
 ---------------------------------------

 ------------------
 Base pair stacking
 ------------------
 Symbolic Z-matrix:
 Charge =  0 Multiplicity = 1

                         Standard orientation:
 ---------------------------------------------------------------------
 Center     Atomic      Atomic             Coordinates (Angstroms)
 Number     Number       Type             X           Y           Z
 ---------------------------------------------------------------------
      1          7           0        6.026035   -1.149441   -0.762043
      2          6           0        7.319468   -0.502472   -1.056113
      3          6           0        3.878004   -1.607310   -0.645221
      4          7           0        4.530498   -2.633996    0.021782
      5          6           0        5.798498   -2.317060   -0.075296
      6          1           0        6.617971   -2.904716    0.339513
      7          7           0        2.203810   -0.242081   -1.591882
      8          6           0        3.194162    0.557794   -2.000527
      9          1           0        2.879880    1.440527   -2.555739
     10          7           0        4.508279    0.431536   -1.827132
     11          6           0        4.786728   -0.684793   -1.133816
     12          6           0        2.516676   -1.357365   -0.896653
     13          7           0        1.529474   -2.157064   -0.487869
     14          1           0        1.714741   -2.993148    0.029675
     15          1           0        0.571595   -1.947826   -0.684895
     16          1           0        7.889526   -1.123342   -1.594385
     17          1           0        7.162519    0.337865   -1.574119
     18          1           0        7.786496   -0.281890   -0.199834
     19          7           0        4.126750    1.548168    1.172201
     20          6           0        2.777088    1.703915    0.966782
     21          6           0        5.179207    2.438472    0.642672
     22          7           0        0.130967    3.467235   -0.429816
     23          1           0       -0.866081    3.401343   -0.458217
     24          1           0        0.549283    4.232091   -0.920457
     25          7           0        2.190321    2.688534    0.252438
     26          6           0        0.874478    2.570705    0.236006
     27          7           0        0.184125    1.566215    0.869996
     28          1           0       -0.822068    1.555083    0.803610
     29          6           0        0.767184    0.542749    1.610554
     30          8           0        0.053085   -0.315738    2.143274
     31          6           0        2.180464    0.655954    1.637307
     32          7           0        3.136335   -0.141674    2.251327
     33          6           0        4.272948    0.424705    1.948804
     34          1           0        5.251189    0.062949    2.267340
     35          1           0        5.795766    1.915700    0.054994
     36          1           0        4.756478    3.171733    0.111731
     37          1           0        5.696801    2.833248    1.400993
     38          1           0       -5.749750    1.696472   -0.441662
     39          1           0       -5.915560    2.445221    1.144694
     40          1           0       -4.443619    2.690578    0.204188
     41          1           0       -5.476837   -2.179804    2.395002
     42          6           0       -4.849321   -1.350222    2.069034
     43          8           0       -2.822729   -2.369883    2.762134
     44          6           0       -3.432529   -1.429091    2.254345
     45          1           0       -1.728568   -0.345685    1.921080
     46          7           0       -2.732265   -0.326820    1.807267
     47          8           0       -2.547814    1.727453    0.856933
     48          6           0       -3.250251    0.800756    1.220919
     49          1           0       -6.455335   -0.154315    1.336704
     50          6           0       -5.384025   -0.263438    1.500187
     51          6           0       -5.222746    1.986240    0.455208
     52          7           0       -4.623727    0.801952    1.076791
     53          1           0       -5.159139    1.852314   -3.612442
     54          1           0       -3.932091    2.426674   -2.703288
     55          1           0       -5.447373    2.387587   -2.097909
     56          1           0       -1.766478   -3.740479   -0.108735
     57          1           0       -3.441879   -3.732623   -0.429772
     58          7           0       -2.569322   -3.242919   -0.437375
     59          6           0       -2.481386   -1.982377   -0.866901
     60          6           0       -3.330651    0.057263   -1.750267
     61          7           0       -2.145690    0.689959   -1.749147
     62          1           0       -0.191894    0.325224   -1.248887
     63          6           0       -1.189238   -0.111058   -1.283894
     64          7           0       -1.275317   -1.373864   -0.853209
     65          1           0       -6.506198   -0.331794   -2.215765
     66          6           0       -5.450942   -0.456504   -1.971161
     67          7           0       -4.923619   -1.552543   -1.482991
     68          6           0       -3.579628   -1.240327   -1.338210
     69          6           0       -4.790323    1.914582   -2.685035
     70          7           0       -4.544209    0.558182   -2.158121
 ---------------------------------------------------------------------

 SCF Done:  E(RwB97XD) =  -2048.74839461     A.U. after   15 cycles

 The electronic state is 1-A.
 Alpha  occ. eigenvalues --  -19.25430 -19.21665 -19.20569 -14.52258 -14.52228
 Alpha  occ. eigenvalues --  -14.49612 -14.48520 -14.47486 -14.47304 -14.46776
 Alpha  occ. eigenvalues --  -14.46490 -14.45151 -14.43832 -14.43722 -14.42901
 Alpha  occ. eigenvalues --  -14.42075 -14.41828 -14.41600 -14.40821 -14.40641
 Alpha  occ. eigenvalues --  -10.45115 -10.41077 -10.39770 -10.39328 -10.38136
 Alpha  occ. eigenvalues --  -10.37704 -10.37385 -10.36839 -10.36111 -10.35403
 Alpha  occ. eigenvalues --  -10.35298 -10.34768 -10.34107 -10.34086 -10.33975
 Alpha  occ. eigenvalues --  -10.33668 -10.33135 -10.32242 -10.31956 -10.30569
 Alpha  occ. eigenvalues --  -10.30344 -10.29201 -10.27902  -1.19148  -1.14955
 Alpha  occ. eigenvalues --   -1.13086  -1.12686  -1.12122  -1.10397  -1.09107
 Alpha  occ. eigenvalues --   -1.08658  -1.08427  -1.05692  -1.04201  -1.02218
 Alpha  occ. eigenvalues --   -1.01134  -1.00693  -0.99570  -0.98373  -0.97720
 Alpha  occ. eigenvalues --   -0.96330  -0.96285  -0.93343  -0.90675  -0.87410
 Alpha  occ. eigenvalues --   -0.85838  -0.84720  -0.83865  -0.83681  -0.83121
 Alpha  occ. eigenvalues --   -0.82137  -0.78560  -0.76632  -0.74540  -0.74319
 Alpha  occ. eigenvalues --   -0.73609  -0.73460  -0.73088  -0.71731  -0.70005
 Alpha  occ. eigenvalues --   -0.67206  -0.67021  -0.66380  -0.66220  -0.64297
 Alpha  occ. eigenvalues --   -0.63861  -0.63611  -0.63387  -0.62496  -0.61946
 Alpha  occ. eigenvalues --   -0.61573  -0.60948  -0.60156  -0.59233  -0.59189
 Alpha  occ. eigenvalues --   -0.58218  -0.57817  -0.57797  -0.57254  -0.56256
 Alpha  occ. eigenvalues --   -0.56000  -0.55687  -0.55214  -0.54889  -0.54116
 Alpha  occ. eigenvalues --   -0.53808  -0.53381  -0.53186  -0.52738  -0.52563
 Alpha  occ. eigenvalues --   -0.52524  -0.52344  -0.51961  -0.51396  -0.50922
 Alpha  occ. eigenvalues --   -0.49918  -0.49885  -0.49304  -0.49234  -0.49004
 Alpha  occ. eigenvalues --   -0.48523  -0.48477  -0.48107  -0.47658  -0.47243
 Alpha  occ. eigenvalues --   -0.47179  -0.45804  -0.45463  -0.44217  -0.42975
 Alpha  occ. eigenvalues --   -0.41832  -0.40328  -0.39150  -0.37822  -0.37442
 Alpha  occ. eigenvalues --   -0.37177  -0.37090  -0.37025  -0.35962  -0.34509
 Alpha  occ. eigenvalues --   -0.34254  -0.34109  -0.33799  -0.33697  -0.32927
 Alpha  occ. eigenvalues --   -0.32495  -0.32245  -0.31702  -0.31538  -0.31383
 Alpha  occ. eigenvalues --   -0.31098  -0.29195  -0.26439  -0.25318
 Alpha virt. eigenvalues --    0.03355   0.04474   0.07198   0.07269   0.08679
 Alpha virt. eigenvalues --    0.08938   0.09868   0.10434   0.10861   0.12325
 Alpha virt. eigenvalues --    0.13326   0.13441   0.13988   0.14493   0.14879

 Mulliken charges:
               1
     1  N   -0.308572
     2  C    0.176272
     3  C    0.060936
     4  N   -0.246641
     5  C    0.123535
     6  H    0.027785
     7  N   -0.282680
     8  C    0.136631
     9  H    0.012646
    10  N   -0.287822
    11  C    0.226142
    12  C    0.087765
    13  N   -0.042724
    14  H    0.111083
    15  H    0.089846
    16  H    0.030483
    17  H    0.040777
    18  H    0.022035
    19  N   -0.289586
    20  C    0.239679
    21  C    0.190924
    22  N   -0.114150
    23  H    0.116153
    24  H    0.116820
    25  N   -0.301025
    26  C    0.225633
    27  N   -0.142487
    28  H    0.124382
    29  C    0.175788
    30  O   -0.324130
    31  C   -0.011642
    32  N   -0.217067
    33  C    0.122946
    34  H    0.018610
    35  H    0.008863
    36  H    0.029914
    37  H    0.019925
    38  H    0.039301
    39  H    0.061814
    40  H    0.075676
    41  H    0.025575
    42  C   -0.091842
    43  O   -0.270500
    44  C    0.162890
    45  H    0.133669
    46  N   -0.119795
    47  O   -0.337232
    48  C    0.332711
    49  H    0.041469
    50  C    0.170794
    51  C    0.043711
    52  N   -0.275288
    53  H    0.035684
    54  H    0.041679
    55  H    0.011288
    56  H    0.123311
    57  H    0.119430
    58  N   -0.049123
    59  C    0.106027
    60  C    0.215385
    61  N   -0.257538
    62  H    0.038235
    63  C    0.144631
    64  N   -0.300588
    65  H    0.034285
    66  C    0.111230
    67  N   -0.243686
    68  C    0.029417
    69  C    0.178856
    70  N   -0.298522
 Sum of Mulliken charges =  -0.00000

 Dipole moment (field-independent basis, Debye):
    X=             -5.0206    Y=              5.6516    Z=             -4.9818  Tot=              9.0535
 Quadrupole moment (field-independent basis, Debye-Ang):
   XX=           -145.5235   YY=           -224.5196   ZZ=           -262.1297
   XY=            -12.2972   XZ=             10.0469   YZ=              2.6561

 Normal termination of Gaussian 16 at Fri Jan 19 07:09:25 2018.
