 Gaussian 16, Revision A.03,
 Gaussian 16:  EM64L-G16RevA.03 25-Dec-2016

 ---------------------------------------
 #p wb97xd/cc-pvdz sp scf=(maxcycles=20)
 ---------------------------------------

 ------------------
 Base pair stacking
 ------------------
 Symbolic Z-matrix:
 Charge =  0 Multiplicity = 1

                         Standard orientation:
 ---------------------------------------------------------------------
 Center     Atomic      Atomic             Coordinates (Angstroms)
 Number     Number       Type             X           Y           Z
 ---------------------------------------------------------------------
      1          7           0        4.837121   -1.440358   -1.473033
      2          6           0        6.129799   -0.892755   -1.928129
      3          6           0        2.690263   -1.741272   -1.101860
      4          7           0        3.342532   -2.800380   -0.487399
      5          6           0        4.609831   -2.576700   -0.735616
      6          1           0        5.428948   -3.214260   -0.401679
      7          7           0        1.016789   -0.276247   -1.886787
      8          6           0        2.006531    0.443552   -2.425193
      9          1           0        1.692311    1.336832   -2.963318
     10          7           0        3.319973    0.226600   -2.398785
     11          6           0        3.598402   -0.894695   -1.713511
     12          6           0        1.329612   -1.398923   -1.203551
     13          7           0        0.343022   -2.118774   -0.665374
     14          1           0        0.528277   -2.956949   -0.151208
     15          1           0       -0.614387   -1.844955   -0.757741
     16          1           0        6.589955   -1.562002   -2.511685
     17          1           0        5.972846   -0.052388   -2.446073
     18          1           0        6.706241   -0.691443   -1.136174
     19          7           0        5.330084    1.163571    0.799201
     20          6           0        3.980363    1.416817    0.752553
     21          6           0        6.380195    2.020423    0.212887
     22          7           0        1.330712    3.432618   -0.236205
     23          1           0        0.334058    3.431138   -0.159297
     24          1           0        1.747137    4.201472   -0.722186
     25          7           0        3.391426    2.482394    0.167963
     26          6           0        2.076159    2.448261    0.288456
     27          7           0        1.388328    1.448040    0.931838
     28          1           0        0.382389    1.504228    0.975376
     29          6           0        1.973656    0.342223    1.540464
     30          8           0        1.261741   -0.504272    2.094867
     31          6           0        3.386341    0.364954    1.419272
     32          7           0        4.343865   -0.530634    1.875323
     33          6           0        5.478885   -0.017010    1.485301
     34          1           0        6.457749   -0.459895    1.672275
     35          1           0        6.893819    1.501366   -0.469447
     36          1           0        5.955842    2.813017   -0.222982
     37          1           0        7.000776    2.329676    0.932644
     38          1           0       -4.627190    2.037061    0.287666
     39          1           0       -4.572967    2.685122    1.925265
     40          1           0       -3.194624    2.901552    0.846046
     41          1           0       -4.326906   -2.032536    2.836154
     42          6           0       -3.681153   -1.223483    2.494597
     43          8           0       -1.668520   -2.412328    2.898434
     44          6           0       -2.261629   -1.402996    2.518642
     45          1           0       -0.531165   -0.407850    2.067520
     46          7           0       -1.537538   -0.318713    2.065567
     47          8           0       -1.312052    1.779894    1.227596
     48          6           0       -2.034869    0.876224    1.609155
     49          1           0       -5.268470    0.117290    2.016557
     50          6           0       -4.196067   -0.069310    2.054892
     51          6           0       -3.989980    2.231757    1.137445
     52          7           0       -3.412480    0.972888    1.616509
     53          1           0       -6.367074    2.304532   -3.111752
     54          1           0       -5.006950    2.805180   -2.362410
     55          1           0       -6.441699    2.885050   -1.588323
     56          1           0       -2.989057   -3.455533    0.124950
     57          1           0       -4.685676   -3.333343   -0.004146
     58          7           0       -3.788020   -2.907533   -0.123015
     59          6           0       -3.663099   -1.664105   -0.591474
     60          6           0       -4.465209    0.415567   -1.424125
     61          7           0       -3.247097    0.961781   -1.573373
     62          1           0       -1.278673    0.466850   -1.288817
     63          6           0       -2.301194    0.102507   -1.199472
     64          7           0       -2.424288   -1.143306   -0.730014
     65          1           0       -7.692461    0.246775   -1.516567
     66          6           0       -6.627253    0.051102   -1.390121
     67          7           0       -6.124355   -1.071290   -0.937338
     68          6           0       -4.754291   -0.853597   -0.953825
     69          6           0       -5.890729    2.356197   -2.234016
     70          7           0       -5.680044    0.994944   -1.704287
 ---------------------------------------------------------------------

 SCF Done:  E(RwB97XD) =  -2048.74993396     A.U. after   15 cycles

 The electronic state is 1-A.
 Alpha  occ. eigenvalues --  -19.25253 -19.21583 -19.20691 -14.52725 -14.51764
 Alpha  occ. eigenvalues --  -14.49244 -14.48913 -14.48129 -14.47188 -14.46800
 Alpha  occ. eigenvalues --  -14.46664 -14.45535 -14.44559 -14.44521 -14.42732
 Alpha  occ. eigenvalues --  -14.41950 -14.41355 -14.41321 -14.41246 -14.40821
 Alpha  occ. eigenvalues --  -10.44831 -10.41194 -10.40082 -10.39616 -10.38323
 Alpha  occ. eigenvalues --  -10.38114 -10.37388 -10.37019 -10.36080 -10.35855
 Alpha  occ. eigenvalues --  -10.34572 -10.34355 -10.34197 -10.34088 -10.33796
 Alpha  occ. eigenvalues --  -10.33629 -10.33507 -10.32848 -10.31482 -10.31465
 Alpha  occ. eigenvalues --  -10.30373 -10.28747 -10.28369  -1.18839  -1.15455
 Alpha  occ. eigenvalues --   -1.13297  -1.12554  -1.11476  -1.10896  -1.09512
 Alpha  occ. eigenvalues --   -1.08686  -1.08547  -1.05480  -1.04970  -1.01885
 Alpha  occ. eigenvalues --   -1.01147  -1.00824  -0.99738  -0.98641  -0.97224
 Alpha  occ. eigenvalues --   -0.97011  -0.96872  -0.93158  -0.90360  -0.87847
 Alpha  occ. eigenvalues --   -0.86138  -0.84549  -0.84116  -0.83061  -0.82872
 Alpha  occ. eigenvalues --   -0.82597  -0.78224  -0.77204  -0.75059  -0.74854
 Alpha  occ. eigenvalues --   -0.73674  -0.73199  -0.72742  -0.71383  -0.70545
 Alpha  occ. eigenvalues --   -0.67494  -0.66943  -0.66621  -0.65945  -0.64492
 Alpha  occ. eigenvalues --   -0.64367  -0.63473  -0.63062  -0.62666  -0.61873
 Alpha  occ. eigenvalues --   -0.61167  -0.60785  -0.60558  -0.59701  -0.58922
 Alpha  occ. eigenvalues --   -0.58776  -0.58422  -0.58207  -0.56907  -0.55901
 Alpha  occ. eigenvalues --   -0.55715  -0.55598  -0.55455  -0.54285  -0.54179
 Alpha  occ. eigenvalues --   -0.54053  -0.53808  -0.53406  -0.53099  -0.53059
 Alpha  occ. eigenvalues --   -0.52993  -0.52088  -0.51718  -0.50762  -0.50593
 Alpha  occ. eigenvalues --   -0.50321  -0.50187  -0.49297  -0.49229  -0.49037
 Alpha  occ. eigenvalues --   -0.48754  -0.48347  -0.48255  -0.47943  -0.47278
 Alpha  occ. eigenvalues --   -0.47197  -0.46037  -0.45249  -0.44933  -0.42825
 Alpha  occ. eigenvalues --   -0.41362  -0.40874  -0.38957  -0.37982  -0.37707
 Alpha  occ. eigenvalues --   -0.37553  -0.37307  -0.37127  -0.35863  -0.34779
 Alpha  occ. eigenvalues --   -0.34470  -0.34164  -0.33766  -0.33628  -0.33035
 Alpha  occ. eigenvalues --   -0.32757  -0.32581  -0.31948  -0.31242  -0.31048
 Alpha  occ. eigenvalues --   -0.30746  -0.30240  -0.26809  -0.24929
 Alpha virt. eigenvalues --    0.03689   0.03852   0.06747   0.07328   0.08462
 Alpha virt. eigenvalues --    0.09124   0.09780   0.10250   0.11011   0.12433
 Alpha virt. eigenvalues --    0.13228   0.13248   0.14125   0.14574   0.14820

 Mulliken charges:
               1
     1  N   -0.298558
     2  C    0.182816
     3  C    0.057906
     4  N   -0.244830
     5  C    0.143382
     6  H    0.025151
     7  N   -0.287353
     8  C    0.126110
     9  H    0.008103
    10  N   -0.276191
    11  C    0.229590
    12  C    0.072969
    13  N   -0.047733
    14  H    0.115242
    15  H    0.085498
    16  H    0.027493
    17  H    0.036038
    18  H    0.008740
    19  N   -0.302168
    20  C    0.250582
    21  C    0.186728
    22  N   -0.119681
    23  H    0.119183
    24  H    0.118973
    25  N   -0.297493
    26  C    0.229483
    27  N   -0.131643
    28  H    0.121086
    29  C    0.179176
    30  O   -0.320124
    31  C   -0.008904
    32  N   -0.212185
    33  C    0.104037
    34  H    0.022396
    35  H    0.005682
    36  H    0.034807
    37  H    0.026859
    38  H    0.038469
    39  H    0.053176
    40  H    0.076321
    41  H    0.018936
    42  C   -0.102334
    43  O   -0.274249
    44  C    0.171105
    45  H    0.128694
    46  N   -0.111334
    47  O   -0.348151
    48  C    0.326022
    49  H    0.044910
    50  C    0.162888
    51  C    0.055448
    52  N   -0.272355
    53  H    0.037397
    54  H    0.041825
    55  H    0.029934
    56  H    0.126245
    57  H    0.118191
    58  N   -0.054491
    59  C    0.096595
    60  C    0.208154
    61  N   -0.262147
    62  H    0.026889
    63  C    0.168298
    64  N   -0.306062
    65  H    0.038209
    66  C    0.133811
    67  N   -0.255021
    68  C    0.043668
    69  C    0.177058
    70  N   -0.307271
 Sum of Mulliken charges =  -0.00000

 Dipole moment (field-independent basis, Debye):
    X=             -5.4551    Y=              6.6731    Z=             -4.0664  Tot=              9.5302
 Quadrupole moment (field-independent basis, Debye-Ang):
   XX=           -147.5360   YY=           -224.7437   ZZ=           -261.6123
   XY=             -8.6880   XZ=             -5.2732   YZ=              5.2534

 Normal termination of Gaussian 16 at Thu Jan 18 16:20:00 2018.
