 Gaussian 16, Revision A.03,
 Gaussian 16:  EM64L-G16RevA.03 25-Dec-2016

 ---------------------------------------
 #p wb97xd/cc-pvdz sp scf=(maxcycles=20)
 ---------------------------------------

 ------------------
 Base pair stacking
 ------------------
 Symbolic Z-matrix:
 Charge =  0 Multiplicity = 1

                         Standard orientation:
 ---------------------------------------------------------------------
 Center     Atomic      Atomic             Coordinates (Angstroms)
 Number     Number       Type             X           Y           Z
 ---------------------------------------------------------------------
      1          7           0       -6.270474    0.881438   -0.650759
      2          6           0       -7.548005    0.143332   -0.684149
      3          6           0       -4.138035    1.407725   -0.764889
      4          7           0       -4.806258    2.570464   -0.409566
      5          6           0       -6.064225    2.206853   -0.355025
      6          1           0       -6.891131    2.870971   -0.101795
      7          7           0       -2.445766   -0.135844   -1.327520
      8          6           0       -3.418593   -1.046469   -1.436845
      9          1           0       -3.089920   -2.046961   -1.714774
     10          7           0       -4.730304   -0.907406   -1.255244
     11          6           0       -5.027368    0.358222   -0.917069
     12          6           0       -2.777101    1.128481   -0.985794
     13          7           0       -1.807404    2.038896   -0.876159
     14          1           0       -2.006695    2.986878   -0.625486
     15          1           0       -0.849216    1.804555   -1.040770
     16          1           0       -8.157154    0.559030   -1.359651
     17          1           0       -7.376859   -0.809558   -0.932834
     18          1           0       -7.979328    0.178461    0.217367
     19          7           0       -3.864118   -1.304925    1.315983
     20          6           0       -2.519174   -1.466479    1.085617
     21          6           0       -4.925517   -2.221996    0.854326
     22          7           0        0.099518   -3.286244   -0.290117
     23          1           0        1.095337   -3.219035   -0.345597
     24          1           0       -0.327484   -4.074439   -0.734104
     25          7           0       -1.945897   -2.481960    0.404310
     26          6           0       -0.631284   -2.361439    0.350656
     27          7           0        0.070177   -1.326389    0.919991
     28          1           0        1.074448   -1.315643    0.828915
     29          6           0       -0.498928   -0.270855    1.625561
     30          8           0        0.224418    0.613664    2.100051
     31          6           0       -1.910708   -0.386530    1.691663
     32          7           0       -2.854663    0.436453    2.290452
     33          6           0       -3.996009   -0.146613    2.042319
     34          1           0       -4.967725    0.227039    2.367028
     35          1           0       -5.557986   -1.729107    0.257806
     36          1           0       -4.512794   -2.978239    0.348339
     37          1           0       -5.423259   -2.582119    1.642592
     38          1           0        5.971396   -1.501943   -0.526790
     39          1           0        6.178039   -2.174857    1.088489
     40          1           0        4.684952   -2.468169    0.196286
     41          1           0        5.751541    2.502589    2.130651
     42          6           0        5.119597    1.656900    1.859188
     43          8           0        3.106284    2.702468    2.552345
     44          6           0        3.707371    1.740524    2.074695
     45          1           0        2.000100    0.638007    1.833804
     46          7           0        3.000851    0.616547    1.696834
     47          8           0        2.801622   -1.480611    0.848648
     48          6           0        3.508987   -0.535917    1.151712
     49          1           0        6.712221    0.432290    1.145256
     50          6           0        5.644720    0.546055    1.329221
     51          6           0        5.467138   -1.750683    0.395126
     52          7           0        4.878614   -0.540129    0.974728
     53          1           0        4.921332   -2.552679   -2.929775
     54          1           0        3.745513   -2.858279   -1.840657
     55          1           0        5.276741   -2.600548   -1.337662
     56          1           0        1.438700    3.746350   -1.124459
     57          1           0        3.102266    3.684991   -1.497116
     58          7           0        2.248432    3.193609   -1.321842
     59          6           0        2.193155    1.860445   -1.350305
     60          6           0        3.088165   -0.328094   -1.616741
     61          7           0        1.927797   -0.961126   -1.377485
     62          1           0       -0.021228   -0.512730   -0.929364
     63          6           0        0.957855   -0.081909   -1.134403
     64          7           0        1.011211    1.253712   -1.105442
     65          1           0        6.231021   -0.016279   -2.307690
     66          6           0        5.180173    0.149296   -2.068408
     67          7           0        4.628780    1.327587   -1.909467
     68          6           0        3.302382    1.039241   -1.622649
     69          6           0        4.584557   -2.342715   -2.011888
     70          7           0        4.305740   -0.897397   -1.905533
 ---------------------------------------------------------------------

 SCF Done:  E(RwB97XD) =  -2048.66258151     A.U. after   15 cycles

 The electronic state is 1-A.
 Alpha  occ. eigenvalues --  -19.25387 -19.21678 -19.20518 -14.52293 -14.52222
 Alpha  occ. eigenvalues --  -14.50101 -14.48159 -14.47569 -14.47544 -14.46501
 Alpha  occ. eigenvalues --  -14.46223 -14.45247 -14.43799 -14.43726 -14.43263
 Alpha  occ. eigenvalues --  -14.42536 -14.41639 -14.41537 -14.40954 -14.40416
 Alpha  occ. eigenvalues --  -10.45074 -10.40883 -10.39773 -10.39430 -10.37970
 Alpha  occ. eigenvalues --  -10.37769 -10.37494 -10.36840 -10.36417 -10.35442
 Alpha  occ. eigenvalues --  -10.35175 -10.35000 -10.34377 -10.33843 -10.33642
 Alpha  occ. eigenvalues --  -10.33311 -10.32971 -10.32360 -10.32291 -10.30695
 Alpha  occ. eigenvalues --  -10.29611 -10.28926 -10.27639  -1.19378  -1.15036
 Alpha  occ. eigenvalues --   -1.13126  -1.12703  -1.12583  -1.10321  -1.09344
 Alpha  occ. eigenvalues --   -1.08685  -1.08339  -1.06041  -1.04364  -1.02331
 Alpha  occ. eigenvalues --   -1.01676  -1.00848  -0.99430  -0.98375  -0.98151
 Alpha  occ. eigenvalues --   -0.96417  -0.96116  -0.93720  -0.90939  -0.87933
 Alpha  occ. eigenvalues --   -0.86339  -0.85176  -0.83701  -0.83631  -0.83445
 Alpha  occ. eigenvalues --   -0.81588  -0.78710  -0.76803  -0.74799  -0.74249
 Alpha  occ. eigenvalues --   -0.74019  -0.73474  -0.73275  -0.72129  -0.70197
 Alpha  occ. eigenvalues --   -0.67454  -0.67071  -0.66771  -0.66266  -0.65230
 Alpha  occ. eigenvalues --   -0.64104  -0.63838  -0.63505  -0.62720  -0.62308
 Alpha  occ. eigenvalues --   -0.61485  -0.61254  -0.60520  -0.59514  -0.59425
 Alpha  occ. eigenvalues --   -0.58662  -0.57979  -0.57681  -0.57347  -0.56829
 Alpha  occ. eigenvalues --   -0.56396  -0.56201  -0.55237  -0.54953  -0.54714
 Alpha  occ. eigenvalues --   -0.54079  -0.53616  -0.53366  -0.53079  -0.52727
 Alpha  occ. eigenvalues --   -0.52366  -0.51983  -0.51554  -0.50801  -0.50663
 Alpha  occ. eigenvalues --   -0.50183  -0.49541  -0.49368  -0.49093  -0.48755
 Alpha  occ. eigenvalues --   -0.48637  -0.48255  -0.48117  -0.47859  -0.47138
 Alpha  occ. eigenvalues --   -0.46938  -0.45852  -0.45227  -0.44063  -0.42723
 Alpha  occ. eigenvalues --   -0.41718  -0.40527  -0.39350  -0.38162  -0.37514
 Alpha  occ. eigenvalues --   -0.37364  -0.37197  -0.36841  -0.35928  -0.34734
 Alpha  occ. eigenvalues --   -0.34450  -0.34209  -0.33790  -0.33250  -0.32891
 Alpha  occ. eigenvalues --   -0.32442  -0.32130  -0.31627  -0.31594  -0.31140
 Alpha  occ. eigenvalues --   -0.30902  -0.29066  -0.26747  -0.25049
 Alpha virt. eigenvalues --    0.02951   0.04641   0.06659   0.07110   0.08452
 Alpha virt. eigenvalues --    0.08817   0.09823   0.10285   0.11228   0.12131
 Alpha virt. eigenvalues --    0.13108   0.13365   0.14162   0.14356   0.14856

 Mulliken charges:
               1
     1  N   -0.312753
     2  C    0.176589
     3  C    0.064931
     4  N   -0.250528
     5  C    0.126557
     6  H    0.029508
     7  N   -0.272361
     8  C    0.137506
     9  H    0.017963
    10  N   -0.302082
    11  C    0.232020
    12  C    0.086126
    13  N   -0.043633
    14  H    0.108445
    15  H    0.089055
    16  H    0.030500
    17  H    0.045305
    18  H    0.024651
    19  N   -0.282420
    20  C    0.203221
    21  C    0.219373
    22  N   -0.097032
    23  H    0.113896
    24  H    0.113521
    25  N   -0.287497
    26  C    0.202108
    27  N   -0.145285
    28  H    0.134830
    29  C    0.158095
    30  O   -0.323201
    31  C    0.015991
    32  N   -0.219834
    33  C    0.120707
    34  H    0.019057
    35  H    0.010218
    36  H    0.021343
    37  H    0.005475
    38  H    0.023324
    39  H    0.057031
    40  H    0.062373
    41  H    0.028652
    42  C   -0.097749
    43  O   -0.266144
    44  C    0.177073
    45  H    0.132790
    46  N   -0.123556
    47  O   -0.327988
    48  C    0.324658
    49  H    0.042320
    50  C    0.167572
    51  C    0.071947
    52  N   -0.273225
    53  H    0.024071
    54  H    0.036569
    55  H    0.019455
    56  H    0.120865
    57  H    0.120758
    58  N   -0.063739
    59  C    0.123859
    60  C    0.200658
    61  N   -0.263951
    62  H    0.045646
    63  C    0.145349
    64  N   -0.306586
    65  H    0.040343
    66  C    0.111242
    67  N   -0.240647
    68  C    0.033427
    69  C    0.182125
    70  N   -0.298884
 Sum of Mulliken charges =  -0.00000

 Dipole moment (field-independent basis, Debye):
    X=              4.5789    Y=             -5.7228    Z=             -5.2715  Tot=              9.0280
 Quadrupole moment (field-independent basis, Debye-Ang):
   XX=           -144.3709   YY=           -227.3154   ZZ=           -263.6107
   XY=            -15.1880   XZ=             -9.7209   YZ=             -8.8345

 Normal termination of Gaussian 16 at Fri Jan 19 03:39:14 2018.
