 Gaussian 16, Revision A.03,
 Gaussian 16:  EM64L-G16RevA.03 25-Dec-2016

 ---------------------------------------
 #p wb97xd/cc-pvdz sp scf=(maxcycles=20)
 ---------------------------------------

 ------------------
 Base pair stacking
 ------------------
 Symbolic Z-matrix:
 Charge =  0 Multiplicity = 1

                         Standard orientation:
 ---------------------------------------------------------------------
 Center     Atomic      Atomic             Coordinates (Angstroms)
 Number     Number       Type             X           Y           Z
 ---------------------------------------------------------------------
      1          7           0        5.158288   -0.863935   -1.436415
      2          6           0        6.458643   -0.168528   -1.495537
      3          6           0        3.003198   -1.301575   -1.399542
      4          7           0        3.649451   -2.524737   -1.294796
      5          6           0        4.921943   -2.212114   -1.321199
      6          1           0        5.738620   -2.931948   -1.259447
      7          7           0        1.335894    0.360566   -1.542083
      8          6           0        2.333736    1.247237   -1.617641
      9          1           0        2.025253    2.287987   -1.706705
     10          7           0        3.649247    1.042265   -1.599776
     11          6           0        3.920151   -0.268634   -1.487625
     12          6           0        1.641275   -0.950624   -1.429895
     13          7           0        0.646586   -1.837236   -1.354343
     14          1           0        0.826159   -2.818014   -1.270436
     15          1           0       -0.311472   -1.551485   -1.379021
     16          1           0        6.976717   -0.494273   -2.286532
     17          1           0        6.307479    0.815941   -1.579747
     18          1           0        6.976607   -0.354289   -0.660542
     19          7           0        5.025865    0.870200    1.072179
     20          6           0        3.673439    1.105848    1.013281
     21          6           0        6.076486    1.814468    0.641778
     22          7           0        1.016186    3.193357    0.211401
     23          1           0        0.017811    3.165700    0.253076
     24          1           0        1.432153    4.026890   -0.153161
     25          7           0        3.081878    2.230573    0.556000
     26          6           0        1.764401    2.159642    0.625535
     27          7           0        1.076900    1.071444    1.105827
     28          1           0        0.069145    1.105249    1.121824
     29          6           0        1.664909   -0.096416    1.581438
     30          8           0        0.953056   -1.020765    1.993247
     31          6           0        3.079986   -0.035138    1.513036
     32          7           0        4.040519   -0.968329    1.878337
     33          6           0        5.176720   -0.389083    1.599545
     34          1           0        6.157933   -0.837341    1.759400
     35          1           0        6.622147    1.399691   -0.085558
     36          1           0        5.650204    2.651407    0.301078
     37          1           0        6.667292    2.034449    1.417256
     38          1           0       -4.925709    1.645382    0.339276
     39          1           0       -4.937105    2.069165    2.049521
     40          1           0       -3.529668    2.450074    1.056848
     41          1           0       -4.624099   -2.723444    2.331492
     42          6           0       -3.984388   -1.865754    2.123233
     43          8           0       -1.961854   -3.065709    2.434050
     44          6           0       -2.562992   -2.024202    2.171965
     45          1           0       -0.839657   -0.950156    1.917314
     46          7           0       -1.847057   -0.877617    1.892626
     47          8           0       -1.637764    1.317612    1.350068
     48          6           0       -2.353826    0.359581    1.582687
     49          1           0       -5.582647   -0.498538    1.773792
     50          6           0       -4.508422   -0.671460    1.823810
     51          6           0       -4.320103    1.734699    1.228841
     52          7           0       -3.732647    0.432413    1.555452
     53          1           0       -6.035753    3.216656   -1.971085
     54          1           0       -4.743242    3.316163   -0.980320
     55          1           0       -6.226188    3.031094   -0.360888
     56          1           0       -2.683366   -3.387227   -1.506572
     57          1           0       -4.371415   -3.219097   -1.686292
     58          7           0       -3.482485   -2.786474   -1.531851
     59          6           0       -3.368868   -1.466963   -1.367069
     60          6           0       -4.184182    0.762723   -1.207375
     61          7           0       -2.977618    1.316171   -1.001622
     62          1           0       -1.016126    0.745515   -0.835848
     63          6           0       -2.029738    0.381074   -0.997155
     64          7           0       -2.141510   -0.941005   -1.162026
     65          1           0       -7.391727    0.655878   -1.597787
     66          6           0       -6.330874    0.423805   -1.499348
     67          7           0       -5.821255   -0.781121   -1.577512
     68          6           0       -4.460806   -0.580456   -1.394095
     69          6           0       -5.618181    2.858580   -1.135976
     70          7           0       -5.397085    1.406211   -1.276542
 ---------------------------------------------------------------------

 SCF Done:  E(RwB97XD) =  -2048.65040170     A.U. after   15 cycles

 The electronic state is 1-A.
 Alpha  occ. eigenvalues --  -19.24859 -19.21239 -19.20661 -14.52968 -14.51475
 Alpha  occ. eigenvalues --  -14.49116 -14.49106 -14.48465 -14.47085 -14.46571
 Alpha  occ. eigenvalues --  -14.46336 -14.45843 -14.44813 -14.44441 -14.43159
 Alpha  occ. eigenvalues --  -14.41562 -14.41557 -14.41329 -14.40985 -14.40886
 Alpha  occ. eigenvalues --  -10.44539 -10.40744 -10.40377 -10.39349 -10.38438
 Alpha  occ. eigenvalues --  -10.38215 -10.37590 -10.36970 -10.36323 -10.36082
 Alpha  occ. eigenvalues --  -10.34782 -10.34342 -10.34254 -10.33845 -10.33673
 Alpha  occ. eigenvalues --  -10.33521 -10.33042 -10.32669 -10.31875 -10.30752
 Alpha  occ. eigenvalues --  -10.30291 -10.28690 -10.28365  -1.18826  -1.16198
 Alpha  occ. eigenvalues --   -1.13358  -1.12280  -1.11738  -1.10760  -1.09794
 Alpha  occ. eigenvalues --   -1.08722  -1.08462  -1.05736  -1.05321  -1.01937
 Alpha  occ. eigenvalues --   -1.01649  -1.01221  -0.99684  -0.98522  -0.97662
 Alpha  occ. eigenvalues --   -0.97365  -0.96704  -0.93454  -0.90175  -0.88317
 Alpha  occ. eigenvalues --   -0.86791  -0.85299  -0.83908  -0.83610  -0.82755
 Alpha  occ. eigenvalues --   -0.82240  -0.78107  -0.77619  -0.75474  -0.74799
 Alpha  occ. eigenvalues --   -0.73956  -0.73267  -0.72638  -0.71693  -0.71049
 Alpha  occ. eigenvalues --   -0.67651  -0.67441  -0.66833  -0.66040  -0.64831
 Alpha  occ. eigenvalues --   -0.64500  -0.64078  -0.63412  -0.62635  -0.62470
 Alpha  occ. eigenvalues --   -0.61822  -0.61485  -0.61038  -0.60208  -0.59418
 Alpha  occ. eigenvalues --   -0.59131  -0.58588  -0.58318  -0.57390  -0.56822
 Alpha  occ. eigenvalues --   -0.56090  -0.55632  -0.55457  -0.54894  -0.54297
 Alpha  occ. eigenvalues --   -0.54050  -0.53909  -0.53484  -0.53124  -0.52953
 Alpha  occ. eigenvalues --   -0.52365  -0.51939  -0.51357  -0.51275  -0.50545
 Alpha  occ. eigenvalues --   -0.50376  -0.49815  -0.49511  -0.49191  -0.48901
 Alpha  occ. eigenvalues --   -0.48437  -0.48032  -0.48017  -0.47803  -0.47528
 Alpha  occ. eigenvalues --   -0.46908  -0.46123  -0.44860  -0.44526  -0.42539
 Alpha  occ. eigenvalues --   -0.41304  -0.41138  -0.38832  -0.38025  -0.37899
 Alpha  occ. eigenvalues --   -0.37440  -0.37069  -0.36237  -0.35969  -0.35115
 Alpha  occ. eigenvalues --   -0.34963  -0.34515  -0.34190  -0.33582  -0.32916
 Alpha  occ. eigenvalues --   -0.32393  -0.32251  -0.31908  -0.31215  -0.31049
 Alpha  occ. eigenvalues --   -0.30300  -0.30104  -0.27144  -0.24184
 Alpha virt. eigenvalues --    0.02958   0.04277   0.06150   0.06410   0.07787
 Alpha virt. eigenvalues --    0.09299   0.09840   0.10164   0.11799   0.12829
 Alpha virt. eigenvalues --    0.12850   0.13287   0.14060   0.14510   0.15153

 Mulliken charges:
               1
     1  N   -0.297505
     2  C    0.196343
     3  C    0.085207
     4  N   -0.251223
     5  C    0.132488
     6  H    0.023863
     7  N   -0.275340
     8  C    0.135048
     9  H   -0.000460
    10  N   -0.261271
    11  C    0.207177
    12  C    0.058376
    13  N   -0.046484
    14  H    0.110629
    15  H    0.084321
    16  H    0.025415
    17  H    0.037900
    18  H    0.007572
    19  N   -0.283030
    20  C    0.209305
    21  C    0.194778
    22  N   -0.092186
    23  H    0.119817
    24  H    0.120157
    25  N   -0.245083
    26  C    0.136645
    27  N   -0.093269
    28  H    0.117816
    29  C    0.158233
    30  O   -0.318869
    31  C    0.023769
    32  N   -0.211050
    33  C    0.103465
    34  H    0.023621
    35  H   -0.017099
    36  H    0.035608
    37  H    0.020740
    38  H    0.045468
    39  H    0.040120
    40  H    0.082031
    41  H    0.024379
    42  C   -0.102207
    43  O   -0.269455
    44  C    0.171274
    45  H    0.128224
    46  N   -0.107976
    47  O   -0.341190
    48  C    0.315923
    49  H    0.044291
    50  C    0.165302
    51  C    0.045037
    52  N   -0.272216
    53  H    0.034155
    54  H    0.044350
    55  H    0.028912
    56  H    0.123663
    57  H    0.121116
    58  N   -0.061256
    59  C    0.109870
    60  C    0.186284
    61  N   -0.264270
    62  H    0.001522
    63  C    0.187755
    64  N   -0.300767
    65  H    0.037126
    66  C    0.124451
    67  N   -0.250142
    68  C    0.058761
    69  C    0.184755
    70  N   -0.310716
 Sum of Mulliken charges =  -0.00000

 Dipole moment (field-independent basis, Debye):
    X=             -5.2909    Y=              7.0900    Z=             -4.0813  Tot=              9.7426
 Quadrupole moment (field-independent basis, Debye-Ang):
   XX=           -148.0053   YY=           -231.1850   ZZ=           -260.6392
   XY=             -7.9024   XZ=             -3.2615   YZ=             14.9552

 Normal termination of Gaussian 16 at Fri Jan 19 03:52:36 2018.
