 Gaussian 16, Revision A.03,
 Gaussian 16:  EM64L-G16RevA.03 25-Dec-2016

 ---------------------------------------
 #p wb97xd/cc-pvdz sp scf=(maxcycles=20)
 ---------------------------------------

 ------------------
 Base pair stacking
 ------------------
 Symbolic Z-matrix:
 Charge =  0 Multiplicity = 1

                         Standard orientation:
 ---------------------------------------------------------------------
 Center     Atomic      Atomic             Coordinates (Angstroms)
 Number     Number       Type             X           Y           Z
 ---------------------------------------------------------------------
      1          7           0        4.830884   -1.739304   -1.225813
      2          6           0        6.119560   -1.317626   -1.808468
      3          6           0        2.687677   -1.936336   -0.772856
      4          7           0        3.344498   -2.828067    0.062680
      5          6           0        4.609418   -2.673675   -0.243655
      6          1           0        5.430836   -3.220777    0.219902
      7          7           0        1.008677   -0.684215   -1.857344
      8          6           0        1.993883   -0.112786   -2.557648
      9          1           0        1.675580    0.633629   -3.284164
     10          7           0        3.307067   -0.323942   -2.495541
     11          6           0        3.590731   -1.258083   -1.572855
     12          6           0        1.326708   -1.620316   -0.936670
     13          7           0        0.344666   -2.191865   -0.236610
     14          1           0        0.533859   -2.889577    0.455222
     15          1           0       -0.613123   -1.942266   -0.379715
     16          1           0        6.571699   -2.105647   -2.226517
     17          1           0        5.958631   -0.618769   -2.504764
     18          1           0        6.705284   -0.941653   -1.090437
     19          7           0        5.332926    1.328365    0.598868
     20          6           0        3.983784    1.575680    0.517077
     21          6           0        6.384321    2.087112   -0.107941
     22          7           0        1.337734    3.431823   -0.753715
     23          1           0        0.341192    3.444330   -0.676315
     24          1           0        1.755366    4.119950   -1.347668
     25          7           0        3.396649    2.545582   -0.216832
     26          6           0        2.081486    2.533057   -0.091170
     27          7           0        1.392104    1.639873    0.692718
     28          1           0        0.386378    1.704560    0.728657
     29          6           0        1.975565    0.633702    1.456313
     30          8           0        1.262350   -0.120395    2.129654
     31          6           0        3.388113    0.634592    1.331529
     32          7           0        4.344055   -0.187004    1.912938
     33          6           0        5.479790    0.260788    1.450548
     34          1           0        6.457815   -0.152535    1.699368
     35          1           0        6.895611    1.472208   -0.707337
     36          1           0        5.961311    2.808353   -0.654877
     37          1           0        7.006744    2.496921    0.557988
     38          1           0       -4.622863    2.144306   -0.024221
     39          1           0       -4.564571    3.025398    1.500542
     40          1           0       -3.187310    3.077464    0.399736
     41          1           0       -4.329014   -1.508295    3.093269
     42          6           0       -3.681729   -0.759836    2.636030
     43          8           0       -1.671494   -1.882029    3.207631
     44          6           0       -2.262638   -0.937713    2.684563
     45          1           0       -0.530350   -0.024180    2.090450
     46          7           0       -1.536489    0.066428    2.076555
     47          8           0       -1.306990    2.018821    0.939594
     48          6           0       -2.031507    1.182838    1.450361
     49          1           0       -5.266393    0.500613    1.968256
     50          6           0       -4.194405    0.318753    2.032356
     51          6           0       -3.983906    2.459810    0.787107
     52          7           0       -3.408858    1.283268    1.444982
     53          1           0       -6.382846    1.578776   -3.568070
     54          1           0       -5.013323    2.232489   -2.968757
     55          1           0       -6.439122    2.495608   -2.219116
     56          1           0       -2.981229   -3.294430    0.875630
     57          1           0       -4.678918   -3.197368    0.739485
     58          7           0       -3.781740   -2.814716    0.516182
     59          6           0       -3.659382   -1.713600   -0.227955
     60          6           0       -4.466267    0.121463   -1.509841
     61          7           0       -3.248726    0.612746   -1.793826
     62          1           0       -1.278316    0.187622   -1.423204
     63          6           0       -2.300552   -0.141456   -1.241515
     64          7           0       -2.421072   -1.244666   -0.495878
     65          1           0       -7.694713   -0.048949   -1.527212
     66          6           0       -6.628579   -0.215149   -1.370103
     67          7           0       -6.123072   -1.205076   -0.675697
     68          6           0       -4.752809   -1.003497   -0.756260
     69          6           0       -5.896566    1.829417   -2.730980
     70          7           0       -5.682920    0.626231   -1.903520
 ---------------------------------------------------------------------

 SCF Done:  E(RwB97XD) =  -2048.75078018     A.U. after   15 cycles

 The electronic state is 1-A.
 Alpha  occ. eigenvalues --  -19.25315 -19.21743 -19.20728 -14.52640 -14.51818
 Alpha  occ. eigenvalues --  -14.49257 -14.48816 -14.47981 -14.47264 -14.46885
 Alpha  occ. eigenvalues --  -14.46708 -14.45472 -14.44529 -14.44455 -14.42591
 Alpha  occ. eigenvalues --  -14.42043 -14.41358 -14.41242 -14.41123 -14.40722
 Alpha  occ. eigenvalues --  -10.44887 -10.41279 -10.39972 -10.39737 -10.38368
 Alpha  occ. eigenvalues --  -10.38055 -10.37332 -10.36996 -10.36015 -10.35747
 Alpha  occ. eigenvalues --  -10.34621 -10.34554 -10.34097 -10.33978 -10.33806
 Alpha  occ. eigenvalues --  -10.33536 -10.33422 -10.32781 -10.31476 -10.31382
 Alpha  occ. eigenvalues --  -10.30428 -10.28656 -10.28404  -1.18887  -1.15363
 Alpha  occ. eigenvalues --   -1.13340  -1.12694  -1.11376  -1.10921  -1.09439
 Alpha  occ. eigenvalues --   -1.08740  -1.08600  -1.05373  -1.04885  -1.01970
 Alpha  occ. eigenvalues --   -1.01059  -1.00709  -0.99796  -0.98695  -0.97128
 Alpha  occ. eigenvalues --   -0.96967  -0.96847  -0.93049  -0.90425  -0.87763
 Alpha  occ. eigenvalues --   -0.86044  -0.84518  -0.84064  -0.83102  -0.82896
 Alpha  occ. eigenvalues --   -0.82530  -0.78283  -0.77119  -0.74972  -0.74889
 Alpha  occ. eigenvalues --   -0.73725  -0.73095  -0.72815  -0.71280  -0.70458
 Alpha  occ. eigenvalues --   -0.67540  -0.66862  -0.66513  -0.65999  -0.64522
 Alpha  occ. eigenvalues --   -0.64269  -0.63543  -0.62946  -0.62712  -0.61920
 Alpha  occ. eigenvalues --   -0.60938  -0.60677  -0.60455  -0.59607  -0.58959
 Alpha  occ. eigenvalues --   -0.58811  -0.58445  -0.57953  -0.56796  -0.55855
 Alpha  occ. eigenvalues --   -0.55773  -0.55711  -0.55356  -0.54328  -0.54091
 Alpha  occ. eigenvalues --   -0.54036  -0.53744  -0.53492  -0.53153  -0.53097
 Alpha  occ. eigenvalues --   -0.52911  -0.51984  -0.51837  -0.50776  -0.50543
 Alpha  occ. eigenvalues --   -0.50371  -0.50106  -0.49390  -0.49134  -0.49064
 Alpha  occ. eigenvalues --   -0.48827  -0.48397  -0.48249  -0.47922  -0.47267
 Alpha  occ. eigenvalues --   -0.47177  -0.46037  -0.45255  -0.44909  -0.42847
 Alpha  occ. eigenvalues --   -0.41297  -0.40812  -0.39023  -0.37996  -0.37632
 Alpha  occ. eigenvalues --   -0.37478  -0.37352  -0.37165  -0.35888  -0.34702
 Alpha  occ. eigenvalues --   -0.34440  -0.34122  -0.33685  -0.33561  -0.33101
 Alpha  occ. eigenvalues --   -0.32799  -0.32596  -0.31964  -0.31214  -0.31032
 Alpha  occ. eigenvalues --   -0.30678  -0.30201  -0.26685  -0.24992
 Alpha virt. eigenvalues --    0.03611   0.03936   0.06852   0.07506   0.08546
 Alpha virt. eigenvalues --    0.09078   0.09748   0.10330   0.10970   0.12261
 Alpha virt. eigenvalues --    0.13205   0.13252   0.14171   0.14529   0.14874

 Mulliken charges:
               1
     1  N   -0.300711
     2  C    0.182890
     3  C    0.053219
     4  N   -0.243049
     5  C    0.143573
     6  H    0.024694
     7  N   -0.290343
     8  C    0.127929
     9  H    0.009223
    10  N   -0.280710
    11  C    0.233881
    12  C    0.075915
    13  N   -0.047586
    14  H    0.116268
    15  H    0.085866
    16  H    0.027146
    17  H    0.034862
    18  H    0.009829
    19  N   -0.304757
    20  C    0.254942
    21  C    0.185205
    22  N   -0.122820
    23  H    0.118831
    24  H    0.119132
    25  N   -0.304310
    26  C    0.241281
    27  N   -0.138044
    28  H    0.121349
    29  C    0.182612
    30  O   -0.320474
    31  C   -0.011810
    32  N   -0.212535
    33  C    0.105969
    34  H    0.021821
    35  H    0.011062
    36  H    0.034187
    37  H    0.026722
    38  H    0.042958
    39  H    0.054737
    40  H    0.076108
    41  H    0.017119
    42  C   -0.101124
    43  O   -0.275817
    44  C    0.170182
    45  H    0.128534
    46  N   -0.111119
    47  O   -0.349856
    48  C    0.330481
    49  H    0.044824
    50  C    0.164012
    51  C    0.051626
    52  N   -0.273486
    53  H    0.037052
    54  H    0.041774
    55  H    0.029004
    56  H    0.126469
    57  H    0.117409
    58  N   -0.052092
    59  C    0.090551
    60  C    0.215743
    61  N   -0.262728
    62  H    0.029198
    63  C    0.165694
    64  N   -0.304953
    65  H    0.038082
    66  C    0.133645
    67  N   -0.255755
    68  C    0.041643
    69  C    0.176863
    70  N   -0.308038
 Sum of Mulliken charges =  -0.00000

 Dipole moment (field-independent basis, Debye):
    X=             -5.4312    Y=              6.1246    Z=             -4.8375  Tot=              9.5084
 Quadrupole moment (field-independent basis, Debye-Ang):
   XX=           -147.3239   YY=           -224.2685   ZZ=           -261.0819
   XY=             -9.5173   XZ=             -3.3674   YZ=             -1.6636

 Normal termination of Gaussian 16 at Fri Jan 19 09:25:38 2018.
