 Gaussian 16, Revision A.03,
 Gaussian 16:  EM64L-G16RevA.03 25-Dec-2016

 ---------------------------------------
 #p wb97xd/cc-pvdz sp scf=(maxcycles=20)
 ---------------------------------------

 ------------------
 Base pair stacking
 ------------------
 Symbolic Z-matrix:
 Charge =  0 Multiplicity = 1

                         Standard orientation:
 ---------------------------------------------------------------------
 Center     Atomic      Atomic             Coordinates (Angstroms)
 Number     Number       Type             X           Y           Z
 ---------------------------------------------------------------------
      1          7           0        5.144627   -1.295794   -1.343054
      2          6           0        6.443089   -0.689781   -1.696269
      3          6           0        2.991345   -1.660956   -1.083524
      4          7           0        3.639578   -2.762496   -0.543960
      5          6           0        4.910902   -2.498413   -0.721910
      6          1           0        5.728559   -3.151965   -0.416526
      7          7           0        1.321707   -0.154502   -1.794756
      8          6           0        2.317440    0.626203   -2.226732
      9          1           0        2.007157    1.560548   -2.692560
     10          7           0        3.632726    0.426967   -2.169942
     11          6           0        3.905944   -0.748480   -1.579924
     12          6           0        1.629388   -1.330619   -1.205567
     13          7           0        0.636820   -2.111312   -0.773716
     14          1           0        0.818136   -2.990469   -0.331627
     15          1           0       -0.321325   -1.844170   -0.877282
     16          1           0        6.936441   -1.295659   -2.320512
     17          1           0        6.290145    0.192329   -2.140815
     18          1           0        6.986231   -0.553836   -0.867706
     19          7           0        5.035585    1.191061    0.952412
     20          6           0        3.683942    1.423675    0.868705
     21          6           0        6.088429    2.067780    0.401409
     22          7           0        1.032285    3.404431   -0.183465
     23          1           0        0.033982    3.387033   -0.135079
     24          1           0        1.450289    4.182702   -0.652813
     25          7           0        3.095272    2.483689    0.273813
     26          6           0        1.777811    2.428435    0.356481
     27          7           0        1.087677    1.413617    0.974035
     28          1           0        0.080155    1.453948    0.989142
     29          6           0        1.672678    0.313164    1.592617
     30          8           0        0.958607   -0.547755    2.121449
     31          6           0        3.087715    0.358545    1.511977
     32          7           0        4.045769   -0.524987    1.989914
     33          6           0        5.183253    0.008612    1.635520
     34          1           0        6.163211   -0.420244    1.847779
     35          1           0        6.629337    1.561067   -0.269015
     36          1           0        5.664305    2.856443   -0.041737
     37          1           0        6.683336    2.382039    1.140414
     38          1           0       -4.915530    1.913490    0.161713
     39          1           0       -4.918130    2.551930    1.803976
     40          1           0       -3.513170    2.796505    0.765883
     41          1           0       -4.624276   -2.167031    2.693725
     42          6           0       -3.981799   -1.345932    2.375539
     43          8           0       -1.963109   -2.506006    2.829700
     44          6           0       -2.560897   -1.503586    2.439060
     45          1           0       -0.834082   -0.478930    2.043459
     46          7           0       -1.841258   -0.405372    2.013270
     47          8           0       -1.624897    1.701743    1.194459
     48          6           0       -2.344049    0.784585    1.549869
     49          1           0       -5.575660   -0.026886    1.860232
     50          6           0       -4.501994   -0.197103    1.928093
     51          6           0       -4.305921    2.112637    1.030486
     52          7           0       -3.722655    0.859867    1.518430
     53          1           0       -6.057466    2.419895   -3.060723
     54          1           0       -4.735140    2.869256   -2.217143
     55          1           0       -6.198627    2.856539   -1.494566
     56          1           0       -2.697395   -3.563718   -0.237269
     57          1           0       -4.390034   -3.454979   -0.419598
     58          7           0       -3.496458   -3.006950   -0.464533
     59          6           0       -3.376862   -1.723979   -0.812167
     60          6           0       -4.185218    0.411573   -1.481268
     61          7           0       -2.972501    0.986964   -1.533120
     62          1           0       -1.007283    0.496753   -1.219769
     63          6           0       -2.025640    0.110818   -1.203386
     64          7           0       -2.143404   -1.174585   -0.854902
     65          1           0       -7.403291    0.204855   -1.712407
     66          6           0       -6.340098    0.013967   -1.563643
     67          7           0       -5.834023   -1.137869   -1.196469
     68          6           0       -4.468444   -0.899583   -1.140440
     69          6           0       -5.614778    2.397488   -2.164325
     70          7           0       -5.399188    0.996475   -1.753620
 ---------------------------------------------------------------------

 SCF Done:  E(RwB97XD) =  -2048.74433869     A.U. after   15 cycles

 The electronic state is 1-A.
 Alpha  occ. eigenvalues --  -19.25222 -19.21535 -19.20584 -14.52674 -14.51819
 Alpha  occ. eigenvalues --  -14.49107 -14.49026 -14.48070 -14.47216 -14.46647
 Alpha  occ. eigenvalues --  -14.46576 -14.45506 -14.44466 -14.44420 -14.42847
 Alpha  occ. eigenvalues --  -14.41817 -14.41476 -14.41353 -14.41148 -14.40906
 Alpha  occ. eigenvalues --  -10.44829 -10.41039 -10.39987 -10.39609 -10.38200
 Alpha  occ. eigenvalues --  -10.38079 -10.37280 -10.37115 -10.35991 -10.35966
 Alpha  occ. eigenvalues --  -10.34398 -10.34373 -10.34311 -10.34250 -10.33735
 Alpha  occ. eigenvalues --  -10.33658 -10.33588 -10.32712 -10.31764 -10.31205
 Alpha  occ. eigenvalues --  -10.30460 -10.28850 -10.28210  -1.18878  -1.15460
 Alpha  occ. eigenvalues --   -1.13169  -1.12529  -1.11655  -1.10721  -1.09408
 Alpha  occ. eigenvalues --   -1.08730  -1.08475  -1.05588  -1.04873  -1.01928
 Alpha  occ. eigenvalues --   -1.01165  -1.00932  -0.99631  -0.98489  -0.97370
 Alpha  occ. eigenvalues --   -0.96957  -0.96711  -0.93264  -0.90414  -0.87814
 Alpha  occ. eigenvalues --   -0.86188  -0.84572  -0.84112  -0.83131  -0.82994
 Alpha  occ. eigenvalues --   -0.82543  -0.78281  -0.77152  -0.74984  -0.74701
 Alpha  occ. eigenvalues --   -0.73569  -0.73335  -0.72792  -0.71504  -0.70505
 Alpha  occ. eigenvalues --   -0.67381  -0.66886  -0.66766  -0.66013  -0.64388
 Alpha  occ. eigenvalues --   -0.64311  -0.63560  -0.63199  -0.62565  -0.61791
 Alpha  occ. eigenvalues --   -0.61706  -0.60891  -0.60566  -0.59684  -0.58987
 Alpha  occ. eigenvalues --   -0.58574  -0.58457  -0.58235  -0.57058  -0.56049
 Alpha  occ. eigenvalues --   -0.55672  -0.55530  -0.55483  -0.54231  -0.54159
 Alpha  occ. eigenvalues --   -0.53972  -0.53793  -0.53407  -0.53102  -0.52967
 Alpha  occ. eigenvalues --   -0.52939  -0.52277  -0.51767  -0.50960  -0.50632
 Alpha  occ. eigenvalues --   -0.50243  -0.50103  -0.49350  -0.49144  -0.48849
 Alpha  occ. eigenvalues --   -0.48581  -0.48340  -0.48224  -0.48025  -0.47397
 Alpha  occ. eigenvalues --   -0.47147  -0.46101  -0.45003  -0.44958  -0.43005
 Alpha  occ. eigenvalues --   -0.41406  -0.40831  -0.38913  -0.37833  -0.37640
 Alpha  occ. eigenvalues --   -0.37556  -0.37170  -0.36940  -0.35989  -0.34687
 Alpha  occ. eigenvalues --   -0.34574  -0.34199  -0.33933  -0.33635  -0.32925
 Alpha  occ. eigenvalues --   -0.32577  -0.32389  -0.31848  -0.31363  -0.31149
 Alpha  occ. eigenvalues --   -0.30797  -0.30036  -0.26862  -0.24798
 Alpha virt. eigenvalues --    0.03289   0.04234   0.06785   0.07171   0.08442
 Alpha virt. eigenvalues --    0.09158   0.09928   0.10273   0.11080   0.12600
 Alpha virt. eigenvalues --    0.13039   0.13364   0.14157   0.14550   0.14695

 Mulliken charges:
               1
     1  N   -0.298195
     2  C    0.177700
     3  C    0.070085
     4  N   -0.245538
     5  C    0.135176
     6  H    0.024774
     7  N   -0.284739
     8  C    0.131076
     9  H    0.007914
    10  N   -0.273185
    11  C    0.220375
    12  C    0.070430
    13  N   -0.044217
    14  H    0.113268
    15  H    0.085030
    16  H    0.028018
    17  H    0.040105
    18  H    0.015787
    19  N   -0.295759
    20  C    0.243517
    21  C    0.192318
    22  N   -0.117832
    23  H    0.119277
    24  H    0.118152
    25  N   -0.290348
    26  C    0.217821
    27  N   -0.125424
    28  H    0.118391
    29  C    0.172940
    30  O   -0.321716
    31  C   -0.004137
    32  N   -0.212808
    33  C    0.107732
    34  H    0.020689
    35  H   -0.005367
    36  H    0.034858
    37  H    0.024901
    38  H    0.030637
    39  H    0.053885
    40  H    0.078412
    41  H    0.021857
    42  C   -0.102241
    43  O   -0.271428
    44  C    0.166376
    45  H    0.128239
    46  N   -0.106784
    47  O   -0.345663
    48  C    0.326922
    49  H    0.044983
    50  C    0.167989
    51  C    0.053962
    52  N   -0.273661
    53  H    0.036163
    54  H    0.042447
    55  H    0.030366
    56  H    0.125593
    57  H    0.118604
    58  N   -0.053507
    59  C    0.094227
    60  C    0.196426
    61  N   -0.260080
    62  H    0.019242
    63  C    0.166263
    64  N   -0.300228
    65  H    0.036422
    66  C    0.127016
    67  N   -0.251750
    68  C    0.053212
    69  C    0.177516
    70  N   -0.302489
 Sum of Mulliken charges =  -0.00000

 Dipole moment (field-independent basis, Debye):
    X=             -5.3130    Y=              6.4598    Z=             -4.3237  Tot=              9.4155
 Quadrupole moment (field-independent basis, Debye-Ang):
   XX=           -147.6266   YY=           -225.0830   ZZ=           -262.4023
   XY=             -9.6181   XZ=             -2.0817   YZ=              6.5326

 Normal termination of Gaussian 16 at Fri Jan 19 08:11:47 2018.
