 Gaussian 16, Revision A.03,
 Gaussian 16:  EM64L-G16RevA.03 25-Dec-2016

 ---------------------------------------
 #p wb97xd/cc-pvdz sp scf=(maxcycles=20)
 ---------------------------------------

 ------------------
 Base pair stacking
 ------------------
 Symbolic Z-matrix:
 Charge =  0 Multiplicity = 1

                         Standard orientation:
 ---------------------------------------------------------------------
 Center     Atomic      Atomic             Coordinates (Angstroms)
 Number     Number       Type             X           Y           Z
 ---------------------------------------------------------------------
      1          7           0        5.733574   -1.138610   -0.979887
      2          6           0        7.029539   -0.474086   -1.218426
      3          6           0        3.582365   -1.584703   -0.876836
      4          7           0        4.233883   -2.692348   -0.353986
      5          6           0        5.503836   -2.379261   -0.436997
      6          1           0        6.323246   -3.022015   -0.113940
      7          7           0        1.908563   -0.095989   -1.615111
      8          6           0        2.901358    0.737536   -1.942500
      9          1           0        2.588193    1.685037   -2.378877
     10          7           0        4.216737    0.577100   -1.812378
     11          6           0        4.493641   -0.618797   -1.266872
     12          6           0        2.219917   -1.291435   -1.068278
     13          7           0        1.230276   -2.124843   -0.740805
     14          1           0        1.414352   -3.020060   -0.333483
     15          1           0        0.271665   -1.882903   -0.891370
     16          1           0        7.581364   -1.030135   -1.840106
     17          1           0        6.873820    0.425105   -1.626250
     18          1           0        7.515302   -0.365260   -0.351143
     19          7           0        4.439743    1.334437    1.147973
     20          6           0        3.088931    1.523631    0.981984
     21          6           0        5.496832    2.223287    0.625279
     22          7           0        0.445943    3.387959   -0.283183
     23          1           0       -0.552620    3.342362   -0.289177
     24          1           0        0.867625    4.162236   -0.755837
     25          7           0        2.505061    2.545082    0.318821
     26          6           0        1.187085    2.453291    0.330819
     27          7           0        0.492137    1.439537    0.944707
     28          1           0       -0.515391    1.450221    0.902978
     29          6           0        1.072155    0.378368    1.632720
     30          8           0        0.353971   -0.485325    2.151361
     31          6           0        2.487667    0.463275    1.628448
     32          7           0        3.441811   -0.374749    2.189018
     33          6           0        4.581984    0.180442    1.879208
     34          1           0        5.560130   -0.211599    2.159925
     35          1           0        6.088381    1.710827    0.003782
     36          1           0        5.076280    2.983675    0.132107
     37          1           0        6.040421    2.579742    1.384395
     38          1           0       -5.467835    1.732357   -0.213456
     39          1           0       -5.580200    2.425027    1.402794
     40          1           0       -4.126734    2.676602    0.435569
     41          1           0       -5.204697   -2.250636    2.472269
     42          6           0       -4.568640   -1.421812    2.161282
     43          8           0       -2.546882   -2.505206    2.766144
     44          6           0       -3.149674   -1.534731    2.308322
     45          1           0       -1.432769   -0.472747    1.972561
     46          7           0       -2.438333   -0.430370    1.884494
     47          8           0       -2.235513    1.653695    1.005427
     48          6           0       -2.947491    0.727866    1.352714
     49          1           0       -6.167442   -0.168966    1.513198
     50          6           0       -5.094914   -0.304657    1.645924
     51          6           0       -4.913605    1.978590    0.680009
     52          7           0       -4.323747    0.760824    1.242905
     53          1           0       -5.463181    2.308152   -3.215057
     54          1           0       -4.212031    2.753563   -2.267249
     55          1           0       -5.716112    2.656398   -1.640833
     56          1           0       -2.078211   -3.708015   -0.492318
     57          1           0       -3.759076   -3.643140   -0.776173
     58          7           0       -2.880555   -3.165426   -0.741265
     59          6           0       -2.784375   -1.862675   -1.014728
     60          6           0       -3.623562    0.278840   -1.624140
     61          7           0       -2.430708    0.894093   -1.569343
     62          1           0       -0.472788    0.450116   -1.156999
     63          6           0       -1.476166    0.031958   -1.225135
     64          7           0       -1.570490   -1.273199   -0.950845
     65          1           0       -6.812021   -0.016625   -2.069786
     66          6           0       -5.754079   -0.181544   -1.863608
     67          7           0       -5.231929   -1.334732   -1.524186
     68          6           0       -3.881551   -1.056832   -1.369316
     69          6           0       -5.076311    2.252164   -2.294624
     70          7           0       -4.837957    0.838818   -1.942998
 ---------------------------------------------------------------------

 SCF Done:  E(RwB97XD) =  -2048.73492118     A.U. after   15 cycles

 The electronic state is 1-A.
 Alpha  occ. eigenvalues --  -19.25196 -19.21524 -19.20567 -14.52500 -14.52046
 Alpha  occ. eigenvalues --  -14.49484 -14.48591 -14.47664 -14.47370 -14.46753
 Alpha  occ. eigenvalues --  -14.46587 -14.45474 -14.44118 -14.44112 -14.42953
 Alpha  occ. eigenvalues --  -14.41918 -14.41835 -14.41413 -14.40763 -14.40748
 Alpha  occ. eigenvalues --  -10.44870 -10.41101 -10.39645 -10.39639 -10.38173
 Alpha  occ. eigenvalues --  -10.38042 -10.37242 -10.37151 -10.36087 -10.35629
 Alpha  occ. eigenvalues --  -10.34707 -10.34606 -10.34299 -10.34165 -10.33973
 Alpha  occ. eigenvalues --  -10.33593 -10.33259 -10.32541 -10.32022 -10.30550
 Alpha  occ. eigenvalues --  -10.30526 -10.29065 -10.28009  -1.18998  -1.15371
 Alpha  occ. eigenvalues --   -1.13115  -1.12549  -1.11995  -1.10454  -1.09124
 Alpha  occ. eigenvalues --   -1.08840  -1.08462  -1.05650  -1.04559  -1.02075
 Alpha  occ. eigenvalues --   -1.01119  -1.01084  -0.99626  -0.98410  -0.97656
 Alpha  occ. eigenvalues --   -0.96663  -0.96420  -0.93307  -0.90544  -0.87772
 Alpha  occ. eigenvalues --   -0.86235  -0.84684  -0.83954  -0.83415  -0.83128
 Alpha  occ. eigenvalues --   -0.82245  -0.78415  -0.76979  -0.74814  -0.74467
 Alpha  occ. eigenvalues --   -0.73550  -0.73503  -0.72960  -0.71656  -0.70346
 Alpha  occ. eigenvalues --   -0.67279  -0.66974  -0.66693  -0.66190  -0.64370
 Alpha  occ. eigenvalues --   -0.64175  -0.63773  -0.63371  -0.62565  -0.62412
 Alpha  occ. eigenvalues --   -0.61647  -0.60998  -0.60454  -0.59496  -0.59163
 Alpha  occ. eigenvalues --   -0.58369  -0.58148  -0.58025  -0.57234  -0.56238
 Alpha  occ. eigenvalues --   -0.55907  -0.55666  -0.55385  -0.54514  -0.54040
 Alpha  occ. eigenvalues --   -0.53914  -0.53607  -0.53398  -0.52885  -0.52776
 Alpha  occ. eigenvalues --   -0.52463  -0.52288  -0.51818  -0.51303  -0.50866
 Alpha  occ. eigenvalues --   -0.50036  -0.49889  -0.49437  -0.49125  -0.48757
 Alpha  occ. eigenvalues --   -0.48674  -0.48498  -0.48126  -0.47694  -0.47176
 Alpha  occ. eigenvalues --   -0.46989  -0.45986  -0.45520  -0.44477  -0.42821
 Alpha  occ. eigenvalues --   -0.41672  -0.40675  -0.39015  -0.37745  -0.37638
 Alpha  occ. eigenvalues --   -0.37466  -0.37086  -0.36884  -0.36093  -0.34659
 Alpha  occ. eigenvalues --   -0.34415  -0.34290  -0.33852  -0.33608  -0.32859
 Alpha  occ. eigenvalues --   -0.32471  -0.32145  -0.31725  -0.31489  -0.31353
 Alpha  occ. eigenvalues --   -0.31005  -0.29364  -0.26499  -0.25277
 Alpha virt. eigenvalues --    0.03608   0.03993   0.07113   0.07388   0.08659
 Alpha virt. eigenvalues --    0.09137   0.09661   0.10255   0.10610   0.12646
 Alpha virt. eigenvalues --    0.13354   0.13424   0.14154   0.14257   0.14674

 Mulliken charges:
               1
     1  N   -0.304125
     2  C    0.176577
     3  C    0.071743
     4  N   -0.246821
     5  C    0.124966
     6  H    0.026637
     7  N   -0.284232
     8  C    0.139265
     9  H    0.009802
    10  N   -0.283136
    11  C    0.216528
    12  C    0.081893
    13  N   -0.045269
    14  H    0.110728
    15  H    0.086860
    16  H    0.028866
    17  H    0.047373
    18  H    0.020656
    19  N   -0.283357
    20  C    0.228334
    21  C    0.202318
    22  N   -0.113425
    23  H    0.117722
    24  H    0.117047
    25  N   -0.296589
    26  C    0.225621
    27  N   -0.135895
    28  H    0.116672
    29  C    0.177001
    30  O   -0.322837
    31  C   -0.004360
    32  N   -0.214505
    33  C    0.116891
    34  H    0.016142
    35  H   -0.014496
    36  H    0.032416
    37  H    0.021883
    38  H    0.046002
    39  H    0.056582
    40  H    0.074387
    41  H    0.025390
    42  C   -0.098419
    43  O   -0.268876
    44  C    0.163199
    45  H    0.131389
    46  N   -0.113073
    47  O   -0.334447
    48  C    0.328592
    49  H    0.041594
    50  C    0.170255
    51  C    0.040943
    52  N   -0.272258
    53  H    0.034851
    54  H    0.043567
    55  H    0.018931
    56  H    0.123700
    57  H    0.119612
    58  N   -0.055251
    59  C    0.101230
    60  C    0.198753
    61  N   -0.249591
    62  H    0.029097
    63  C    0.151434
    64  N   -0.295870
    65  H    0.035669
    66  C    0.115000
    67  N   -0.245278
    68  C    0.045049
    69  C    0.176374
    70  N   -0.303430
 Sum of Mulliken charges =  -0.00000

 Dipole moment (field-independent basis, Debye):
    X=             -5.0993    Y=              6.0486    Z=             -4.9193  Tot=              9.3160
 Quadrupole moment (field-independent basis, Debye-Ang):
   XX=           -146.8243   YY=           -225.0026   ZZ=           -263.2430
   XY=            -11.8541   XZ=              5.5986   YZ=              5.9873

 Normal termination of Gaussian 16 at Thu Jan 18 17:21:15 2018.
