 Gaussian 16, Revision A.03,
 Gaussian 16:  EM64L-G16RevA.03 25-Dec-2016

 ---------------------------------------
 #p wb97xd/cc-pvdz sp scf=(maxcycles=20)
 ---------------------------------------

 ------------------
 Base pair stacking
 ------------------
 Symbolic Z-matrix:
 Charge =  0 Multiplicity = 1

                         Standard orientation:
 ---------------------------------------------------------------------
 Center     Atomic      Atomic             Coordinates (Angstroms)
 Number     Number       Type             X           Y           Z
 ---------------------------------------------------------------------
      1          7           0        5.141408   -1.505318   -1.206565
      2          6           0        6.437918   -0.977907   -1.674459
      3          6           0        2.989835   -1.808774   -0.866026
      4          7           0        3.640448   -2.798892   -0.144155
      5          6           0        4.910653   -2.576442   -0.378215
      6          1           0        5.729549   -3.168423    0.031563
      7          7           0        1.317248   -0.446502   -1.819750
      8          6           0        2.310723    0.240016   -2.393579
      9          1           0        1.998330    1.077350   -3.016111
     10          7           0        3.625974    0.048398   -2.314234
     11          6           0        3.901899   -1.003770   -1.526049
     12          6           0        1.627627   -1.499643   -1.032584
     13          7           0        0.637309   -2.186180   -0.458897
     14          1           0        0.820651   -2.972899    0.131594
     15          1           0       -0.321108   -1.937686   -0.599716
     16          1           0        6.923483   -1.687794   -2.184812
     17          1           0        6.282926   -0.188859   -2.268173
     18          1           0        6.989580   -0.698367   -0.888629
     19          7           0        5.036871    1.342819    0.822666
     20          6           0        3.685383    1.568203    0.719035
     21          6           0        6.089999    2.162670    0.190641
     22          7           0        1.034631    3.444753   -0.511340
     23          1           0        0.036379    3.433194   -0.460405
     24          1           0        1.452923    4.175045   -1.052108
     25          7           0        3.097164    2.568446    0.027979
     26          6           0        1.779735    2.522811    0.116941
     27          7           0        1.089246    1.571259    0.827775
     28          1           0        0.081784    1.614061    0.840170
     29          6           0        1.673786    0.532978    1.546211
     30          8           0        0.959412   -0.273645    2.154297
     31          6           0        3.088769    0.568848    1.460071
     32          7           0        4.046418   -0.267107    2.017713
     33          6           0        5.184069    0.229486    1.613532
     34          1           0        6.163810   -0.178760    1.863981
     35          1           0        6.629516    1.594634   -0.429896
     36          1           0        5.666203    2.906808   -0.324060
     37          1           0        6.686175    2.544157    0.896223
     38          1           0       -4.914414    2.000073   -0.021073
     39          1           0       -4.914257    2.789775    1.554054
     40          1           0       -3.510322    2.934155    0.496001
     41          1           0       -4.624561   -1.825250    2.882286
     42          6           0       -3.981561   -1.038408    2.487730
     43          8           0       -1.963609   -2.153227    3.046457
     44          6           0       -2.560762   -1.191145    2.564170
     45          1           0       -0.833296   -0.210249    2.072211
     46          7           0       -1.840432   -0.138616    2.036398
     47          8           0       -1.622729    1.882114    1.023261
     48          6           0       -2.342461    1.003234    1.463975
     49          1           0       -5.574596    0.228413    1.852755
     50          6           0       -4.501027    0.064005    1.935074
     51          6           0       -4.303493    2.279109    0.824492
     52          7           0       -3.721021    1.076915    1.427166
     53          1           0       -6.067232    1.892226   -3.457466
     54          1           0       -4.735454    2.479412   -2.720123
     55          1           0       -6.191771    2.602497   -1.993427
     56          1           0       -2.695282   -3.504677    0.359450
     57          1           0       -4.389338   -3.422901    0.176272
     58          7           0       -3.495074   -2.994036    0.043679
     59          6           0       -3.375525   -1.794442   -0.528908
     60          6           0       -4.184798    0.190556   -1.561661
     61          7           0       -2.971141    0.742088   -1.726801
     62          1           0       -1.004214    0.307238   -1.349010
     63          6           0       -2.023382   -0.065096   -1.254448
     64          7           0       -2.141100   -1.266939   -0.680614
     65          1           0       -7.405538   -0.040103   -1.722349
     66          6           0       -6.341439   -0.205960   -1.551678
     67          7           0       -5.834801   -1.275779   -0.989103
     68          6           0       -4.468106   -1.037279   -0.989225
     69          6           0       -5.615783    2.028540   -2.575650
     70          7           0       -5.399843    0.722615   -1.923011
 ---------------------------------------------------------------------

 SCF Done:  E(RwB97XD) =  -2048.74967052     A.U. after   15 cycles

 The electronic state is 1-A.
 Alpha  occ. eigenvalues --  -19.25315 -19.21645 -19.20617 -14.52587 -14.51889
 Alpha  occ. eigenvalues --  -14.49047 -14.49028 -14.47922 -14.47278 -14.46746
 Alpha  occ. eigenvalues --  -14.46611 -14.45423 -14.44379 -14.44366 -14.42705
 Alpha  occ. eigenvalues --  -14.41913 -14.41380 -14.41319 -14.41146 -14.40816
 Alpha  occ. eigenvalues --  -10.44906 -10.41133 -10.39865 -10.39705 -10.38244
 Alpha  occ. eigenvalues --  -10.38000 -10.37203 -10.37126 -10.35892 -10.35865
 Alpha  occ. eigenvalues --  -10.34636 -10.34450 -10.34182 -10.34167 -10.33668
 Alpha  occ. eigenvalues --  -10.33656 -10.33523 -10.32630 -10.31656 -10.31259
 Alpha  occ. eigenvalues --  -10.30500 -10.28786 -10.28236  -1.18930  -1.15329
 Alpha  occ. eigenvalues --   -1.13207  -1.12636  -1.11571  -1.10749  -1.09307
 Alpha  occ. eigenvalues --   -1.08790  -1.08522  -1.05488  -1.04764  -1.02002
 Alpha  occ. eigenvalues --   -1.01036  -1.00827  -0.99681  -0.98541  -0.97263
 Alpha  occ. eigenvalues --   -0.96854  -0.96743  -0.93161  -0.90475  -0.87702
 Alpha  occ. eigenvalues --   -0.86055  -0.84461  -0.84145  -0.83186  -0.82913
 Alpha  occ. eigenvalues --   -0.82576  -0.78336  -0.77041  -0.74874  -0.74736
 Alpha  occ. eigenvalues --   -0.73601  -0.73255  -0.72855  -0.71414  -0.70386
 Alpha  occ. eigenvalues --   -0.67414  -0.66774  -0.66672  -0.66052  -0.64393
 Alpha  occ. eigenvalues --   -0.64208  -0.63582  -0.63096  -0.62606  -0.61796
 Alpha  occ. eigenvalues --   -0.61402  -0.60766  -0.60450  -0.59570  -0.59008
 Alpha  occ. eigenvalues --   -0.58620  -0.58366  -0.58064  -0.56955  -0.55911
 Alpha  occ. eigenvalues --   -0.55810  -0.55648  -0.55357  -0.54248  -0.54067
 Alpha  occ. eigenvalues --   -0.54011  -0.53707  -0.53485  -0.53118  -0.52985
 Alpha  occ. eigenvalues --   -0.52871  -0.52198  -0.51893  -0.50920  -0.50641
 Alpha  occ. eigenvalues --   -0.50234  -0.50087  -0.49249  -0.49213  -0.48888
 Alpha  occ. eigenvalues --   -0.48730  -0.48314  -0.48224  -0.47976  -0.47315
 Alpha  occ. eigenvalues --   -0.47215  -0.46117  -0.44985  -0.44927  -0.43064
 Alpha  occ. eigenvalues --   -0.41363  -0.40742  -0.38988  -0.37845  -0.37553
 Alpha  occ. eigenvalues --   -0.37445  -0.37233  -0.37060  -0.35999  -0.34575
 Alpha  occ. eigenvalues --   -0.34515  -0.34094  -0.33818  -0.33598  -0.32988
 Alpha  occ. eigenvalues --   -0.32653  -0.32386  -0.31866  -0.31423  -0.31122
 Alpha  occ. eigenvalues --   -0.30772  -0.29972  -0.26745  -0.24884
 Alpha virt. eigenvalues --    0.03354   0.04237   0.06875   0.07313   0.08582
 Alpha virt. eigenvalues --    0.09117   0.09857   0.10380   0.10993   0.12419
 Alpha virt. eigenvalues --    0.13096   0.13386   0.14199   0.14399   0.14886

 Mulliken charges:
               1
     1  N   -0.300025
     2  C    0.178269
     3  C    0.063537
     4  N   -0.243593
     5  C    0.135190
     6  H    0.024545
     7  N   -0.287396
     8  C    0.130681
     9  H    0.009548
    10  N   -0.278210
    11  C    0.226568
    12  C    0.074193
    13  N   -0.043815
    14  H    0.114119
    15  H    0.085138
    16  H    0.027986
    17  H    0.037935
    18  H    0.015560
    19  N   -0.299535
    20  C    0.249949
    21  C    0.189227
    22  N   -0.122090
    23  H    0.118970
    24  H    0.118400
    25  N   -0.299461
    26  C    0.233779
    27  N   -0.133233
    28  H    0.119179
    29  C    0.178041
    30  O   -0.322328
    31  C   -0.009953
    32  N   -0.212841
    33  C    0.109525
    34  H    0.020182
    35  H    0.003098
    36  H    0.034287
    37  H    0.025251
    38  H    0.035058
    39  H    0.055866
    40  H    0.077753
    41  H    0.020572
    42  C   -0.102258
    43  O   -0.272902
    44  C    0.165205
    45  H    0.128155
    46  N   -0.106233
    47  O   -0.347312
    48  C    0.329787
    49  H    0.045023
    50  C    0.169374
    51  C    0.051091
    52  N   -0.274365
    53  H    0.036226
    54  H    0.041994
    55  H    0.028975
    56  H    0.126306
    57  H    0.117790
    58  N   -0.049777
    59  C    0.086576
    60  C    0.205493
    61  N   -0.261091
    62  H    0.023528
    63  C    0.162173
    64  N   -0.299267
    65  H    0.036388
    66  C    0.126917
    67  N   -0.252350
    68  C    0.050600
    69  C    0.176825
    70  N   -0.302797
 Sum of Mulliken charges =  -0.00000

 Dipole moment (field-independent basis, Debye):
    X=             -5.3148    Y=              6.1095    Z=             -4.7160  Tot=              9.3710
 Quadrupole moment (field-independent basis, Debye-Ang):
   XX=           -147.4004   YY=           -224.0580   ZZ=           -262.3042
   XY=             -9.8732   XZ=             -0.6964   YZ=              1.4586

 Normal termination of Gaussian 16 at Thu Jan 18 15:55:36 2018.
