 Gaussian 16, Revision A.03,
 Gaussian 16:  EM64L-G16RevA.03 25-Dec-2016

 ---------------------------------------
 #p wb97xd/cc-pvdz sp scf=(maxcycles=20)
 ---------------------------------------

 ------------------
 Base pair stacking
 ------------------
 Symbolic Z-matrix:
 Charge =  0 Multiplicity = 1

                         Standard orientation:
 ---------------------------------------------------------------------
 Center     Atomic      Atomic             Coordinates (Angstroms)
 Number     Number       Type             X           Y           Z
 ---------------------------------------------------------------------
      1          7           0        4.237240   -0.929089   -2.040302
      2          6           0        5.517997   -0.282252   -2.385635
      3          6           0        2.104953   -1.309383   -1.658144
      4          7           0        2.762692   -2.505935   -1.412435
      5          6           0        4.020994   -2.228934   -1.652509
      6          1           0        4.841020   -2.941848   -1.561721
      7          7           0        0.428207    0.332427   -1.894713
      8          6           0        1.406247    1.170406   -2.253631
      9          1           0        1.086089    2.183682   -2.492450
     10          7           0        2.714225    0.945700   -2.361319
     11          6           0        3.000744   -0.328232   -2.045992
     12          6           0        0.748942   -0.942490   -1.583568
     13          7           0       -0.225941   -1.780480   -1.225053
     14          1           0       -0.034512   -2.733144   -0.986290
     15          1           0       -1.180363   -1.484764   -1.182935
     16          1           0        5.933927   -0.756509   -3.161680
     17          1           0        5.354690    0.673413   -2.628887
     18          1           0        6.136899   -0.323699   -1.601262
     19          7           0        5.888872    0.785338    0.772439
     20          6           0        4.544488    1.050912    0.873229
     21          6           0        6.927900    1.767945    0.404202
     22          7           0        1.895323    3.285958    0.653458
     23          1           0        0.903850    3.269374    0.779720
     24          1           0        2.304535    4.159772    0.389445
     25          7           0        3.951595    2.244534    0.654559
     26          6           0        2.643368    2.186336    0.830024
     27          7           0        1.965687    1.047358    1.191947
     28          1           0        0.964597    1.095712    1.303513
     29          6           0        2.555249   -0.191713    1.422127
     30          8           0        1.852596   -1.157575    1.744817
     31          6           0        3.960456   -0.144926    1.237494
     32          7           0        4.918900   -1.141195    1.362876
     33          6           0        6.044666   -0.544632    1.078305
     34          1           0        7.021363   -1.029749    1.076496
     35          1           0        7.395734    1.465688   -0.425600
     36          1           0        6.500536    2.655978    0.239825
     37          1           0        7.589753    1.850432    1.148480
     38          1           0       -4.059477    1.841260    1.067954
     39          1           0       -3.910618    1.985520    2.817720
     40          1           0       -2.582311    2.496059    1.775463
     41          1           0       -3.725809   -2.795022    2.308950
     42          6           0       -3.079618   -1.926320    2.182358
     43          8           0       -1.076720   -3.195639    2.116610
     44          6           0       -1.665003   -2.115271    2.077592
     45          1           0        0.063108   -1.044485    1.842292
     46          7           0       -0.939897   -0.951387    1.919947
     47          8           0       -0.708864    1.298439    1.714811
     48          6           0       -1.432145    0.328143    1.856343
     49          1           0       -4.658077   -0.493129    2.198490
     50          6           0       -3.589516   -0.690521    2.123854
     51          6           0       -3.377218    1.776244    1.902431
     52          7           0       -2.805235    0.428405    1.964887
     53          1           0       -6.947221    3.210688   -1.923944
     54          1           0       -5.541177    3.462412   -1.135436
     55          1           0       -6.934124    3.324383   -0.295967
     56          1           0       -3.544364   -3.265141   -0.679034
     57          1           0       -5.242112   -3.098542   -0.676473
     58          7           0       -4.342062   -2.663015   -0.714675
     59          6           0       -4.212463   -1.338067   -0.808959
     60          6           0       -5.007689    0.899483   -0.959651
     61          7           0       -3.786441    1.456732   -1.009121
     62          1           0       -1.818008    0.886356   -0.985556
     63          6           0       -2.842807    0.519128   -0.951107
     64          7           0       -2.970589   -0.808396   -0.856659
     65          1           0       -8.238559    0.787992   -0.924632
     66          6           0       -7.173081    0.556395   -0.917307
     67          7           0       -6.673833   -0.652696   -0.836462
     68          6           0       -5.301697   -0.449446   -0.862300
     69          6           0       -6.427415    3.001857   -1.095585
     70          7           0       -6.221538    1.543959   -0.994778
 ---------------------------------------------------------------------

 SCF Done:  E(RwB97XD) =  -2048.74943923     A.U. after   15 cycles

 The electronic state is 1-A.
 Alpha  occ. eigenvalues --  -19.25095 -19.21403 -19.20745 -14.52765 -14.51513
 Alpha  occ. eigenvalues --  -14.49642 -14.48687 -14.48466 -14.47112 -14.46961
 Alpha  occ. eigenvalues --  -14.46772 -14.45574 -14.44849 -14.44767 -14.42997
 Alpha  occ. eigenvalues --  -14.42186 -14.41823 -14.41439 -14.41120 -14.40967
 Alpha  occ. eigenvalues --  -10.44668 -10.41428 -10.40344 -10.39453 -10.38490
 Alpha  occ. eigenvalues --  -10.38169 -10.37619 -10.36833 -10.36347 -10.36006
 Alpha  occ. eigenvalues --  -10.34950 -10.34173 -10.34130 -10.33956 -10.33621
 Alpha  occ. eigenvalues --  -10.33603 -10.33528 -10.33096 -10.31823 -10.30954
 Alpha  occ. eigenvalues --  -10.30240 -10.28825 -10.28683  -1.18640  -1.15524
 Alpha  occ. eigenvalues --   -1.13510  -1.12384  -1.11352  -1.11218  -1.09794
 Alpha  occ. eigenvalues --   -1.08751  -1.08368  -1.05587  -1.05300  -1.01707
 Alpha  occ. eigenvalues --   -1.01208  -1.00968  -0.99887  -0.98919  -0.97420
 Alpha  occ. eigenvalues --   -0.97261  -0.96941  -0.93279  -0.90145  -0.88000
 Alpha  occ. eigenvalues --   -0.86169  -0.84798  -0.84070  -0.83236  -0.82486
 Alpha  occ. eigenvalues --   -0.82463  -0.78065  -0.77356  -0.75297  -0.75117
 Alpha  occ. eigenvalues --   -0.73854  -0.73194  -0.72547  -0.71426  -0.70743
 Alpha  occ. eigenvalues --   -0.67683  -0.67159  -0.66615  -0.65777  -0.64763
 Alpha  occ. eigenvalues --   -0.64536  -0.63288  -0.63073  -0.62836  -0.62048
 Alpha  occ. eigenvalues --   -0.60887  -0.60819  -0.60480  -0.59853  -0.58903
 Alpha  occ. eigenvalues --   -0.58828  -0.58489  -0.58383  -0.56861  -0.55986
 Alpha  occ. eigenvalues --   -0.55708  -0.55626  -0.55523  -0.54642  -0.54353
 Alpha  occ. eigenvalues --   -0.54112  -0.53903  -0.53354  -0.53203  -0.53039
 Alpha  occ. eigenvalues --   -0.52474  -0.51860  -0.51394  -0.50772  -0.50602
 Alpha  occ. eigenvalues --   -0.50558  -0.50257  -0.49666  -0.49393  -0.49175
 Alpha  occ. eigenvalues --   -0.48811  -0.48470  -0.48178  -0.47427  -0.47211
 Alpha  occ. eigenvalues --   -0.47163  -0.45764  -0.45472  -0.45135  -0.42734
 Alpha  occ. eigenvalues --   -0.41499  -0.41033  -0.38928  -0.38046  -0.37930
 Alpha  occ. eigenvalues --   -0.37883  -0.37467  -0.37282  -0.35365  -0.35074
 Alpha  occ. eigenvalues --   -0.34764  -0.34159  -0.33749  -0.33672  -0.33233
 Alpha  occ. eigenvalues --   -0.33089  -0.32555  -0.32085  -0.31183  -0.31063
 Alpha  occ. eigenvalues --   -0.30818  -0.30436  -0.26623  -0.25553
 Alpha virt. eigenvalues --    0.02751   0.04847   0.06410   0.07644   0.08516
 Alpha virt. eigenvalues --    0.09070   0.09444   0.10090   0.10465   0.12556
 Alpha virt. eigenvalues --    0.13235   0.13638   0.13981   0.14377   0.14792

 Mulliken charges:
               1
     1  N   -0.298808
     2  C    0.190718
     3  C    0.045527
     4  N   -0.245355
     5  C    0.150590
     6  H    0.027816
     7  N   -0.289932
     8  C    0.122193
     9  H    0.005923
    10  N   -0.275121
    11  C    0.231689
    12  C    0.079872
    13  N   -0.059443
    14  H    0.117668
    15  H    0.087861
    16  H    0.026066
    17  H    0.033483
    18  H    0.004826
    19  N   -0.302728
    20  C    0.239808
    21  C    0.182625
    22  N   -0.116434
    23  H    0.119464
    24  H    0.119308
    25  N   -0.301076
    26  C    0.239400
    27  N   -0.133527
    28  H    0.118961
    29  C    0.185607
    30  O   -0.317274
    31  C   -0.005502
    32  N   -0.214936
    33  C    0.096703
    34  H    0.024625
    35  H    0.014834
    36  H    0.034908
    37  H    0.028614
    38  H    0.059924
    39  H    0.048298
    40  H    0.072081
    41  H    0.017316
    42  C   -0.098816
    43  O   -0.274058
    44  C    0.172359
    45  H    0.131613
    46  N   -0.123972
    47  O   -0.348027
    48  C    0.336212
    49  H    0.046149
    50  C    0.155539
    51  C    0.045909
    52  N   -0.271870
    53  H    0.036357
    54  H    0.041646
    55  H    0.030406
    56  H    0.124719
    57  H    0.119372
    58  N   -0.058450
    59  C    0.093385
    60  C    0.226748
    61  N   -0.271338
    62  H    0.037568
    63  C    0.159232
    64  N   -0.304175
    65  H    0.040078
    66  C    0.141265
    67  N   -0.258659
    68  C    0.038446
    69  C    0.178765
    70  N   -0.312973
 Sum of Mulliken charges =  -0.00000

 Dipole moment (field-independent basis, Debye):
    X=             -5.6269    Y=              7.7681    Z=             -1.6230  Tot=              9.7283
 Quadrupole moment (field-independent basis, Debye-Ang):
   XX=           -147.2922   YY=           -231.6535   ZZ=           -254.3520
   XY=             -1.8575   XZ=            -13.6340   YZ=             14.7670

 Normal termination of Gaussian 16 at Thu Jan 18 17:08:18 2018.
