 Gaussian 16, Revision A.03,
 Gaussian 16:  EM64L-G16RevA.03 25-Dec-2016

 ---------------------------------------
 #p wb97xd/cc-pvdz sp scf=(maxcycles=20)
 ---------------------------------------

 ------------------
 Base pair stacking
 ------------------
 Symbolic Z-matrix:
 Charge =  0 Multiplicity = 1

                         Standard orientation:
 ---------------------------------------------------------------------
 Center     Atomic      Atomic             Coordinates (Angstroms)
 Number     Number       Type             X           Y           Z
 ---------------------------------------------------------------------
      1          7           0       -6.865327   -0.879068    0.300924
      2          6           0       -8.148365   -0.216094    0.604725
      3          6           0       -4.732717   -1.413526    0.240462
      4          7           0       -5.384009   -2.322397   -0.580811
      5          6           0       -6.642765   -1.964028   -0.511520
      6          1           0       -7.458640   -2.460635   -1.037520
      7          7           0       -3.065389   -0.247661    1.433663
      8          6           0       -4.046877    0.539758    1.885598
      9          1           0       -3.732006    1.334270    2.560790
     10          7           0       -5.352772    0.493327    1.629903
     11          6           0       -5.632733   -0.517731    0.790964
     12          6           0       -3.379534   -1.255917    0.591166
     13          7           0       -2.401194   -2.043017    0.138971
     14          1           0       -2.587737   -2.801486   -0.486452
     15          1           0       -1.448949   -1.901462    0.409764
     16          1           0       -8.770932   -0.871778    1.032133
     17          1           0       -7.989935    0.547768    1.229647
     18          1           0       -8.557299    0.126662   -0.241018
     19          7           0       -3.178753    1.876706   -1.334311
     20          6           0       -1.835211    1.956765   -1.057634
     21          6           0       -4.197759    2.857434   -0.909483
     22          7           0        0.840200    3.616956    0.407866
     23          1           0        1.827593    3.489538    0.497695
     24          1           0        0.446814    4.430506    0.836936
     25          7           0       -1.225143    2.936945   -0.356838
     26          6           0        0.077096    2.736947   -0.257842
     27          7           0        0.733599    1.660098   -0.802732
     28          1           0        1.731621    1.588583   -0.677035
     29          6           0        0.126094    0.639644   -1.527641
     30          8           0        0.810296   -0.288096   -1.976964
     31          6           0       -1.272934    0.840670   -1.642423
     32          7           0       -2.243937    0.075323   -2.273526
     33          6           0       -3.355632    0.727089   -2.064890
     34          1           0       -4.336480    0.412470   -2.422987
     35          1           0       -4.879182    2.405035   -0.335202
     36          1           0       -3.757560    3.588233   -0.389458
     37          1           0       -4.645255    3.245537   -1.714418
     38          1           0        6.581204    1.479973    0.846924
     39          1           0        6.883889    2.135896   -0.760187
     40          1           0        5.381507    2.521070    0.079964
     41          1           0        6.210266   -2.509108   -1.816937
     42          6           0        5.621872   -1.626080   -1.567356
     43          8           0        3.573853   -2.548881   -2.329713
     44          6           0        4.215439   -1.624254   -1.831498
     45          1           0        2.570999   -0.419655   -1.649574
     46          7           0        3.565887   -0.458714   -1.478136
     47          8           0        3.465283    1.648359   -0.637119
     48          6           0        4.123995    0.661860   -0.915676
     49          1           0        7.260376   -0.498992   -0.798750
     50          6           0        6.194913   -0.548104   -1.019471
     51          6           0        6.125065    1.757033   -0.091818
     52          7           0        5.484434    0.583290   -0.691525
     53          1           0        4.243526    1.261295    4.076608
     54          1           0        3.092549    1.994723    3.182491
     55          1           0        4.637339    1.962436    2.656490
     56          1           0        0.849620   -3.712481   -0.260276
     57          1           0        2.503138   -3.817183    0.145951
     58          7           0        1.650453   -3.294077    0.168386
     59          6           0        1.585276   -2.092033    0.744599
     60          6           0        2.458365   -0.213414    1.915179
     61          7           0        1.299839    0.466294    1.930322
     62          1           0       -0.634532    0.250986    1.288094
     63          6           0        0.342220   -0.229790    1.320949
     64          7           0        0.405499   -1.433860    0.743210
     65          1           0        5.585510   -0.795188    2.493717
     66          6           0        4.541986   -0.842886    2.181099
     67          7           0        4.002786   -1.847638    1.535029
     68          6           0        2.681824   -1.461401    1.360094
     69          6           0        3.930706    1.451323    3.145995
     70          7           0        3.664565    0.180689    2.444106
 ---------------------------------------------------------------------

 SCF Done:  E(RwB97XD) =  -2048.75260985     A.U. after   15 cycles

 The electronic state is 1-A.
 Alpha  occ. eigenvalues --  -19.26033 -19.22047 -19.20603 -14.52573 -14.51258
 Alpha  occ. eigenvalues --  -14.49839 -14.48462 -14.47855 -14.46769 -14.46575
 Alpha  occ. eigenvalues --  -14.46104 -14.44127 -14.42830 -14.42755 -14.42682
 Alpha  occ. eigenvalues --  -14.42496 -14.41977 -14.41941 -14.41054 -14.40685
 Alpha  occ. eigenvalues --  -10.45597 -10.41099 -10.40099 -10.38202 -10.38178
 Alpha  occ. eigenvalues --  -10.37583 -10.36796 -10.36297 -10.35929 -10.35766
 Alpha  occ. eigenvalues --  -10.35137 -10.34433 -10.34420 -10.34225 -10.34010
 Alpha  occ. eigenvalues --  -10.33273 -10.33103 -10.31880 -10.31109 -10.30948
 Alpha  occ. eigenvalues --  -10.30185 -10.29599 -10.28002  -1.19588  -1.13904
 Alpha  occ. eigenvalues --   -1.13151  -1.13040  -1.12435  -1.10427  -1.09439
 Alpha  occ. eigenvalues --   -1.08489  -1.07570  -1.05926  -1.03099  -1.02548
 Alpha  occ. eigenvalues --   -1.01329  -0.99676  -0.99614  -0.98428  -0.97948
 Alpha  occ. eigenvalues --   -0.96325  -0.95215  -0.93535  -0.90980  -0.86360
 Alpha  occ. eigenvalues --   -0.84965  -0.84839  -0.84045  -0.83867  -0.83282
 Alpha  occ. eigenvalues --   -0.82097  -0.78881  -0.75611  -0.74453  -0.73824
 Alpha  occ. eigenvalues --   -0.73566  -0.73378  -0.73341  -0.72021  -0.68959
 Alpha  occ. eigenvalues --   -0.67265  -0.67221  -0.66577  -0.65271  -0.64455
 Alpha  occ. eigenvalues --   -0.63645  -0.63606  -0.62789  -0.62572  -0.61609
 Alpha  occ. eigenvalues --   -0.61024  -0.60570  -0.59525  -0.59174  -0.58328
 Alpha  occ. eigenvalues --   -0.58254  -0.58139  -0.57480  -0.57306  -0.56366
 Alpha  occ. eigenvalues --   -0.56124  -0.56021  -0.54671  -0.54404  -0.54191
 Alpha  occ. eigenvalues --   -0.53611  -0.53494  -0.52872  -0.52777  -0.52698
 Alpha  occ. eigenvalues --   -0.52340  -0.52088  -0.51653  -0.51528  -0.51072
 Alpha  occ. eigenvalues --   -0.50010  -0.49946  -0.49478  -0.48725  -0.48641
 Alpha  occ. eigenvalues --   -0.48468  -0.48172  -0.47885  -0.47853  -0.47688
 Alpha  occ. eigenvalues --   -0.47357  -0.45846  -0.45204  -0.44034  -0.43201
 Alpha  occ. eigenvalues --   -0.42050  -0.39590  -0.39421  -0.38166  -0.37194
 Alpha  occ. eigenvalues --   -0.37125  -0.36748  -0.36161  -0.35466  -0.34563
 Alpha  occ. eigenvalues --   -0.34455  -0.34277  -0.33236  -0.33162  -0.32852
 Alpha  occ. eigenvalues --   -0.32633  -0.32278  -0.31863  -0.31813  -0.31733
 Alpha  occ. eigenvalues --   -0.31263  -0.28209  -0.26688  -0.25328
 Alpha virt. eigenvalues --    0.03107   0.05337   0.06930   0.08206   0.08798
 Alpha virt. eigenvalues --    0.09120   0.09740   0.10180   0.10759   0.12025
 Alpha virt. eigenvalues --    0.13052   0.13101   0.14602   0.14779   0.15370

 Mulliken charges:
               1
     1  N   -0.310317
     2  C    0.180269
     3  C    0.038849
     4  N   -0.253976
     5  C    0.129288
     6  H    0.029531
     7  N   -0.276111
     8  C    0.129648
     9  H    0.018444
    10  N   -0.292257
    11  C    0.235167
    12  C    0.095348
    13  N   -0.037148
    14  H    0.108592
    15  H    0.089123
    16  H    0.028745
    17  H    0.035615
    18  H    0.025305
    19  N   -0.300473
    20  C    0.252598
    21  C    0.183253
    22  N   -0.115419
    23  H    0.111852
    24  H    0.116830
    25  N   -0.302557
    26  C    0.234790
    27  N   -0.127529
    28  H    0.118077
    29  C    0.155012
    30  O   -0.324444
    31  C   -0.001672
    32  N   -0.226799
    33  C    0.119508
    34  H    0.027251
    35  H    0.022518
    36  H    0.026733
    37  H    0.020837
    38  H    0.049653
    39  H    0.065375
    40  H    0.078020
    41  H    0.029224
    42  C   -0.081185
    43  O   -0.273163
    44  C    0.179260
    45  H    0.134949
    46  N   -0.126987
    47  O   -0.348107
    48  C    0.341747
    49  H    0.043732
    50  C    0.162722
    51  C    0.035515
    52  N   -0.284096
    53  H    0.031971
    54  H    0.037573
    55  H    0.009775
    56  H    0.118436
    57  H    0.120155
    58  N   -0.049063
    59  C    0.123062
    60  C    0.229156
    61  N   -0.275779
    62  H    0.036263
    63  C    0.162517
    64  N   -0.304066
    65  H    0.025068
    66  C    0.116134
    67  N   -0.248260
    68  C    0.012150
    69  C    0.183736
    70  N   -0.299967
 Sum of Mulliken charges =  -0.00000

 Dipole moment (field-independent basis, Debye):
    X=              4.9546    Y=              5.5555    Z=              4.3322  Tot=              8.6128
 Quadrupole moment (field-independent basis, Debye-Ang):
   XX=           -140.2935   YY=           -226.1953   ZZ=           -256.7164
   XY=             13.6001   XZ=             20.5291   YZ=             -0.2864

 Normal termination of Gaussian 16 at Fri Jan 19 10:02:16 2018.
