 Gaussian 16, Revision A.03,
 Gaussian 16:  EM64L-G16RevA.03 25-Dec-2016

 ---------------------------------------
 #p wb97xd/cc-pvdz sp scf=(maxcycles=20)
 ---------------------------------------

 ------------------
 Base pair stacking
 ------------------
 Symbolic Z-matrix:
 Charge =  0 Multiplicity = 1

                         Standard orientation:
 ---------------------------------------------------------------------
 Center     Atomic      Atomic             Coordinates (Angstroms)
 Number     Number       Type             X           Y           Z
 ---------------------------------------------------------------------
      1          7           0       -6.840664   -0.813554    0.342755
      2          6           0       -8.114854   -0.086627    0.504107
      3          6           0       -4.715469   -1.377324    0.397402
      4          7           0       -5.378295   -2.422691   -0.229168
      5          6           0       -6.632129   -2.041200   -0.237010
      6          1           0       -7.454193   -2.621710   -0.656726
      7          7           0       -3.033534   -0.019527    1.341037
      8          6           0       -4.004640    0.854845    1.623905
      9          1           0       -3.679622    1.763511    2.128821
     10          7           0       -5.310812    0.775662    1.377854
     11          6           0       -5.603727   -0.378225    0.755612
     12          6           0       -3.360591   -1.170938    0.714639
     13          7           0       -2.392619   -2.045003    0.431430
     14          1           0       -2.588883   -2.910145   -0.031414
     15          1           0       -1.438781   -1.864960    0.672111
     16          1           0       -8.746664   -0.636016    1.051077
     17          1           0       -7.946627    0.784074    0.965288
     18          1           0       -8.518332    0.086497   -0.394352
     19          7           0       -3.217248    1.644021   -1.420569
     20          6           0       -1.876046    1.753492   -1.142658
     21          6           0       -4.252879    2.620890   -1.028260
     22          7           0        0.768233    3.498825    0.279784
     23          1           0        1.757202    3.389719    0.376168
     24          1           0        0.360761    4.318592    0.683105
     25          7           0       -1.283685    2.763739   -0.469927
     26          6           0        0.021193    2.587336   -0.361313
     27          7           0        0.696247    1.505088   -0.871757
     28          1           0        1.694848    1.453108   -0.741180
     29          6           0        0.107175    0.453912   -1.567380
     30          8           0        0.807285   -0.476002   -1.986704
     31          6           0       -1.294454    0.629354   -1.692068
     32          7           0       -2.251281   -0.169783   -2.302606
     33          6           0       -3.373720    0.470361   -2.116768
     34          1           0       -4.348343    0.129738   -2.467992
     35          1           0       -4.929014    2.175249   -0.442558
     36          1           0       -3.825878    3.373807   -0.529204
     37          1           0       -4.703755    2.977580   -1.845753
     38          1           0        6.540529    1.466645    0.798956
     39          1           0        6.838163    2.078735   -0.826283
     40          1           0        5.327195    2.465241   -0.002307
     41          1           0        6.240803   -2.605917   -1.744867
     42          6           0        5.637851   -1.725167   -1.523588
     43          8           0        3.607031   -2.702554   -2.263606
     44          6           0        4.232423   -1.753408   -1.791610
     45          1           0        2.568746   -0.569936   -1.650573
     46          7           0        3.563557   -0.588168   -1.475253
     47          8           0        3.427222    1.541342   -0.698208
     48          6           0        4.102208    0.557431   -0.945158
     49          1           0        7.255978   -0.549858   -0.784605
     50          6           0        6.192144   -0.622344   -1.006735
     51          6           0        6.083184    1.708203   -0.148968
     52          7           0        5.462967    0.507045   -0.714924
     53          1           0        4.292796    1.888605    3.657542
     54          1           0        3.152708    2.444688    2.631351
     55          1           0        4.697394    2.288190    2.127821
     56          1           0        0.835570   -3.803060    0.383683
     57          1           0        2.487149   -3.846628    0.808550
     58          7           0        1.641628   -3.318343    0.723499
     59          6           0        1.592270   -2.024989    1.049041
     60          6           0        2.489732    0.037207    1.825975
     61          7           0        1.340538    0.721521    1.701552
     62          1           0       -0.595997    0.408259    1.107993
     63          6           0        0.374101   -0.069173    1.239259
     64          7           0        0.421540   -1.364795    0.912623
     65          1           0        5.608159   -0.458966    2.519836
     66          6           0        4.564367   -0.554148    2.219192
     67          7           0        4.012153   -1.660118    1.783792
     68          6           0        2.696722   -1.299040    1.530836
     69          6           0        3.983446    1.893920    2.706610
     70          7           0        3.700696    0.512716    2.270346
 ---------------------------------------------------------------------

 SCF Done:  E(RwB97XD) =  -2048.74431580     A.U. after   15 cycles

 The electronic state is 1-A.
 Alpha  occ. eigenvalues --  -19.26056 -19.21970 -19.20506 -14.52647 -14.51387
 Alpha  occ. eigenvalues --  -14.50025 -14.48246 -14.47881 -14.46563 -14.46491
 Alpha  occ. eigenvalues --  -14.46339 -14.44270 -14.43112 -14.42989 -14.42859
 Alpha  occ. eigenvalues --  -14.42661 -14.42202 -14.41836 -14.41260 -14.40559
 Alpha  occ. eigenvalues --  -10.45632 -10.40883 -10.40052 -10.38521 -10.38033
 Alpha  occ. eigenvalues --  -10.37660 -10.36957 -10.36536 -10.36104 -10.35964
 Alpha  occ. eigenvalues --  -10.35304 -10.34699 -10.34641 -10.34211 -10.34065
 Alpha  occ. eigenvalues --  -10.33443 -10.32998 -10.32033 -10.31295 -10.31009
 Alpha  occ. eigenvalues --  -10.29816 -10.29607 -10.27873  -1.19651  -1.14072
 Alpha  occ. eigenvalues --   -1.13045  -1.12988  -1.12626  -1.10288  -1.09502
 Alpha  occ. eigenvalues --   -1.08339  -1.07878  -1.06168  -1.03427  -1.02562
 Alpha  occ. eigenvalues --   -1.01603  -0.99842  -0.99457  -0.98299  -0.98141
 Alpha  occ. eigenvalues --   -0.96142  -0.95509  -0.93795  -0.91062  -0.86589
 Alpha  occ. eigenvalues --   -0.85178  -0.85075  -0.84147  -0.83707  -0.83464
 Alpha  occ. eigenvalues --   -0.81803  -0.78936  -0.75884  -0.74336  -0.74018
 Alpha  occ. eigenvalues --   -0.73628  -0.73487  -0.73338  -0.72257  -0.69254
 Alpha  occ. eigenvalues --   -0.67448  -0.67125  -0.66600  -0.65582  -0.64508
 Alpha  occ. eigenvalues --   -0.63873  -0.63449  -0.63090  -0.62505  -0.61450
 Alpha  occ. eigenvalues --   -0.61236  -0.60999  -0.59578  -0.59488  -0.58618
 Alpha  occ. eigenvalues --   -0.58104  -0.57981  -0.57721  -0.57545  -0.56499
 Alpha  occ. eigenvalues --   -0.56279  -0.55997  -0.55014  -0.54431  -0.54385
 Alpha  occ. eigenvalues --   -0.53945  -0.53334  -0.53055  -0.52926  -0.52543
 Alpha  occ. eigenvalues --   -0.52354  -0.52077  -0.51708  -0.51551  -0.51242
 Alpha  occ. eigenvalues --   -0.50149  -0.49864  -0.49469  -0.48793  -0.48537
 Alpha  occ. eigenvalues --   -0.48512  -0.48098  -0.48063  -0.47919  -0.47606
 Alpha  occ. eigenvalues --   -0.47260  -0.45912  -0.45331  -0.44175  -0.43218
 Alpha  occ. eigenvalues --   -0.42009  -0.39797  -0.39560  -0.38415  -0.37119
 Alpha  occ. eigenvalues --   -0.37071  -0.36855  -0.36286  -0.35478  -0.34776
 Alpha  occ. eigenvalues --   -0.34631  -0.34179  -0.33368  -0.33180  -0.33072
 Alpha  occ. eigenvalues --   -0.32546  -0.32421  -0.31804  -0.31729  -0.31696
 Alpha  occ. eigenvalues --   -0.31477  -0.28324  -0.26875  -0.25195
 Alpha virt. eigenvalues --    0.03080   0.05101   0.06635   0.08189   0.08585
 Alpha virt. eigenvalues --    0.09119   0.09755   0.10093   0.11012   0.11897
 Alpha virt. eigenvalues --    0.12814   0.13015   0.14643   0.14859   0.15057

 Mulliken charges:
               1
     1  N   -0.310910
     2  C    0.180014
     3  C    0.045457
     4  N   -0.254252
     5  C    0.130787
     6  H    0.030314
     7  N   -0.268547
     8  C    0.125161
     9  H    0.020537
    10  N   -0.292590
    11  C    0.236323
    12  C    0.092916
    13  N   -0.038976
    14  H    0.108283
    15  H    0.088670
    16  H    0.029272
    17  H    0.035669
    18  H    0.026182
    19  N   -0.295582
    20  C    0.247845
    21  C    0.183450
    22  N   -0.104749
    23  H    0.111293
    24  H    0.114555
    25  N   -0.295416
    26  C    0.219060
    27  N   -0.122361
    28  H    0.121270
    29  C    0.143307
    30  O   -0.323944
    31  C    0.005829
    32  N   -0.225124
    33  C    0.116116
    34  H    0.025126
    35  H    0.018356
    36  H    0.024512
    37  H    0.018843
    38  H    0.048021
    39  H    0.066095
    40  H    0.083237
    41  H    0.030419
    42  C   -0.088569
    43  O   -0.268498
    44  C    0.181452
    45  H    0.133917
    46  N   -0.125577
    47  O   -0.345791
    48  C    0.340162
    49  H    0.044166
    50  C    0.164228
    51  C    0.032788
    52  N   -0.281393
    53  H    0.032376
    54  H    0.033903
    55  H   -0.004224
    56  H    0.118670
    57  H    0.120779
    58  N   -0.059496
    59  C    0.130665
    60  C    0.221159
    61  N   -0.279724
    62  H    0.037190
    63  C    0.167786
    64  N   -0.304436
    65  H    0.026434
    66  C    0.113465
    67  N   -0.248208
    68  C    0.016759
    69  C    0.189293
    70  N   -0.293747
 Sum of Mulliken charges =  -0.00000

 Dipole moment (field-independent basis, Debye):
    X=              4.6857    Y=              5.5482    Z=              4.5281  Tot=              8.5582
 Quadrupole moment (field-independent basis, Debye-Ang):
   XX=           -140.0380   YY=           -226.7127   ZZ=           -258.8027
   XY=             16.3482   XZ=             18.2935   YZ=             -3.8943

 Normal termination of Gaussian 16 at Fri Jan 19 09:38:03 2018.
