 Gaussian 16, Revision A.03,
 Gaussian 16:  EM64L-G16RevA.03 25-Dec-2016

 ---------------------------------------
 #p wb97xd/cc-pvdz sp scf=(maxcycles=20)
 ---------------------------------------

 ------------------
 Base pair stacking
 ------------------
 Symbolic Z-matrix:
 Charge =  0 Multiplicity = 1

                         Standard orientation:
 ---------------------------------------------------------------------
 Center     Atomic      Atomic             Coordinates (Angstroms)
 Number     Number       Type             X           Y           Z
 ---------------------------------------------------------------------
      1          7           0       -6.616876   -1.121207    0.275135
      2          6           0       -7.911921   -0.627918    0.782604
      3          6           0       -4.471336   -1.537603    0.028944
      4          7           0       -5.113291   -2.172773   -1.024234
      5          6           0       -6.380200   -1.896488   -0.833764
      6          1           0       -7.192324   -2.235698   -1.477447
      7          7           0       -2.813544   -0.737027    1.503301
      8          6           0       -3.807691   -0.160379    2.186479
      9          1           0       -3.501744    0.399197    3.069396
     10          7           0       -5.116869   -0.171128    1.943919
     11          6           0       -5.385121   -0.885285    0.838264
     12          6           0       -3.116118   -1.448611    0.395529
     13          7           0       -2.125125   -2.024975   -0.287775
     14          1           0       -2.302823   -2.561122   -1.113727
     15          1           0       -1.171824   -1.940555    0.002441
     16          1           0       -8.505704   -1.404090    0.995097
     17          1           0       -7.762495   -0.087449    1.610066
     18          1           0       -8.348808   -0.056665    0.087775
     19          7           0       -3.453026    2.174659   -0.968475
     20          6           0       -2.103874    2.222537   -0.712428
     21          6           0       -4.464755    3.080357   -0.388125
     22          7           0        0.599326    3.675332    0.913556
     23          1           0        1.588777    3.542045    0.963211
     24          1           0        0.213561    4.418387    1.461079
     25          7           0       -1.480799    3.097972    0.105763
     26          6           0       -0.176201    2.893298    0.147482
     27          7           0        0.470684    1.907280   -0.557378
     28          1           0        1.471424    1.824374   -0.464600
     29          6           0       -0.150250    0.995368   -1.405143
     30          8           0        0.526079    0.143717   -1.995057
     31          6           0       -1.551974    1.202748   -1.460249
     32          7           0       -2.534866    0.528220   -2.171475
     33          6           0       -3.643256    1.138048   -1.849336
     34          1           0       -4.631036    0.871384   -2.226765
     35          1           0       -5.132144    2.548025    0.131509
     36          1           0       -4.014913    3.733332    0.219766
     37          1           0       -4.930967    3.575149   -1.120680
     38          1           0        6.353897    1.529778    0.923705
     39          1           0        6.619214    2.406518   -0.581472
     40          1           0        5.134919    2.661569    0.336764
     41          1           0        5.933705   -2.047754   -2.265532
     42          6           0        5.348837   -1.211800   -1.881700
     43          8           0        3.286672   -2.029775   -2.721654
     44          6           0        3.936884   -1.180709   -2.112467
     45          1           0        2.293939   -0.022729   -1.727574
     46          7           0        3.292475   -0.079954   -1.584886
     47          8           0        3.205386    1.887568   -0.454199
     48          6           0        3.860175    0.953630   -0.882781
     49          1           0        7.001230   -0.194711   -0.997989
     50          6           0        5.931244   -0.218269   -1.200309
     51          6           0        5.876350    1.933363    0.043292
     52          7           0        5.225446    0.851913   -0.701374
     53          1           0        4.503259    0.139726    4.397762
     54          1           0        3.312366    1.071871    3.785406
     55          1           0        4.845757    1.255635    3.257203
     56          1           0        1.163788   -3.378630   -1.217807
     57          1           0        2.828015   -3.545829   -0.882411
     58          7           0        1.961070   -3.084478   -0.690588
     59          6           0        1.873180   -2.119988    0.227665
     60          6           0        2.715920   -0.661842    1.908538
     61          7           0        1.538610   -0.059828    2.145030
     62          1           0       -0.402012   -0.134354    1.489993
     63          6           0        0.588867   -0.568111    1.362369
     64          7           0        0.674898   -1.534130    0.442052
     65          1           0        5.870468   -1.284913    2.244440
     66          6           0        4.822299   -1.270370    1.944313
     67          7           0        4.298956   -2.046602    1.027100
     68          6           0        2.963793   -1.671066    0.994455
     69          6           0        4.165081    0.595032    3.574156
     70          7           0        3.921188   -0.407590    2.519037
 ---------------------------------------------------------------------

 SCF Done:  E(RwB97XD) =  -2048.74761828     A.U. after   15 cycles

 The electronic state is 1-A.
 Alpha  occ. eigenvalues --  -19.25976 -19.22262 -19.20747 -14.52502 -14.51238
 Alpha  occ. eigenvalues --  -14.49533 -14.48669 -14.47902 -14.47008 -14.46721
 Alpha  occ. eigenvalues --  -14.45654 -14.44121 -14.42693 -14.42490 -14.42447
 Alpha  occ. eigenvalues --  -14.42156 -14.42049 -14.41559 -14.40803 -14.40706
 Alpha  occ. eigenvalues --  -10.45569 -10.41267 -10.40181 -10.38307 -10.37978
 Alpha  occ. eigenvalues --  -10.37437 -10.36706 -10.35907 -10.35747 -10.35672
 Alpha  occ. eigenvalues --  -10.34818 -10.34349 -10.34311 -10.34060 -10.33639
 Alpha  occ. eigenvalues --  -10.33255 -10.33170 -10.31685 -10.31043 -10.30826
 Alpha  occ. eigenvalues --  -10.30587 -10.29208 -10.28114  -1.19538  -1.13867
 Alpha  occ. eigenvalues --   -1.13307  -1.13275  -1.12104  -1.10578  -1.09389
 Alpha  occ. eigenvalues --   -1.08640  -1.07406  -1.05548  -1.02912  -1.02655
 Alpha  occ. eigenvalues --   -1.00933  -0.99804  -0.99565  -0.98568  -0.97625
 Alpha  occ. eigenvalues --   -0.96509  -0.95044  -0.93155  -0.90868  -0.86271
 Alpha  occ. eigenvalues --   -0.84766  -0.84625  -0.84062  -0.83909  -0.82985
 Alpha  occ. eigenvalues --   -0.82352  -0.78836  -0.75471  -0.74601  -0.73698
 Alpha  occ. eigenvalues --   -0.73488  -0.73417  -0.73224  -0.71651  -0.68803
 Alpha  occ. eigenvalues --   -0.67400  -0.66871  -0.66571  -0.65137  -0.64473
 Alpha  occ. eigenvalues --   -0.63760  -0.63280  -0.62678  -0.62603  -0.61750
 Alpha  occ. eigenvalues --   -0.60704  -0.60419  -0.59493  -0.59011  -0.58409
 Alpha  occ. eigenvalues --   -0.58187  -0.58086  -0.57244  -0.57001  -0.56429
 Alpha  occ. eigenvalues --   -0.56041  -0.55778  -0.54688  -0.54420  -0.54091
 Alpha  occ. eigenvalues --   -0.53664  -0.53495  -0.52911  -0.52688  -0.52555
 Alpha  occ. eigenvalues --   -0.52228  -0.52073  -0.51465  -0.51422  -0.50771
 Alpha  occ. eigenvalues --   -0.50215  -0.49638  -0.49559  -0.49029  -0.48836
 Alpha  occ. eigenvalues --   -0.48484  -0.48316  -0.47818  -0.47682  -0.47524
 Alpha  occ. eigenvalues --   -0.47458  -0.45601  -0.45364  -0.43787  -0.42943
 Alpha  occ. eigenvalues --   -0.41765  -0.39550  -0.39347  -0.37783  -0.37313
 Alpha  occ. eigenvalues --   -0.37224  -0.37014  -0.36164  -0.35603  -0.34327
 Alpha  occ. eigenvalues --   -0.34180  -0.34098  -0.33473  -0.33229  -0.32762
 Alpha  occ. eigenvalues --   -0.32709  -0.32222  -0.31923  -0.31594  -0.31485
 Alpha  occ. eigenvalues --   -0.30899  -0.27834  -0.26380  -0.25388
 Alpha virt. eigenvalues --    0.03019   0.05452   0.07346   0.08004   0.08919
 Alpha virt. eigenvalues --    0.09305   0.09713   0.10429   0.10702   0.12238
 Alpha virt. eigenvalues --    0.13361   0.13462   0.14306   0.14758   0.15150

 Mulliken charges:
               1
     1  N   -0.310066
     2  C    0.180249
     3  C    0.037989
     4  N   -0.250222
     5  C    0.124932
     6  H    0.027869
     7  N   -0.284647
     8  C    0.133347
     9  H    0.016074
    10  N   -0.293239
    11  C    0.235478
    12  C    0.099755
    13  N   -0.037898
    14  H    0.110219
    15  H    0.090332
    16  H    0.028276
    17  H    0.035482
    18  H    0.023443
    19  N   -0.305542
    20  C    0.258957
    21  C    0.182049
    22  N   -0.121068
    23  H    0.114449
    24  H    0.118298
    25  N   -0.308636
    26  C    0.244149
    27  N   -0.141418
    28  H    0.118772
    29  C    0.175161
    30  O   -0.326146
    31  C   -0.010196
    32  N   -0.229068
    33  C    0.127984
    34  H    0.026140
    35  H    0.027835
    36  H    0.028459
    37  H    0.021559
    38  H    0.049079
    39  H    0.063711
    40  H    0.075342
    41  H    0.025392
    42  C   -0.061750
    43  O   -0.280304
    44  C    0.166022
    45  H    0.136191
    46  N   -0.126147
    47  O   -0.348384
    48  C    0.345527
    49  H    0.042330
    50  C    0.163074
    51  C    0.039965
    52  N   -0.283748
    53  H    0.031970
    54  H    0.040115
    55  H    0.015488
    56  H    0.118865
    57  H    0.116957
    58  N   -0.023612
    59  C    0.097591
    60  C    0.233409
    61  N   -0.276632
    62  H    0.031587
    63  C    0.159325
    64  N   -0.303841
    65  H    0.025920
    66  C    0.118574
    67  N   -0.247466
    68  C    0.007829
    69  C    0.182341
    70  N   -0.303836
 Sum of Mulliken charges =  -0.00000

 Dipole moment (field-independent basis, Debye):
    X=              5.2681    Y=              5.2407    Z=              4.6229  Tot=              8.7515
 Quadrupole moment (field-independent basis, Debye-Ang):
   XX=           -142.1334   YY=           -226.9968   ZZ=           -254.2969
   XY=              7.9092   XZ=             19.5744   YZ=              5.8916

 Normal termination of Gaussian 16 at Fri Jan 19 00:21:16 2018.
