 Gaussian 16, Revision A.03,
 Gaussian 16:  EM64L-G16RevA.03 25-Dec-2016

 ---------------------------------------
 #p wb97xd/cc-pvdz sp scf=(maxcycles=20)
 ---------------------------------------

 ------------------
 Base pair stacking
 ------------------
 Symbolic Z-matrix:
 Charge =  0 Multiplicity = 1

                         Standard orientation:
 ---------------------------------------------------------------------
 Center     Atomic      Atomic             Coordinates (Angstroms)
 Number     Number       Type             X           Y           Z
 ---------------------------------------------------------------------
      1          7           0        4.212908   -1.810617   -1.560148
      2          6           0        5.479481   -1.434921   -2.217928
      3          6           0        2.094165   -1.931616   -0.982573
      4          7           0        2.766754   -2.845750   -0.184632
      5          6           0        4.016301   -2.736252   -0.564533
      6          1           0        4.843557   -3.311905   -0.148343
      7          7           0        0.399975   -0.621265   -1.970322
      8          6           0        1.362184   -0.085231   -2.728211
      9          1           0        1.028564    0.671725   -3.436710
     10          7           0        2.668491   -0.342669   -2.742257
     11          6           0        2.972374   -1.285956   -1.835450
     12          6           0        0.737958   -1.567744   -1.067529
     13          7           0       -0.221129   -2.103999   -0.310062
     14          1           0       -0.016626   -2.807745    0.371209
     15          1           0       -1.176239   -1.820745   -0.397696
     16          1           0        5.878375   -2.238570   -2.659744
     17          1           0        5.302948   -0.731037   -2.905320
     18          1           0        6.118986   -1.079668   -1.536141
     19          7           0        5.899808    1.095438    0.417204
     20          6           0        4.558714    1.394549    0.422296
     21          6           0        6.945861    1.875632   -0.274013
     22          7           0        1.929779    3.441355   -0.558033
     23          1           0        0.939005    3.481064   -0.431368
     24          1           0        2.345666    4.163118   -1.111939
     25          7           0        3.975916    2.443009   -0.198299
     26          6           0        2.668346    2.464502   -0.010155
     27          7           0        1.982085    1.531543    0.728868
     28          1           0        0.982236    1.627070    0.819106
     29          6           0        2.561183    0.444560    1.376152
     30          8           0        1.851350   -0.339639    2.017955
     31          6           0        3.965566    0.408100    1.183147
     32          7           0        4.915179   -0.492192    1.646401
     33          6           0        6.044778   -0.045388    1.168302
     34          1           0        7.016746   -0.511462    1.333651
     35          1           0        7.405490    1.297166   -0.947013
     36          1           0        6.526004    2.654928   -0.737353
     37          1           0        7.613195    2.205636    0.392753
     38          1           0       -4.035860    2.299551    0.350870
     39          1           0       -3.874489    3.044638    1.939403
     40          1           0       -2.548002    3.143738    0.780978
     41          1           0       -3.738803   -1.613940    3.133471
     42          6           0       -3.085135   -0.851583    2.709493
     43          8           0       -1.094964   -2.086200    3.086414
     44          6           0       -1.673082   -1.081095    2.673704
     45          1           0        0.063694   -0.179546    2.074422
     46          7           0       -0.937863   -0.053938    2.117245
     47          8           0       -0.686560    1.979536    1.137943
     48          6           0       -1.418208    1.128083    1.611625
     49          1           0       -4.649627    0.514444    2.227700
     50          6           0       -3.583511    0.291440    2.223994
     51          6           0       -3.348952    2.522674    1.153643
     52          7           0       -2.789553    1.275350    1.681855
     53          1           0       -6.994343    1.901041   -3.252673
     54          1           0       -5.569990    2.506125   -2.735753
     55          1           0       -6.939456    2.819717   -1.904919
     56          1           0       -3.513288   -3.087961    0.996746
     57          1           0       -5.211540   -2.930996    0.959563
     58          7           0       -4.315982   -2.580370    0.683435
     59          6           0       -4.198483   -1.484497   -0.069182
     60          6           0       -5.013560    0.377539   -1.306205
     61          7           0       -3.798088    0.825394   -1.661843
     62          1           0       -1.825629    0.330997   -1.405687
     63          6           0       -2.846497    0.038322   -1.163948
     64          7           0       -2.962153   -1.059706   -0.409938
     65          1           0       -8.241509    0.321345   -1.134962
     66          6           0       -7.174558    0.117616   -1.039873
     67          7           0       -6.664626   -0.889343   -0.373759
     68          6           0       -5.295141   -0.736349   -0.534531
     69          6           0       -6.451524    2.134603   -2.445946
     70          7           0       -6.232534    0.924870   -1.629492
 ---------------------------------------------------------------------

 SCF Done:  E(RwB97XD) =  -2048.74977773     A.U. after   15 cycles

 The electronic state is 1-A.
 Alpha  occ. eigenvalues --  -19.25232 -19.21683 -19.20816 -14.52610 -14.51691
 Alpha  occ. eigenvalues --  -14.49653 -14.48485 -14.48273 -14.47263 -14.47091
 Alpha  occ. eigenvalues --  -14.46883 -14.45471 -14.44771 -14.44662 -14.42678
 Alpha  occ. eigenvalues --  -14.42328 -14.41816 -14.41210 -14.40832 -14.40716
 Alpha  occ. eigenvalues --  -10.44814 -10.41560 -10.40174 -10.39673 -10.38562
 Alpha  occ. eigenvalues --  -10.38078 -10.37513 -10.36886 -10.36226 -10.35738
 Alpha  occ. eigenvalues --  -10.35005 -10.34196 -10.34185 -10.33979 -10.33696
 Alpha  occ. eigenvalues --  -10.33395 -10.33367 -10.32977 -10.31778 -10.30870
 Alpha  occ. eigenvalues --  -10.30303 -10.28737 -10.28571  -1.18781  -1.15384
 Alpha  occ. eigenvalues --   -1.13577  -1.12634  -1.11251  -1.11117  -1.09665
 Alpha  occ. eigenvalues --   -1.08859  -1.08530  -1.05336  -1.05131  -1.01889
 Alpha  occ. eigenvalues --   -1.01086  -1.00700  -1.00006  -0.98996  -0.97298
 Alpha  occ. eigenvalues --   -0.97243  -0.96710  -0.93022  -0.90314  -0.87864
 Alpha  occ. eigenvalues --   -0.86031  -0.84810  -0.83858  -0.83248  -0.82787
 Alpha  occ. eigenvalues --   -0.82270  -0.78224  -0.77229  -0.75170  -0.75125
 Alpha  occ. eigenvalues --   -0.73959  -0.72948  -0.72731  -0.71180  -0.70611
 Alpha  occ. eigenvalues --   -0.67777  -0.67026  -0.66370  -0.65948  -0.64800
 Alpha  occ. eigenvalues --   -0.64416  -0.63464  -0.62930  -0.62811  -0.62148
 Alpha  occ. eigenvalues --   -0.60719  -0.60622  -0.60213  -0.59668  -0.58952
 Alpha  occ. eigenvalues --   -0.58928  -0.58584  -0.57923  -0.56623  -0.55870
 Alpha  occ. eigenvalues --   -0.55801  -0.55721  -0.55367  -0.54617  -0.54348
 Alpha  occ. eigenvalues --   -0.54004  -0.53791  -0.53486  -0.53280  -0.52974
 Alpha  occ. eigenvalues --   -0.52700  -0.51702  -0.51667  -0.50756  -0.50615
 Alpha  occ. eigenvalues --   -0.50409  -0.50087  -0.49737  -0.49410  -0.48991
 Alpha  occ. eigenvalues --   -0.48921  -0.48495  -0.48385  -0.47556  -0.47313
 Alpha  occ. eigenvalues --   -0.46991  -0.45785  -0.45475  -0.45166  -0.42705
 Alpha  occ. eigenvalues --   -0.41331  -0.40929  -0.39069  -0.38008  -0.37860
 Alpha  occ. eigenvalues --   -0.37779  -0.37572  -0.37105  -0.35441  -0.35016
 Alpha  occ. eigenvalues --   -0.34696  -0.34263  -0.33471  -0.33411  -0.33285
 Alpha  occ. eigenvalues --   -0.33236  -0.32755  -0.32150  -0.31058  -0.30928
 Alpha  occ. eigenvalues --   -0.30619  -0.30390  -0.26419  -0.25570
 Alpha virt. eigenvalues --    0.02635   0.04820   0.06652   0.07876   0.08528
 Alpha virt. eigenvalues --    0.09026   0.09423   0.10251   0.10709   0.12428
 Alpha virt. eigenvalues --    0.13244   0.13428   0.14052   0.14389   0.14962

 Mulliken charges:
               1
     1  N   -0.302820
     2  C    0.187463
     3  C    0.039853
     4  N   -0.242379
     5  C    0.151731
     6  H    0.026964
     7  N   -0.295589
     8  C    0.126928
     9  H    0.008571
    10  N   -0.282012
    11  C    0.238357
    12  C    0.080966
    13  N   -0.060214
    14  H    0.119782
    15  H    0.090214
    16  H    0.025160
    17  H    0.032956
    18  H    0.009873
    19  N   -0.307040
    20  C    0.252078
    21  C    0.182690
    22  N   -0.122228
    23  H    0.119327
    24  H    0.119738
    25  N   -0.309941
    26  C    0.251860
    27  N   -0.143036
    28  H    0.120131
    29  C    0.191339
    30  O   -0.317116
    31  C   -0.012259
    32  N   -0.217062
    33  C    0.101948
    34  H    0.024464
    35  H    0.018154
    36  H    0.033918
    37  H    0.027885
    38  H    0.056776
    39  H    0.053281
    40  H    0.073452
    41  H    0.013658
    42  C   -0.097894
    43  O   -0.277696
    44  C    0.172223
    45  H    0.131402
    46  N   -0.123983
    47  O   -0.352012
    48  C    0.343808
    49  H    0.046286
    50  C    0.157839
    51  C    0.043986
    52  N   -0.274436
    53  H    0.035432
    54  H    0.041613
    55  H    0.029731
    56  H    0.127124
    57  H    0.118296
    58  N   -0.055033
    59  C    0.083376
    60  C    0.231842
    61  N   -0.267745
    62  H    0.036144
    63  C    0.161268
    64  N   -0.303796
    65  H    0.039711
    66  C    0.140636
    67  N   -0.259958
    68  C    0.037710
    69  C    0.179033
    70  N   -0.312727
 Sum of Mulliken charges =  -0.00000

 Dipole moment (field-independent basis, Debye):
    X=             -5.4944    Y=              6.9977    Z=             -3.9161  Tot=              9.7207
 Quadrupole moment (field-independent basis, Debye-Ang):
   XX=           -146.9878   YY=           -224.8315   ZZ=           -259.1533
   XY=             -7.6486   XZ=            -11.0973   YZ=              1.1494

 Normal termination of Gaussian 16 at Thu Jan 18 21:39:05 2018.
