 Gaussian 16, Revision A.03,
 Gaussian 16:  EM64L-G16RevA.03 25-Dec-2016

 ---------------------------------------
 #p wb97xd/cc-pvdz sp scf=(maxcycles=20)
 ---------------------------------------

 ------------------
 Base pair stacking
 ------------------
 Symbolic Z-matrix:
 Charge =  0 Multiplicity = 1

                         Standard orientation:
 ---------------------------------------------------------------------
 Center     Atomic      Atomic             Coordinates (Angstroms)
 Number     Number       Type             X           Y           Z
 ---------------------------------------------------------------------
      1          7           0        5.153042   -0.977221   -1.438495
      2          6           0        6.453349   -0.295017   -1.586185
      3          6           0        2.998054   -1.403941   -1.332534
      4          7           0        3.644248   -2.609640   -1.101319
      5          6           0        4.916689   -2.304296   -1.174406
      6          1           0        5.733321   -3.014699   -1.042591
      7          7           0        1.330856    0.236008   -1.639037
      8          6           0        2.328664    1.107146   -1.820915
      9          1           0        2.020207    2.132566   -2.020005
     10          7           0        3.644109    0.902740   -1.793927
     11          6           0        3.914979   -0.388617   -1.542029
     12          6           0        1.636197   -1.055703   -1.387416
     13          7           0        0.641549   -1.926784   -1.205567
     14          1           0        0.821094   -2.892898   -1.016876
     15          1           0       -0.316458   -1.643533   -1.251724
     16          1           0        6.963082   -0.706189   -2.342023
     17          1           0        6.302200    0.674681   -1.775866
     18          1           0        6.979586   -0.389533   -0.741119
     19          7           0        5.030321    0.954313    1.061130
     20          6           0        3.678253    1.191059    0.998459
     21          6           0        6.082113    1.886153    0.607153
     22          7           0        1.023796    3.264046    0.150930
     23          1           0        0.025435    3.239272    0.194564
     24          1           0        1.440824    4.087944   -0.233784
     25          7           0        3.088158    2.305769    0.515489
     26          6           0        1.770648    2.238998    0.588405
     27          7           0        1.081779    1.163755    1.095191
     28          1           0        0.074114    1.199840    1.111713
     29          6           0        1.668271    0.006355    1.597515
     30          8           0        0.955253   -0.906647    2.031994
     31          6           0        3.083365    0.063328    1.525823
     32          7           0        4.042647   -0.862778    1.911826
     33          6           0        5.179546   -0.292433    1.617921
     34          1           0        6.160143   -0.738644    1.787045
     35          1           0        6.626004    1.453268   -0.110900
     36          1           0        5.656921    2.715609    0.247322
     37          1           0        6.674379    2.123286    1.376436
     38          1           0       -4.920783    1.730766    0.323163
     39          1           0       -4.929071    2.194880    2.022924
     40          1           0       -3.522283    2.549552    1.019679
     41          1           0       -4.624588   -2.590309    2.417728
     42          6           0       -3.983572   -1.738997    2.188400
     43          8           0       -1.962856   -2.935088    2.524843
     44          6           0       -2.562404   -1.898935    2.239004
     45          1           0       -0.837418   -0.834463    1.956769
     46          7           0       -1.844719   -0.760634    1.931696
     47          8           0       -1.632081    1.420761    1.337117
     48          6           0       -2.349606    0.469860    1.593251
     49          1           0       -5.579750   -0.377399    1.808835
     50          6           0       -4.505795   -0.551120    1.861510
     51          6           0       -4.313803    1.839941    1.209577
     52          7           0       -3.728332    0.544619    1.566112
     53          1           0       -6.042234    3.042813   -2.303650
     54          1           0       -4.739651    3.247324   -1.342639
     55          1           0       -6.216486    3.034531   -0.681003
     56          1           0       -2.691141   -3.477531   -1.154367
     57          1           0       -4.380777   -3.326665   -1.334499
     58          7           0       -3.489943   -2.881536   -1.237108
     59          6           0       -3.373506   -1.552146   -1.218526
     60          6           0       -4.185175    0.683262   -1.295108
     61          7           0       -2.976103    1.253466   -1.163078
     62          1           0       -1.013532    0.700429   -0.955584
     63          6           0       -2.029053    0.322564   -1.066006
     64          7           0       -2.143660   -1.009387   -1.084407
     65          1           0       -7.396614    0.540793   -1.639449
     66          6           0       -6.335022    0.318754   -1.526861
     67          7           0       -5.827285   -0.888513   -1.478074
     68          6           0       -4.464868   -0.671727   -1.331277
     69          6           0       -5.616531    2.777221   -1.438644
     70          7           0       -5.398151    1.317757   -1.421992
 ---------------------------------------------------------------------

 SCF Done:  E(RwB97XD) =  -2048.70309350     A.U. after   15 cycles

 The electronic state is 1-A.
 Alpha  occ. eigenvalues --  -19.24990 -19.21332 -19.20589 -14.52862 -14.51614
 Alpha  occ. eigenvalues --  -14.49177 -14.49039 -14.48335 -14.47117 -14.46563
 Alpha  occ. eigenvalues --  -14.46434 -14.45716 -14.44693 -14.44457 -14.43084
 Alpha  occ. eigenvalues --  -14.41604 -14.41589 -14.41219 -14.41189 -14.41007
 Alpha  occ. eigenvalues --  -10.44643 -10.40827 -10.40244 -10.39432 -10.38294
 Alpha  occ. eigenvalues --  -10.38168 -10.37466 -10.37035 -10.36210 -10.36091
 Alpha  occ. eigenvalues --  -10.34614 -10.34321 -10.34321 -10.33763 -10.33731
 Alpha  occ. eigenvalues --  -10.33601 -10.33432 -10.32916 -10.31900 -10.30973
 Alpha  occ. eigenvalues --  -10.30358 -10.28841 -10.28243  -1.18811  -1.15867
 Alpha  occ. eigenvalues --   -1.13203  -1.12352  -1.11754  -1.10715  -1.09650
 Alpha  occ. eigenvalues --   -1.08611  -1.08472  -1.05732  -1.05145  -1.01815
 Alpha  occ. eigenvalues --   -1.01530  -1.01116  -0.99611  -0.98453  -0.97568
 Alpha  occ. eigenvalues --   -0.97211  -0.96677  -0.93423  -0.90263  -0.88113
 Alpha  occ. eigenvalues --   -0.86549  -0.84952  -0.83976  -0.83396  -0.82851
 Alpha  occ. eigenvalues --   -0.82381  -0.78162  -0.77435  -0.75281  -0.74703
 Alpha  occ. eigenvalues --   -0.73728  -0.73330  -0.72678  -0.71648  -0.70822
 Alpha  occ. eigenvalues --   -0.67458  -0.67207  -0.66860  -0.65984  -0.64650
 Alpha  occ. eigenvalues --   -0.64376  -0.63760  -0.63361  -0.62550  -0.62370
 Alpha  occ. eigenvalues --   -0.61739  -0.61217  -0.60851  -0.59988  -0.59121
 Alpha  occ. eigenvalues --   -0.59025  -0.58543  -0.58260  -0.57254  -0.56441
 Alpha  occ. eigenvalues --   -0.55847  -0.55574  -0.55291  -0.54762  -0.54151
 Alpha  occ. eigenvalues --   -0.54043  -0.53813  -0.53315  -0.53243  -0.52912
 Alpha  occ. eigenvalues --   -0.52672  -0.52169  -0.51472  -0.51187  -0.50510
 Alpha  occ. eigenvalues --   -0.50376  -0.49907  -0.49502  -0.49129  -0.48862
 Alpha  occ. eigenvalues --   -0.48484  -0.48127  -0.48102  -0.48020  -0.47555
 Alpha  occ. eigenvalues --   -0.47005  -0.46078  -0.44944  -0.44835  -0.42748
 Alpha  occ. eigenvalues --   -0.41378  -0.41038  -0.38809  -0.37898  -0.37834
 Alpha  occ. eigenvalues --   -0.37627  -0.37076  -0.36541  -0.35978  -0.34962
 Alpha  occ. eigenvalues --   -0.34802  -0.34427  -0.34136  -0.33649  -0.32873
 Alpha  occ. eigenvalues --   -0.32442  -0.32335  -0.31853  -0.31221  -0.31168
 Alpha  occ. eigenvalues --   -0.30569  -0.30115  -0.27093  -0.24480
 Alpha virt. eigenvalues --    0.03096   0.04251   0.06510   0.06695   0.08033
 Alpha virt. eigenvalues --    0.09253   0.09983   0.10097   0.11502   0.12803
 Alpha virt. eigenvalues --    0.12829   0.13314   0.14086   0.14501   0.14993

 Mulliken charges:
               1
     1  N   -0.296858
     2  C    0.185304
     3  C    0.081441
     4  N   -0.249365
     5  C    0.134131
     6  H    0.024589
     7  N   -0.278864
     8  C    0.136721
     9  H    0.001105
    10  N   -0.263876
    11  C    0.210266
    12  C    0.062643
    13  N   -0.045640
    14  H    0.111520
    15  H    0.084657
    16  H    0.027040
    17  H    0.041086
    18  H    0.012206
    19  N   -0.287524
    20  C    0.223012
    21  C    0.195201
    22  N   -0.101580
    23  H    0.119691
    24  H    0.118799
    25  N   -0.261312
    26  C    0.164759
    27  N   -0.104912
    28  H    0.117512
    29  C    0.163076
    30  O   -0.320175
    31  C    0.012071
    32  N   -0.211943
    33  C    0.104532
    34  H    0.022218
    35  H   -0.016374
    36  H    0.035520
    37  H    0.022718
    38  H    0.033758
    39  H    0.046541
    40  H    0.080526
    41  H    0.023798
    42  C   -0.102283
    43  O   -0.269761
    44  C    0.169869
    45  H    0.128280
    46  N   -0.107592
    47  O   -0.342552
    48  C    0.319833
    49  H    0.044629
    50  C    0.165858
    51  C    0.053670
    52  N   -0.272776
    53  H    0.035131
    54  H    0.043923
    55  H    0.030528
    56  H    0.124172
    57  H    0.120289
    58  N   -0.059024
    59  C    0.105320
    60  C    0.185923
    61  N   -0.260906
    62  H    0.007703
    63  C    0.179638
    64  N   -0.300851
    65  H    0.036743
    66  C    0.126345
    67  N   -0.250726
    68  C    0.057783
    69  C    0.181472
    70  N   -0.308655
 Sum of Mulliken charges =  -0.00000

 Dipole moment (field-independent basis, Debye):
    X=             -5.3004    Y=              6.8983    Z=             -4.0610  Tot=              9.6007
 Quadrupole moment (field-independent basis, Debye-Ang):
   XX=           -147.9408   YY=           -229.0528   ZZ=           -261.1681
   XY=             -8.6078   XZ=             -3.3947   YZ=             13.0793

 Normal termination of Gaussian 16 at Thu Jan 18 23:20:03 2018.
