 Gaussian 16, Revision A.03,
 Gaussian 16:  EM64L-G16RevA.03 25-Dec-2016

 ---------------------------------------
 #p wb97xd/cc-pvdz sp scf=(maxcycles=20)
 ---------------------------------------

 ------------------
 Base pair stacking
 ------------------
 Symbolic Z-matrix:
 Charge =  0 Multiplicity = 1

                         Standard orientation:
 ---------------------------------------------------------------------
 Center     Atomic      Atomic             Coordinates (Angstroms)
 Number     Number       Type             X           Y           Z
 ---------------------------------------------------------------------
      1          7           0       -6.333481   -1.240560    0.428564
      2          6           0       -7.629200   -0.731593    0.918527
      3          6           0       -4.184948   -1.639520    0.179687
      4          7           0       -4.831348   -2.362154   -0.812634
      5          6           0       -6.099891   -2.092870   -0.622979
      6          1           0       -6.915485   -2.492469   -1.226366
      7          7           0       -2.519571   -0.703972    1.563242
      8          6           0       -3.513309   -0.093871    2.217334
      9          1           0       -3.204037    0.535207    3.050928
     10          7           0       -4.825557   -0.143927    1.997340
     11          6           0       -5.097774   -0.943210    0.952607
     12          6           0       -2.826176   -1.501412    0.516737
     13          7           0       -1.835603   -2.111301   -0.137445
     14          1           0       -2.016216   -2.710657   -0.918067
     15          1           0       -0.879702   -1.989965    0.130277
     16          1           0       -8.206241   -1.499144    1.197950
     17          1           0       -7.476895   -0.128269    1.700785
     18          1           0       -8.086172   -0.221177    0.190077
     19          7           0       -3.779763    2.016869   -0.965059
     20          6           0       -2.429299    2.101682   -0.726092
     21          6           0       -4.809739    2.886227   -0.361676
     22          7           0        0.251674    3.616025    0.880428
     23          1           0        1.245172    3.511372    0.915722
     24          1           0       -0.148329    4.341569    1.441050
     25          7           0       -1.821256    2.986346    0.093484
     26          6           0       -0.510791    2.819688    0.115966
     27          7           0        0.155220    1.860638   -0.608047
     28          1           0        1.159107    1.806209   -0.529224
     29          6           0       -0.450015    0.939895   -1.457627
     30          8           0        0.243023    0.114802   -2.065610
     31          6           0       -1.857825    1.106548   -1.492196
     32          7           0       -2.829947    0.410976   -2.197925
     33          6           0       -3.951313    0.984511   -1.854701
     34          1           0       -4.935816    0.692931   -2.222157
     35          1           0       -5.454288    2.329023    0.160715
     36          1           0       -4.371136    3.545671    0.247443
     37          1           0       -5.299953    3.374821   -1.082623
     38          1           0        6.066183    1.640618    0.792093
     39          1           0        6.285644    2.540688   -0.706700
     40          1           0        4.806889    2.742234    0.233536
     41          1           0        5.708375   -1.913724   -2.430514
     42          6           0        5.104457   -1.099437   -2.029934
     43          8           0        3.056098   -1.968749   -2.851912
     44          6           0        3.689243   -1.107431   -2.241956
     45          1           0        2.018393   -0.002416   -1.823004
     46          7           0        3.019999   -0.031757   -1.693975
     47          8           0        2.890463    1.920257   -0.540691
     48          6           0        3.566524    1.010579   -0.987997
     49          1           0        6.738016   -0.043625   -1.156700
     50          6           0        5.666580   -0.096484   -1.345321
     51          6           0        5.565328    2.039299   -0.077544
     52          7           0        4.936480    0.947123   -0.825512
     53          1           0        4.823094    0.505424    4.265998
     54          1           0        3.607276    1.369665    3.604960
     55          1           0        5.129254    1.538065    3.039892
     56          1           0        1.462093   -3.477554   -1.016534
     57          1           0        3.133763   -3.592229   -0.696398
     58          7           0        2.261910   -3.131868   -0.525659
     59          6           0        2.170967   -2.102784    0.319257
     60          6           0        3.013169   -0.509293    1.872702
     61          7           0        1.829240    0.089653    2.082464
     62          1           0       -0.119289   -0.065116    1.466140
     63          6           0        0.876937   -0.491151    1.355357
     64          7           0        0.966022   -1.521939    0.508530
     65          1           0        6.182655   -1.054380    2.203432
     66          6           0        5.130064   -1.079319    1.919943
     67          7           0        4.606684   -1.930484    1.071850
     68          6           0        3.264894   -1.580075    1.032711
     69          6           0        4.464901    0.892171    3.416228
     70          7           0        4.222766   -0.190545    2.443037
 ---------------------------------------------------------------------

 SCF Done:  E(RwB97XD) =  -2048.75015985     A.U. after   15 cycles

 The electronic state is 1-A.
 Alpha  occ. eigenvalues --  -19.25825 -19.22016 -19.20690 -14.52466 -14.51608
 Alpha  occ. eigenvalues --  -14.49477 -14.48654 -14.47755 -14.46928 -14.46622
 Alpha  occ. eigenvalues --  -14.46256 -14.44482 -14.43144 -14.42948 -14.42547
 Alpha  occ. eigenvalues --  -14.42026 -14.41961 -14.41531 -14.40741 -14.40714
 Alpha  occ. eigenvalues --  -10.45457 -10.41184 -10.40011 -10.38501 -10.38240
 Alpha  occ. eigenvalues --  -10.37457 -10.37020 -10.36125 -10.35911 -10.35710
 Alpha  occ. eigenvalues --  -10.34745 -10.34717 -10.34266 -10.33990 -10.33604
 Alpha  occ. eigenvalues --  -10.33469 -10.33239 -10.31709 -10.31487 -10.30706
 Alpha  occ. eigenvalues --  -10.30572 -10.29121 -10.28037  -1.19419  -1.14243
 Alpha  occ. eigenvalues --   -1.13201  -1.13091  -1.12026  -1.10524  -1.09307
 Alpha  occ. eigenvalues --   -1.08557  -1.07892  -1.05535  -1.03402  -1.02514
 Alpha  occ. eigenvalues --   -1.00928  -0.99960  -0.99709  -0.98493  -0.97573
 Alpha  occ. eigenvalues --   -0.96460  -0.95517  -0.93161  -0.90809  -0.86666
 Alpha  occ. eigenvalues --   -0.85123  -0.84584  -0.84002  -0.83856  -0.82953
 Alpha  occ. eigenvalues --   -0.82313  -0.78759  -0.75887  -0.74552  -0.73707
 Alpha  occ. eigenvalues --   -0.73564  -0.73455  -0.73310  -0.71610  -0.69237
 Alpha  occ. eigenvalues --   -0.67327  -0.66847  -0.66470  -0.65572  -0.64400
 Alpha  occ. eigenvalues --   -0.63704  -0.63313  -0.62978  -0.62604  -0.61686
 Alpha  occ. eigenvalues --   -0.60771  -0.60713  -0.59462  -0.59344  -0.58473
 Alpha  occ. eigenvalues --   -0.58327  -0.58155  -0.57315  -0.57038  -0.56350
 Alpha  occ. eigenvalues --   -0.55926  -0.55816  -0.54930  -0.54441  -0.54326
 Alpha  occ. eigenvalues --   -0.53599  -0.53501  -0.52856  -0.52740  -0.52592
 Alpha  occ. eigenvalues --   -0.52341  -0.52131  -0.51826  -0.51407  -0.50765
 Alpha  occ. eigenvalues --   -0.50121  -0.49664  -0.49483  -0.49191  -0.48839
 Alpha  occ. eigenvalues --   -0.48754  -0.48307  -0.47873  -0.47576  -0.47486
 Alpha  occ. eigenvalues --   -0.47415  -0.45619  -0.45419  -0.43672  -0.43161
 Alpha  occ. eigenvalues --   -0.41727  -0.39703  -0.39412  -0.37718  -0.37224
 Alpha  occ. eigenvalues --   -0.37185  -0.37112  -0.36518  -0.35818  -0.34237
 Alpha  occ. eigenvalues --   -0.34119  -0.33947  -0.33686  -0.33297  -0.33150
 Alpha  occ. eigenvalues --   -0.32676  -0.32227  -0.31856  -0.31519  -0.31412
 Alpha  occ. eigenvalues --   -0.30910  -0.28350  -0.26346  -0.25337
 Alpha virt. eigenvalues --    0.03053   0.05073   0.07369   0.07816   0.08900
 Alpha virt. eigenvalues --    0.09073   0.09828   0.10495   0.10836   0.12006
 Alpha virt. eigenvalues --    0.13401   0.13502   0.14066   0.14687   0.14952

 Mulliken charges:
               1
     1  N   -0.310134
     2  C    0.179582
     3  C    0.044810
     4  N   -0.246798
     5  C    0.122643
     6  H    0.027483
     7  N   -0.285594
     8  C    0.135119
     9  H    0.015057
    10  N   -0.292644
    11  C    0.234780
    12  C    0.096160
    13  N   -0.039736
    14  H    0.111457
    15  H    0.092118
    16  H    0.028740
    17  H    0.035416
    18  H    0.022670
    19  N   -0.303330
    20  C    0.256823
    21  C    0.183616
    22  N   -0.120440
    23  H    0.115432
    24  H    0.117963
    25  N   -0.307757
    26  C    0.240563
    27  N   -0.144706
    28  H    0.122305
    29  C    0.175224
    30  O   -0.325831
    31  C   -0.014198
    32  N   -0.224279
    33  C    0.129574
    34  H    0.023561
    35  H    0.023791
    36  H    0.029043
    37  H    0.021085
    38  H    0.044492
    39  H    0.063698
    40  H    0.075952
    41  H    0.024351
    42  C   -0.069624
    43  O   -0.276954
    44  C    0.157609
    45  H    0.135646
    46  N   -0.123368
    47  O   -0.345264
    48  C    0.342967
    49  H    0.041945
    50  C    0.168456
    51  C    0.041826
    52  N   -0.280052
    53  H    0.033495
    54  H    0.040581
    55  H    0.012076
    56  H    0.121712
    57  H    0.116902
    58  N   -0.028730
    59  C    0.098000
    60  C    0.231718
    61  N   -0.272509
    62  H    0.033291
    63  C    0.155573
    64  N   -0.303606
    65  H    0.028855
    66  C    0.114539
    67  N   -0.245183
    68  C    0.009737
    69  C    0.183810
    70  N   -0.301508
 Sum of Mulliken charges =  -0.00000

 Dipole moment (field-independent basis, Debye):
    X=              5.1969    Y=              5.2002    Z=              4.8748  Tot=              8.8212
 Quadrupole moment (field-independent basis, Debye-Ang):
   XX=           -143.6798   YY=           -225.9123   ZZ=           -256.9649
   XY=              8.9918   XZ=             16.0023   YZ=              5.2625

 Normal termination of Gaussian 16 at Thu Jan 18 19:01:03 2018.
