 Gaussian 16, Revision A.03,
 Gaussian 16:  EM64L-G16RevA.03 25-Dec-2016

 ---------------------------------------
 #p wb97xd/cc-pvdz sp scf=(maxcycles=20)
 ---------------------------------------

 ------------------
 Base pair stacking
 ------------------
 Symbolic Z-matrix:
 Charge =  0 Multiplicity = 1

                         Standard orientation:
 ---------------------------------------------------------------------
 Center     Atomic      Atomic             Coordinates (Angstroms)
 Number     Number       Type             X           Y           Z
 ---------------------------------------------------------------------
      1          7           0       -7.081223   -0.698170    0.221267
      2          6           0       -8.342757    0.065548    0.278273
      3          6           0       -4.968947   -1.291297    0.375559
      4          7           0       -5.643121   -2.387786   -0.142064
      5          6           0       -6.888709   -1.986556   -0.214305
      6          1           0       -7.715816   -2.595128   -0.581023
      7          7           0       -3.274554    0.132308    1.191244
      8          6           0       -4.231988    1.050535    1.357855
      9          1           0       -3.896429    2.003815    1.763946
     10          7           0       -5.535566    0.968377    1.099349
     11          6           0       -5.842199   -0.242252    0.604593
     12          6           0       -3.615188   -1.075695    0.691465
     13          7           0       -2.660876   -1.993600    0.524429
     14          1           0       -2.867496   -2.901310    0.157549
     15          1           0       -1.707392   -1.805357    0.760180
     16          1           0       -8.993869   -0.407528    0.871934
     17          1           0       -8.164045    0.979117    0.642400
     18          1           0       -8.728839    0.144554   -0.640812
     19          7           0       -2.949235    1.552266   -1.474215
     20          6           0       -1.612041    1.663248   -1.178184
     21          6           0       -3.986230    2.543615   -1.124119
     22          7           0        1.017907    3.434081    0.239306
     23          1           0        2.004716    3.323284    0.354097
     24          1           0        0.608060    4.265960    0.614437
     25          7           0       -1.025502    2.688331   -0.523029
     26          6           0        0.276671    2.509220   -0.389262
     27          7           0        0.954499    1.410973   -0.860337
     28          1           0        1.950685    1.358136   -0.712716
     29          6           0        0.371405    0.344343   -1.537234
     30          8           0        1.073574   -0.599333   -1.920850
     31          6           0       -1.027249    0.522486   -1.688566
     32          7           0       -1.978185   -0.288350   -2.292864
     33          6           0       -3.100358    0.361323   -2.141648
     34          1           0       -4.070975    0.015757   -2.499097
     35          1           0       -4.673552    2.116513   -0.537620
     36          1           0       -3.563535    3.307589   -0.638399
     37          1           0       -4.422580    2.880539   -1.957732
     38          1           0        6.771688    1.391390    0.902681
     39          1           0        7.097601    1.959071   -0.733219
     40          1           0        5.575775    2.373716    0.056399
     41          1           0        6.492502   -2.745566   -1.537433
     42          6           0        5.890337   -1.856686   -1.348954
     43          8           0        3.866742   -2.844496   -2.094881
     44          6           0        4.489161   -1.885921   -1.638246
     45          1           0        2.829103   -0.691969   -1.554648
     46          7           0        3.820950   -0.709861   -1.363258
     47          8           0        3.682561    1.439991   -0.644801
     48          6           0        4.356661    0.446995   -0.855082
     49          1           0        7.502268   -0.669290   -0.615768
     50          6           0        6.441696   -0.743015   -0.852640
     51          6           0        6.330369    1.609812   -0.058352
     52          7           0        5.713403    0.396823   -0.602202
     53          1           0        4.052524    2.152317    3.408388
     54          1           0        2.939781    2.611085    2.306826
     55          1           0        4.488523    2.370898    1.850968
     56          1           0        0.531434   -3.805064    0.729403
     57          1           0        2.175077   -3.831238    1.185299
     58          7           0        1.341818   -3.300309    1.027116
     59          6           0        1.313665   -1.977990    1.205558
     60          6           0        2.240658    0.141267    1.763351
     61          7           0        1.107578    0.828413    1.543340
     62          1           0       -0.825570    0.486433    0.954626
     63          6           0        0.132547    0.008913    1.155245
     64          7           0        0.158760   -1.315756    0.975934
     65          1           0        5.337399   -0.331510    2.562632
     66          6           0        4.296628   -0.440481    2.256266
     67          7           0        3.728888   -1.577843    1.937265
     68          6           0        2.425057   -1.223181    1.622666
     69          6           0        3.757952    2.057002    2.457525
     70          7           0        3.454046    0.641116    2.173059
 ---------------------------------------------------------------------

 SCF Done:  E(RwB97XD) =  -2048.72233681     A.U. after   15 cycles

 The electronic state is 1-A.
 Alpha  occ. eigenvalues --  -19.26174 -19.21957 -19.20464 -14.52778 -14.51211
 Alpha  occ. eigenvalues --  -14.50199 -14.48112 -14.47921 -14.46540 -14.46276
 Alpha  occ. eigenvalues --  -14.46226 -14.44139 -14.43396 -14.42965 -14.42875
 Alpha  occ. eigenvalues --  -14.42495 -14.42386 -14.41855 -14.41545 -14.40519
 Alpha  occ. eigenvalues --  -10.45749 -10.40792 -10.40063 -10.38423 -10.37983
 Alpha  occ. eigenvalues --  -10.37787 -10.36834 -10.36831 -10.36219 -10.35808
 Alpha  occ. eigenvalues --  -10.35508 -10.34915 -10.34509 -10.34463 -10.33985
 Alpha  occ. eigenvalues --  -10.33414 -10.32903 -10.32126 -10.31204 -10.31140
 Alpha  occ. eigenvalues --  -10.30064 -10.29284 -10.27859  -1.19793  -1.13970
 Alpha  occ. eigenvalues --   -1.13033  -1.12995  -1.12835  -1.10230  -1.09621
 Alpha  occ. eigenvalues --   -1.08344  -1.07781  -1.06484  -1.03387  -1.02601
 Alpha  occ. eigenvalues --   -1.01903  -0.99757  -0.99420  -0.98353  -0.98270
 Alpha  occ. eigenvalues --   -0.96112  -0.95406  -0.94090  -0.91188  -0.86512
 Alpha  occ. eigenvalues --   -0.85425  -0.85043  -0.84240  -0.83682  -0.83666
 Alpha  occ. eigenvalues --   -0.81723  -0.79038  -0.75808  -0.74452  -0.74211
 Alpha  occ. eigenvalues --   -0.73582  -0.73512  -0.73261  -0.72556  -0.69212
 Alpha  occ. eigenvalues --   -0.67703  -0.67139  -0.66670  -0.65556  -0.64587
 Alpha  occ. eigenvalues --   -0.64153  -0.63396  -0.63057  -0.62556  -0.61486
 Alpha  occ. eigenvalues --   -0.61406  -0.60925  -0.59649  -0.59472  -0.58699
 Alpha  occ. eigenvalues --   -0.58246  -0.58078  -0.57891  -0.57719  -0.56801
 Alpha  occ. eigenvalues --   -0.56476  -0.56041  -0.55140  -0.54522  -0.54347
 Alpha  occ. eigenvalues --   -0.54128  -0.53327  -0.53215  -0.53043  -0.52575
 Alpha  occ. eigenvalues --   -0.52344  -0.52000  -0.51646  -0.51608  -0.51275
 Alpha  occ. eigenvalues --   -0.50355  -0.49878  -0.49510  -0.48798  -0.48552
 Alpha  occ. eigenvalues --   -0.48460  -0.48308  -0.48003  -0.47835  -0.47605
 Alpha  occ. eigenvalues --   -0.47237  -0.46109  -0.45371  -0.44236  -0.42948
 Alpha  occ. eigenvalues --   -0.41918  -0.39884  -0.39654  -0.38683  -0.37128
 Alpha  occ. eigenvalues --   -0.37064  -0.36859  -0.35916  -0.35340  -0.34932
 Alpha  occ. eigenvalues --   -0.34885  -0.34454  -0.33245  -0.33138  -0.33046
 Alpha  occ. eigenvalues --   -0.32644  -0.32458  -0.31956  -0.31832  -0.31667
 Alpha  occ. eigenvalues --   -0.31381  -0.27926  -0.26982  -0.25231
 Alpha virt. eigenvalues --    0.03083   0.04947   0.06274   0.08016   0.08582
 Alpha virt. eigenvalues --    0.09010   0.09712   0.09996   0.11106   0.12242
 Alpha virt. eigenvalues --    0.12566   0.13071   0.14544   0.14870   0.15004

 Mulliken charges:
               1
     1  N   -0.311684
     2  C    0.180280
     3  C    0.042821
     4  N   -0.256200
     5  C    0.133281
     6  H    0.031239
     7  N   -0.261504
     8  C    0.115722
     9  H    0.024948
    10  N   -0.291590
    11  C    0.237659
    12  C    0.086697
    13  N   -0.037478
    14  H    0.107820
    15  H    0.089421
    16  H    0.029283
    17  H    0.035789
    18  H    0.027291
    19  N   -0.290667
    20  C    0.232247
    21  C    0.187728
    22  N   -0.090584
    23  H    0.106497
    24  H    0.113456
    25  N   -0.287784
    26  C    0.207190
    27  N   -0.107664
    28  H    0.121002
    29  C    0.128279
    30  O   -0.322911
    31  C    0.014077
    32  N   -0.224271
    33  C    0.113805
    34  H    0.026860
    35  H    0.019177
    36  H    0.022091
    37  H    0.016662
    38  H    0.050183
    39  H    0.066539
    40  H    0.087987
    41  H    0.032126
    42  C   -0.096601
    43  O   -0.266124
    44  C    0.187563
    45  H    0.133295
    46  N   -0.126840
    47  O   -0.348080
    48  C    0.343496
    49  H    0.045685
    50  C    0.165190
    51  C    0.029669
    52  N   -0.285636
    53  H    0.032307
    54  H    0.023924
    55  H   -0.008674
    56  H    0.116852
    57  H    0.121133
    58  N   -0.065321
    59  C    0.138255
    60  C    0.218328
    61  N   -0.275309
    62  H    0.053141
    63  C    0.152309
    64  N   -0.303151
    65  H    0.023111
    66  C    0.109453
    67  N   -0.249730
    68  C    0.021489
    69  C    0.192310
    70  N   -0.287862
 Sum of Mulliken charges =  -0.00000

 Dipole moment (field-independent basis, Debye):
    X=              4.4313    Y=              5.5491    Z=              4.6170  Tot=              8.4703
 Quadrupole moment (field-independent basis, Debye-Ang):
   XX=           -137.5498   YY=           -228.1746   ZZ=           -258.4326
   XY=             18.7287   XZ=             19.9088   YZ=             -5.6553

 Normal termination of Gaussian 16 at Thu Jan 18 21:03:18 2018.
