 Gaussian 16, Revision A.03,
 Gaussian 16:  EM64L-G16RevA.03 25-Dec-2016

 ---------------------------------------
 #p wb97xd/cc-pvdz sp scf=(maxcycles=20)
 ---------------------------------------

 ------------------
 Base pair stacking
 ------------------
 Symbolic Z-matrix:
 Charge =  0 Multiplicity = 1

                         Standard orientation:
 ---------------------------------------------------------------------
 Center     Atomic      Atomic             Coordinates (Angstroms)
 Number     Number       Type             X           Y           Z
 ---------------------------------------------------------------------
      1          7           0        6.549271   -0.843789   -0.493631
      2          6           0        7.822368   -0.100394   -0.561294
      3          6           0        4.422595   -1.393790   -0.603543
      4          7           0        5.092039   -2.521071   -0.149895
      5          6           0        6.346486   -2.144594   -0.101830
      6          1           0        7.173147   -2.781186    0.214927
      7          7           0        2.730411    0.089568   -1.310030
      8          6           0        3.699074    0.996850   -1.471610
      9          1           0        3.368810    1.970859   -1.830066
     10          7           0        5.008296    0.882149   -1.257867
     11          6           0        5.307621   -0.351916   -0.819786
     12          6           0        3.063927   -1.142662   -0.867917
     13          7           0        2.098398   -2.049699   -0.705997
     14          1           0        2.299426   -2.974413   -0.380871
     15          1           0        1.141722   -1.835943   -0.904042
     16          1           0        8.445885   -0.561266   -1.192963
     17          1           0        7.649415    0.829580   -0.884325
     18          1           0        8.238129   -0.063862    0.347443
     19          7           0        3.553248    1.436184    1.377312
     20          6           0        2.210813    1.576528    1.119977
     21          6           0        4.607787    2.376139    0.947042
     22          7           0       -0.410002    3.363860   -0.293722
     23          1           0       -1.403086    3.279856   -0.370986
     24          1           0        0.012288    4.163729   -0.721029
     25          7           0        1.634196    2.588551    0.436325
     26          6           0        0.323331    2.445656    0.353614
     27          7           0       -0.371599    1.392980    0.898066
     28          1           0       -1.373385    1.365619    0.785588
     29          6           0        0.201031    0.340611    1.605516
     30          8           0       -0.516432   -0.561027    2.056110
     31          6           0        1.608848    0.480217    1.702674
     32          7           0        2.554347   -0.332056    2.313542
     33          6           0        3.690209    0.273244    2.095257
     34          1           0        4.661305   -0.086595    2.436965
     35          1           0        5.261284    1.900249    0.359437
     36          1           0        4.192549    3.130025    0.439601
     37          1           0        5.082390    2.737089    1.749085
     38          1           0       -6.243200    1.479892   -0.671989
     39          1           0       -6.495672    2.133142    0.944854
     40          1           0       -4.989518    2.461220    0.087386
     41          1           0       -6.008806   -2.546220    1.951370
     42          6           0       -5.386291   -1.687008    1.701424
     43          8           0       -3.369902   -2.704116    2.427229
     44          6           0       -3.977660   -1.748122    1.946079
     45          1           0       -2.285408   -0.613687    1.751986
     46          7           0       -3.283279   -0.608334    1.594003
     47          8           0       -3.103230    1.500254    0.770197
     48          6           0       -3.800059    0.540426    1.049179
     49          1           0       -6.984868   -0.483363    0.965502
     50          6           0       -5.919642   -0.580309    1.171001
     51          6           0       -5.762948    1.728288    0.262740
     52          7           0       -5.165515    0.522511    0.843194
     53          1           0       -4.623155    2.320824   -3.214990
     54          1           0       -3.468504    2.717096   -2.132470
     55          1           0       -5.006558    2.486244   -1.637311
     56          1           0       -1.131753   -3.796251   -0.878956
     57          1           0       -2.788943   -3.776215   -1.283224
     58          7           0       -1.941485   -3.266348   -1.131301
     59          6           0       -1.894364   -1.938777   -1.259777
     60          6           0       -2.798769    0.216292   -1.706382
     61          7           0       -1.646876    0.874641   -1.496228
     62          1           0        0.296917    0.476605   -0.982568
     63          6           0       -0.675638    0.023910   -1.170870
     64          7           0       -0.720832   -1.306064   -1.041674
     65          1           0       -5.927018   -0.171361   -2.424670
     66          6           0       -4.879448   -0.310168   -2.155830
     67          7           0       -4.323280   -1.468727   -1.898754
     68          6           0       -3.003978   -1.149195   -1.612271
     69          6           0       -4.301082    2.183539   -2.278285
     70          7           0       -4.014789    0.752625   -2.058003
 ---------------------------------------------------------------------

 SCF Done:  E(RwB97XD) =  -2048.70973612     A.U. after   15 cycles

 The electronic state is 1-A.
 Alpha  occ. eigenvalues --  -19.25819 -19.21884 -19.20475 -14.52595 -14.51778
 Alpha  occ. eigenvalues --  -14.50129 -14.48123 -14.47804 -14.47188 -14.46296
 Alpha  occ. eigenvalues --  -14.46069 -14.44684 -14.43403 -14.43284 -14.43231
 Alpha  occ. eigenvalues --  -14.42659 -14.42059 -14.41706 -14.41197 -14.40447
 Alpha  occ. eigenvalues --  -10.45476 -10.40733 -10.39973 -10.39057 -10.37903
 Alpha  occ. eigenvalues --  -10.37653 -10.37305 -10.36524 -10.36396 -10.36020
 Alpha  occ. eigenvalues --  -10.35312 -10.35043 -10.34595 -10.34048 -10.33891
 Alpha  occ. eigenvalues --  -10.33384 -10.32989 -10.32220 -10.31733 -10.30934
 Alpha  occ. eigenvalues --  -10.29816 -10.28764 -10.27698  -1.19591  -1.14493
 Alpha  occ. eigenvalues --   -1.13021  -1.12907  -1.12679  -1.10242  -1.09471
 Alpha  occ. eigenvalues --   -1.08422  -1.08208  -1.06198  -1.03957  -1.02523
 Alpha  occ. eigenvalues --   -1.01751  -1.00278  -0.99296  -0.98253  -0.98199
 Alpha  occ. eigenvalues --   -0.96055  -0.95948  -0.93889  -0.91070  -0.87157
 Alpha  occ. eigenvalues --   -0.85677  -0.85247  -0.84057  -0.83627  -0.83469
 Alpha  occ. eigenvalues --   -0.81481  -0.78910  -0.76360  -0.74310  -0.74164
 Alpha  occ. eigenvalues --   -0.74033  -0.73478  -0.73256  -0.72303  -0.69765
 Alpha  occ. eigenvalues --   -0.67532  -0.67006  -0.66569  -0.66106  -0.64783
 Alpha  occ. eigenvalues --   -0.63980  -0.63548  -0.63366  -0.62562  -0.61879
 Alpha  occ. eigenvalues --   -0.61393  -0.61257  -0.60149  -0.59547  -0.59042
 Alpha  occ. eigenvalues --   -0.58239  -0.57869  -0.57706  -0.57446  -0.56690
 Alpha  occ. eigenvalues --   -0.56413  -0.56038  -0.55549  -0.54744  -0.54511
 Alpha  occ. eigenvalues --   -0.54230  -0.53380  -0.53250  -0.53037  -0.52446
 Alpha  occ. eigenvalues --   -0.52329  -0.51936  -0.51510  -0.51465  -0.50972
 Alpha  occ. eigenvalues --   -0.50228  -0.49711  -0.49443  -0.48929  -0.48751
 Alpha  occ. eigenvalues --   -0.48415  -0.48226  -0.48097  -0.47825  -0.47338
 Alpha  occ. eigenvalues --   -0.47140  -0.45780  -0.45369  -0.44258  -0.43113
 Alpha  occ. eigenvalues --   -0.41637  -0.40230  -0.39513  -0.38404  -0.37267
 Alpha  occ. eigenvalues --   -0.37145  -0.36941  -0.36815  -0.35614  -0.34892
 Alpha  occ. eigenvalues --   -0.34615  -0.34064  -0.33641  -0.33401  -0.33047
 Alpha  occ. eigenvalues --   -0.32465  -0.32028  -0.31776  -0.31678  -0.31579
 Alpha  occ. eigenvalues --   -0.31295  -0.28739  -0.26862  -0.24986
 Alpha virt. eigenvalues --    0.02939   0.04824   0.06650   0.07763   0.08474
 Alpha virt. eigenvalues --    0.09212   0.09507   0.10218   0.11205   0.11921
 Alpha virt. eigenvalues --    0.12842   0.13075   0.14437   0.14704   0.14787

 Mulliken charges:
               1
     1  N   -0.312282
     2  C    0.178086
     3  C    0.058251
     4  N   -0.252353
     5  C    0.129374
     6  H    0.030205
     7  N   -0.266221
     8  C    0.127221
     9  H    0.018608
    10  N   -0.298822
    11  C    0.236013
    12  C    0.091935
    13  N   -0.042199
    14  H    0.108164
    15  H    0.088494
    16  H    0.030614
    17  H    0.038512
    18  H    0.026074
    19  N   -0.288981
    20  C    0.231888
    21  C    0.191335
    22  N   -0.095150
    23  H    0.113269
    24  H    0.112493
    25  N   -0.287790
    26  C    0.198599
    27  N   -0.137325
    28  H    0.134524
    29  C    0.147733
    30  O   -0.324203
    31  C    0.015065
    32  N   -0.223571
    33  C    0.118563
    34  H    0.021537
    35  H    0.021318
    36  H    0.022369
    37  H    0.010783
    38  H    0.035274
    39  H    0.064054
    40  H    0.078387
    41  H    0.030051
    42  C   -0.092268
    43  O   -0.265944
    44  C    0.179293
    45  H    0.133236
    46  N   -0.123014
    47  O   -0.338510
    48  C    0.333486
    49  H    0.043508
    50  C    0.166235
    51  C    0.047985
    52  N   -0.276884
    53  H    0.029469
    54  H    0.032466
    55  H    0.000133
    56  H    0.119834
    57  H    0.120809
    58  N   -0.063131
    59  C    0.127949
    60  C    0.213055
    61  N   -0.286263
    62  H    0.031098
    63  C    0.174332
    64  N   -0.308101
    65  H    0.034723
    66  C    0.110895
    67  N   -0.244962
    68  C    0.023533
    69  C    0.186835
    70  N   -0.289695
 Sum of Mulliken charges =  -0.00000

 Dipole moment (field-independent basis, Debye):
    X=             -4.5545    Y=              5.5155    Z=             -4.9774  Tot=              8.7143
 Quadrupole moment (field-independent basis, Debye-Ang):
   XX=           -141.9096   YY=           -227.1772   ZZ=           -261.8006
   XY=            -16.4607   XZ=             13.2633   YZ=              6.7841

 Normal termination of Gaussian 16 at Thu Jan 18 23:56:41 2018.
