 Gaussian 16, Revision A.03,
 Gaussian 16:  EM64L-G16RevA.03 25-Dec-2016

 ---------------------------------------
 #p wb97xd/cc-pvdz sp scf=(maxcycles=20)
 ---------------------------------------

 ------------------
 Base pair stacking
 ------------------
 Symbolic Z-matrix:
 Charge =  0 Multiplicity = 1

                         Standard orientation:
 ---------------------------------------------------------------------
 Center     Atomic      Atomic             Coordinates (Angstroms)
 Number     Number       Type             X           Y           Z
 ---------------------------------------------------------------------
      1          7           0       -7.097574   -0.716393    0.219429
      2          6           0       -8.364404    0.031216    0.338768
      3          6           0       -4.980965   -1.304906    0.323835
      4          7           0       -5.648053   -2.360869   -0.280036
      5          6           0       -6.896532   -1.964043   -0.318767
      6          1           0       -7.719804   -2.546950   -0.732754
      7          7           0       -3.295590    0.060356    1.250410
      8          6           0       -4.259271    0.955291    1.491241
      9          1           0       -3.929920    1.875093    1.972639
     10          7           0       -5.562582    0.884931    1.227919
     11          6           0       -5.861301   -0.284013    0.637367
     12          6           0       -3.628353   -1.105816    0.655094
     13          7           0       -2.667797   -2.000415    0.413865
     14          1           0       -2.868475   -2.877032   -0.024867
     15          1           0       -1.715357   -1.824987    0.663330
     16          1           0       -9.011368   -0.492837    0.892834
     17          1           0       -8.191659    0.913694    0.775254
     18          1           0       -8.752234    0.181309   -0.570657
     19          7           0       -2.925183    1.639510   -1.474154
     20          6           0       -1.586925    1.740693   -1.179398
     21          6           0       -3.953653    2.641117   -1.128100
     22          7           0        1.058577    3.496071    0.228334
     23          1           0        2.044498    3.377568    0.343070
     24          1           0        0.655920    4.333079    0.599806
     25          7           0       -0.991446    2.763870   -0.529363
     26          6           0        0.309256    2.574520   -0.395509
     27          7           0        0.977608    1.468465   -0.861836
     28          1           0        1.973406    1.407986   -0.714534
     29          6           0        0.385216    0.403609   -1.533418
     30          8           0        1.079245   -0.547685   -1.913029
     31          6           0       -1.012002    0.592722   -1.684801
     32          7           0       -1.970043   -0.212945   -2.284761
     33          6           0       -3.086649    0.446775   -2.135944
     34          1           0       -4.060332    0.107672   -2.491227
     35          1           0       -4.644157    2.222504   -0.539225
     36          1           0       -3.524284    3.403774   -0.646178
     37          1           0       -4.387678    2.977781   -1.963015
     38          1           0        6.795492    1.408496    0.897957
     39          1           0        7.125149    1.965813   -0.740751
     40          1           0        5.607321    2.396830    0.047783
     41          1           0        6.480294   -2.737307   -1.522689
     42          6           0        5.885688   -1.842566   -1.338013
     43          8           0        3.853460   -2.816895   -2.078179
     44          6           0        4.484136   -1.861436   -1.626363
     45          1           0        2.834159   -0.653275   -1.547405
     46          7           0        3.825944   -0.678556   -1.356488
     47          8           0        3.705951    1.475689   -0.647982
     48          6           0        4.371609    0.476137   -0.854021
     49          1           0        7.507913   -0.665266   -0.611284
     50          6           0        6.446630   -0.731230   -0.847202
     51          6           0        6.355439    1.626112   -0.063836
     52          7           0        5.728031    0.415805   -0.601670
     53          1           0        4.019934    1.947325    3.617838
     54          1           0        2.902533    2.485459    2.557685
     55          1           0        4.452332    2.293887    2.082790
     56          1           0        0.537496   -3.799643    0.469731
     57          1           0        2.181889   -3.850754    0.920824
     58          7           0        1.344698   -3.314761    0.806582
     59          6           0        1.307427   -2.011370    1.091105
     60          6           0        2.220157    0.062584    1.817308
     61          7           0        1.081972    0.757111    1.654272
     62          1           0       -0.849490    0.449910    1.041316
     63          6           0        0.112236   -0.035379    1.202069
     64          7           0        0.147575   -1.341047    0.916493
     65          1           0        5.321214   -0.450970    2.573570
     66          6           0        4.280834   -0.542322    2.260180
     67          7           0        3.720724   -1.654285    1.850916
     68          6           0        2.414012   -1.284733    1.566908
     69          6           0        3.724798    1.926881    2.662602
     70          7           0        3.430517    0.536422    2.265095
 ---------------------------------------------------------------------

 SCF Done:  E(RwB97XD) =  -2048.73858246     A.U. after   15 cycles

 The electronic state is 1-A.
 Alpha  occ. eigenvalues --  -19.26149 -19.21950 -19.20515 -14.52715 -14.51187
 Alpha  occ. eigenvalues --  -14.50116 -14.48241 -14.47879 -14.46438 -14.46397
 Alpha  occ. eigenvalues --  -14.46376 -14.44089 -14.43249 -14.42829 -14.42799
 Alpha  occ. eigenvalues --  -14.42569 -14.42316 -14.41877 -14.41427 -14.40574
 Alpha  occ. eigenvalues --  -10.45707 -10.40905 -10.40053 -10.38322 -10.38063
 Alpha  occ. eigenvalues --  -10.37742 -10.36768 -10.36704 -10.36111 -10.35760
 Alpha  occ. eigenvalues --  -10.35430 -10.34801 -10.34388 -10.34382 -10.34071
 Alpha  occ. eigenvalues --  -10.33327 -10.32963 -10.32056 -10.31142 -10.31096
 Alpha  occ. eigenvalues --  -10.29967 -10.29696 -10.27911  -1.19726  -1.13895
 Alpha  occ. eigenvalues --   -1.13056  -1.12978  -1.12742  -1.10293  -1.09565
 Alpha  occ. eigenvalues --   -1.08374  -1.07679  -1.06335  -1.03247  -1.02559
 Alpha  occ. eigenvalues --   -1.01743  -0.99683  -0.99501  -0.98314  -0.98251
 Alpha  occ. eigenvalues --   -0.96174  -0.95314  -0.93940  -0.91130  -0.86407
 Alpha  occ. eigenvalues --   -0.85289  -0.84917  -0.84171  -0.83749  -0.83569
 Alpha  occ. eigenvalues --   -0.81866  -0.78987  -0.75695  -0.74407  -0.74140
 Alpha  occ. eigenvalues --   -0.73538  -0.73443  -0.73297  -0.72412  -0.69077
 Alpha  occ. eigenvalues --   -0.67575  -0.67174  -0.66638  -0.65406  -0.64523
 Alpha  occ. eigenvalues --   -0.64003  -0.63482  -0.62925  -0.62537  -0.61495
 Alpha  occ. eigenvalues --   -0.61349  -0.60713  -0.59602  -0.59310  -0.58552
 Alpha  occ. eigenvalues --   -0.58248  -0.58129  -0.57734  -0.57605  -0.56641
 Alpha  occ. eigenvalues --   -0.56372  -0.56042  -0.54872  -0.54456  -0.54273
 Alpha  occ. eigenvalues --   -0.53911  -0.53370  -0.53095  -0.52974  -0.52605
 Alpha  occ. eigenvalues --   -0.52402  -0.52002  -0.51677  -0.51552  -0.51314
 Alpha  occ. eigenvalues --   -0.50255  -0.49909  -0.49488  -0.48721  -0.48556
 Alpha  occ. eigenvalues --   -0.48452  -0.48204  -0.48054  -0.47752  -0.47677
 Alpha  occ. eigenvalues --   -0.47279  -0.46120  -0.45263  -0.44180  -0.43029
 Alpha  occ. eigenvalues --   -0.42123  -0.39731  -0.39560  -0.38540  -0.37106
 Alpha  occ. eigenvalues --   -0.37103  -0.36766  -0.35963  -0.35335  -0.34830
 Alpha  occ. eigenvalues --   -0.34789  -0.34426  -0.33187  -0.33119  -0.32988
 Alpha  occ. eigenvalues --   -0.32607  -0.32478  -0.31928  -0.31777  -0.31718
 Alpha  occ. eigenvalues --   -0.31460  -0.28074  -0.26960  -0.25278
 Alpha virt. eigenvalues --    0.03123   0.05082   0.06456   0.08096   0.08633
 Alpha virt. eigenvalues --    0.09046   0.09733   0.10020   0.10976   0.12205
 Alpha virt. eigenvalues --    0.12721   0.12984   0.14584   0.14904   0.15104

 Mulliken charges:
               1
     1  N   -0.310850
     2  C    0.180330
     3  C    0.039852
     4  N   -0.256158
     5  C    0.132741
     6  H    0.030917
     7  N   -0.265811
     8  C    0.118967
     9  H    0.022891
    10  N   -0.289401
    11  C    0.236115
    12  C    0.087756
    13  N   -0.036734
    14  H    0.107775
    15  H    0.089717
    16  H    0.029081
    17  H    0.035855
    18  H    0.026876
    19  N   -0.293299
    20  C    0.236452
    21  C    0.185031
    22  N   -0.101197
    23  H    0.108644
    24  H    0.114899
    25  N   -0.292598
    26  C    0.218028
    27  N   -0.111504
    28  H    0.119820
    29  C    0.133148
    30  O   -0.323218
    31  C    0.009423
    32  N   -0.224683
    33  C    0.115654
    34  H    0.027841
    35  H    0.019438
    36  H    0.024364
    37  H    0.019228
    38  H    0.050836
    39  H    0.066306
    40  H    0.083567
    41  H    0.031662
    42  C   -0.095034
    43  O   -0.268019
    44  C    0.187290
    45  H    0.133681
    46  N   -0.127314
    47  O   -0.348428
    48  C    0.343324
    49  H    0.045463
    50  C    0.164411
    51  C    0.031404
    52  N   -0.286845
    53  H    0.032004
    54  H    0.029361
    55  H   -0.000036
    56  H    0.117035
    57  H    0.121314
    58  N   -0.062275
    59  C    0.138198
    60  C    0.222529
    61  N   -0.270966
    62  H    0.050295
    63  C    0.150169
    64  N   -0.302951
    65  H    0.023231
    66  C    0.110602
    67  N   -0.249466
    68  C    0.018625
    69  C    0.186466
    70  N   -0.291833
 Sum of Mulliken charges =  -0.00000

 Dipole moment (field-independent basis, Debye):
    X=              4.5664    Y=              5.6024    Z=              4.4096  Tot=              8.4666
 Quadrupole moment (field-independent basis, Debye-Ang):
   XX=           -137.8795   YY=           -227.5473   ZZ=           -257.5111
   XY=             17.8793   XZ=             20.9547   YZ=             -4.4371

 Normal termination of Gaussian 16 at Fri Jan 19 10:26:28 2018.
