 Gaussian 16, Revision A.03,
 Gaussian 16:  EM64L-G16RevA.03 25-Dec-2016

 ---------------------------------------
 #p wb97xd/cc-pvdz sp scf=(maxcycles=20)
 ---------------------------------------

 ------------------
 Base pair stacking
 ------------------
 Symbolic Z-matrix:
 Charge =  0 Multiplicity = 1

                         Standard orientation:
 ---------------------------------------------------------------------
 Center     Atomic      Atomic             Coordinates (Angstroms)
 Number     Number       Type             X           Y           Z
 ---------------------------------------------------------------------
      1          7           0        5.443029   -1.164237   -1.183683
      2          6           0        6.741910   -0.510380   -1.435465
      3          6           0        3.288941   -1.583330   -1.036776
      4          7           0        3.937638   -2.716771   -0.568556
      5          6           0        5.209437   -2.418915   -0.675805
      6          1           0        6.027541   -3.083482   -0.396486
      7          7           0        1.618352   -0.047572   -1.679856
      8          6           0        2.614346    0.782379   -2.006593
      9          1           0        2.303772    1.748163   -2.402899
     10          7           0        3.930208    0.599292   -1.917699
     11          6           0        4.203748   -0.617852   -1.419537
     12          6           0        1.926380   -1.264796   -1.181287
     13          7           0        0.933543   -2.094677   -0.854548
     14          1           0        1.115094   -3.005444   -0.482030
     15          1           0       -0.025039   -1.834462   -0.970904
     16          1           0        7.268548   -1.053124   -2.089887
     17          1           0        6.588748    0.403978   -1.809128
     18          1           0        7.252289   -0.437272   -0.578630
     19          7           0        4.739368    1.211239    1.081184
     20          6           0        3.387557    1.424757    0.958366
     21          6           0        5.795219    2.102082    0.559381
     22          7           0        0.739747    3.366983   -0.172372
     23          1           0       -0.259188    3.335607   -0.152656
     24          1           0        1.160124    4.150558   -0.630630
     25          7           0        2.801440    2.475770    0.345291
     26          6           0        1.483045    2.402111    0.390166
     27          7           0        0.789744    1.378339    0.989109
     28          1           0       -0.218270    1.404522    0.975217
     29          6           0        1.372086    0.286852    1.625816
     30          8           0        0.655244   -0.583455    2.135158
     31          6           0        2.788076    0.352010    1.585777
     32          7           0        3.744281   -0.517474    2.092294
     33          6           0        4.883902    0.031682    1.769951
     34          1           0        5.863269   -0.383143    2.010878
     35          1           0        6.362221    1.602328   -0.094502
     36          1           0        5.372993    2.884258    0.103114
     37          1           0        6.364187    2.425434    1.314717
     38          1           0       -5.194064    1.792999    0.003994
     39          1           0       -5.252793    2.433034    1.644589
     40          1           0       -3.822147    2.696252    0.646925
     41          1           0       -4.918536   -2.280406    2.549195
     42          6           0       -4.278747   -1.450692    2.248405
     43          8           0       -2.257898   -2.581826    2.762029
     44          6           0       -2.858194   -1.588310    2.352942
     45          1           0       -1.135253   -0.539910    2.005617
     46          7           0       -2.142082   -0.480536    1.946413
     47          8           0       -1.931819    1.628557    1.131123
     48          6           0       -2.647960    0.701768    1.467055
     49          1           0       -5.875479   -0.154708    1.685645
     50          6           0       -4.801918   -0.309744    1.784564
     51          6           0       -4.612511    2.001592    0.889638
     52          7           0       -4.026015    0.757633    1.395928
     53          1           0       -5.756915    2.511501   -2.998493
     54          1           0       -4.474346    2.907568   -2.070995
     55          1           0       -5.962403    2.810710   -1.407368
     56          1           0       -2.390328   -3.638718   -0.568189
     57          1           0       -4.077044   -3.540896   -0.803859
     58          7           0       -3.190881   -3.076964   -0.777217
     59          6           0       -3.082644   -1.767322   -1.010228
     60          6           0       -3.905821    0.404834   -1.525846
     61          7           0       -2.702896    1.001139   -1.483368
     62          1           0       -0.741476    0.516303   -1.139332
     63          6           0       -1.752443    0.114751   -1.193819
     64          7           0       -1.858833   -1.197364   -0.960099
     65          1           0       -7.109122    0.169051   -1.893926
     66          6           0       -6.048619   -0.017435   -1.722183
     67          7           0       -5.534818   -1.188476   -1.435197
     68          6           0       -4.176784   -0.934838   -1.308117
     69          6           0       -5.346429    2.419525   -2.091285
     70          7           0       -5.119833    0.992062   -1.792933
 ---------------------------------------------------------------------

 SCF Done:  E(RwB97XD) =  -2048.73321219     A.U. after   15 cycles

 The electronic state is 1-A.
 Alpha  occ. eigenvalues --  -19.25134 -19.21492 -19.20536 -14.52628 -14.51888
 Alpha  occ. eigenvalues --  -14.49288 -14.48796 -14.47930 -14.47286 -14.46631
 Alpha  occ. eigenvalues --  -14.46585 -14.45539 -14.44374 -14.44281 -14.42968
 Alpha  occ. eigenvalues --  -14.41790 -14.41709 -14.41338 -14.40965 -14.40871
 Alpha  occ. eigenvalues --  -10.44792 -10.41019 -10.39863 -10.39601 -10.38158
 Alpha  occ. eigenvalues --  -10.38111 -10.37256 -10.37154 -10.36070 -10.35910
 Alpha  occ. eigenvalues --  -10.34436 -10.34418 -10.34272 -10.34265 -10.33844
 Alpha  occ. eigenvalues --  -10.33623 -10.33497 -10.32641 -10.31962 -10.30857
 Alpha  occ. eigenvalues --  -10.30521 -10.28949 -10.28115  -1.18911  -1.15527
 Alpha  occ. eigenvalues --   -1.13119  -1.12507  -1.11831  -1.10568  -1.09305
 Alpha  occ. eigenvalues --   -1.08779  -1.08454  -1.05656  -1.04777  -1.01983
 Alpha  occ. eigenvalues --   -1.01252  -1.01039  -0.99615  -0.98419  -0.97546
 Alpha  occ. eigenvalues --   -0.96879  -0.96557  -0.93328  -0.90457  -0.87848
 Alpha  occ. eigenvalues --   -0.86315  -0.84664  -0.84038  -0.83224  -0.83118
 Alpha  occ. eigenvalues --   -0.82384  -0.78331  -0.77122  -0.74948  -0.74576
 Alpha  occ. eigenvalues --   -0.73551  -0.73442  -0.72857  -0.71608  -0.70499
 Alpha  occ. eigenvalues --   -0.67332  -0.66896  -0.66849  -0.66120  -0.64407
 Alpha  occ. eigenvalues --   -0.64236  -0.63773  -0.63316  -0.62536  -0.62365
 Alpha  occ. eigenvalues --   -0.61691  -0.61011  -0.60579  -0.59652  -0.59086
 Alpha  occ. eigenvalues --   -0.58536  -0.58358  -0.58199  -0.57183  -0.56216
 Alpha  occ. eigenvalues --   -0.55727  -0.55630  -0.55454  -0.54227  -0.54135
 Alpha  occ. eigenvalues --   -0.53957  -0.53806  -0.53410  -0.53030  -0.52851
 Alpha  occ. eigenvalues --   -0.52627  -0.52361  -0.51746  -0.51165  -0.50750
 Alpha  occ. eigenvalues --   -0.50189  -0.49952  -0.49443  -0.49088  -0.48740
 Alpha  occ. eigenvalues --   -0.48598  -0.48440  -0.48163  -0.47760  -0.47271
 Alpha  occ. eigenvalues --   -0.47121  -0.46072  -0.45251  -0.44748  -0.42944
 Alpha  occ. eigenvalues --   -0.41505  -0.40840  -0.38902  -0.37703  -0.37620
 Alpha  occ. eigenvalues --   -0.37600  -0.37092  -0.36767  -0.36079  -0.34726
 Alpha  occ. eigenvalues --   -0.34624  -0.34349  -0.33944  -0.33572  -0.32860
 Alpha  occ. eigenvalues --   -0.32490  -0.32061  -0.31785  -0.31440  -0.31354
 Alpha  occ. eigenvalues --   -0.30909  -0.29698  -0.26758  -0.24943
 Alpha virt. eigenvalues --    0.03201   0.04283   0.06949   0.07376   0.08685
 Alpha virt. eigenvalues --    0.09083   0.09813   0.10207   0.10666   0.12747
 Alpha virt. eigenvalues --    0.13085   0.13439   0.14166   0.14445   0.14600

 Mulliken charges:
               1
     1  N   -0.300437
     2  C    0.177708
     3  C    0.075416
     4  N   -0.247088
     5  C    0.128723
     6  H    0.025293
     7  N   -0.283911
     8  C    0.136734
     9  H    0.007858
    10  N   -0.276187
    11  C    0.214139
    12  C    0.076138
    13  N   -0.044995
    14  H    0.111516
    15  H    0.085454
    16  H    0.027686
    17  H    0.045928
    18  H    0.019464
    19  N   -0.287206
    20  C    0.233323
    21  C    0.200644
    22  N   -0.114617
    23  H    0.118983
    24  H    0.117549
    25  N   -0.287914
    26  C    0.215761
    27  N   -0.124753
    28  H    0.113989
    29  C    0.173413
    30  O   -0.322488
    31  C   -0.001290
    32  N   -0.213553
    33  C    0.111091
    34  H    0.017647
    35  H   -0.019340
    36  H    0.034344
    37  H    0.023443
    38  H    0.041106
    39  H    0.053703
    40  H    0.076970
    41  H    0.024375
    42  C   -0.100425
    43  O   -0.269235
    44  C    0.164436
    45  H    0.129422
    46  N   -0.108097
    47  O   -0.339411
    48  C    0.328391
    49  H    0.043724
    50  C    0.168892
    51  C    0.045141
    52  N   -0.272053
    53  H    0.034681
    54  H    0.043714
    55  H    0.025137
    56  H    0.124283
    57  H    0.119335
    58  N   -0.055891
    59  C    0.096473
    60  C    0.187327
    61  N   -0.253606
    62  H    0.017418
    63  C    0.162291
    64  N   -0.295213
    65  H    0.035690
    66  C    0.120127
    67  N   -0.248449
    68  C    0.055147
    69  C    0.178644
    70  N   -0.302513
 Sum of Mulliken charges =  -0.00000

 Dipole moment (field-independent basis, Debye):
    X=             -5.1869    Y=              6.3206    Z=             -4.6240  Tot=              9.3934
 Quadrupole moment (field-independent basis, Debye-Ang):
   XX=           -147.5050   YY=           -225.5404   ZZ=           -263.0077
   XY=            -10.6643   XZ=              1.4431   YZ=              7.5827

 Normal termination of Gaussian 16 at Thu Jan 18 17:59:19 2018.
