 Gaussian 16, Revision A.03,
 Gaussian 16:  EM64L-G16RevA.03 25-Dec-2016

 ---------------------------------------
 #p wb97xd/cc-pvdz sp scf=(maxcycles=20)
 ---------------------------------------

 ------------------
 Base pair stacking
 ------------------
 Symbolic Z-matrix:
 Charge =  0 Multiplicity = 1

                         Standard orientation:
 ---------------------------------------------------------------------
 Center     Atomic      Atomic             Coordinates (Angstroms)
 Number     Number       Type             X           Y           Z
 ---------------------------------------------------------------------
      1          7           0       -6.059593   -1.571602    0.260042
      2          6           0       -7.358549   -1.312694    0.910958
      3          6           0       -3.905938   -1.771390   -0.138910
      4          7           0       -4.553449   -2.145926   -1.307314
      5          6           0       -5.825035   -2.010575   -1.020201
      6          1           0       -6.642274   -2.218957   -1.711306
      7          7           0       -2.237241   -1.284196    1.455157
      8          6           0       -3.233567   -0.972274    2.290391
      9          1           0       -2.923907   -0.646939    3.282633
     10          7           0       -4.548798   -1.001754    2.084929
     11          6           0       -4.821219   -1.414784    0.836087
     12          6           0       -2.544133   -1.696365    0.205757
     13          7           0       -1.550964   -2.008178   -0.629449
     14          1           0       -1.731686   -2.317831   -1.563626
     15          1           0       -0.592948   -1.942933   -0.350027
     16          1           0       -7.899928   -2.153480    0.923862
     17          1           0       -7.206212   -1.001075    1.848411
     18          1           0       -7.853415   -0.607422    0.403331
     19          7           0       -4.076996    2.208223   -0.461161
     20          6           0       -2.722199    2.277700   -0.242582
     21          6           0       -5.104143    2.941479    0.305650
     22          7           0       -0.023825    3.548609    1.536535
     23          1           0        0.971763    3.459104    1.530386
     24          1           0       -0.420194    4.159917    2.222044
     25          7           0       -2.106663    3.021510    0.701824
     26          6           0       -0.793632    2.879355    0.665105
     27          7           0       -0.132056    2.071117   -0.227411
     28          1           0        0.874274    2.023872   -0.182342
     29          6           0       -0.745016    1.296925   -1.207599
     30          8           0       -0.055454    0.601406   -1.963563
     31          6           0       -2.155654    1.439209   -1.180539
     32          7           0       -3.135052    0.855080   -1.972038
     33          6           0       -4.255791    1.339454   -1.509935
     34          1           0       -5.244941    1.095413   -1.898898
     35          1           0       -5.726059    2.290765    0.739922
     36          1           0       -4.659981    3.495958    1.008179
     37          1           0       -5.620598    3.536065   -0.309621
     38          1           0        5.816282    1.732347    0.977104
     39          1           0        5.982408    2.878909   -0.350468
     40          1           0        4.525865    2.887991    0.644403
     41          1           0        5.429228   -1.226933   -2.796402
     42          6           0        4.823479   -0.504946   -2.248663
     43          8           0        2.767985   -1.261658   -3.159401
     44          6           0        3.403489   -0.504604   -2.426060
     45          1           0        1.727276    0.479616   -1.785792
     46          7           0        2.732259    0.448476   -1.686920
     47          8           0        2.602762    2.172370   -0.214290
     48          6           0        3.280878    1.365779   -0.826046
     49          1           0        6.462809    0.418583   -1.245918
     50          6           0        5.387746    0.377512   -1.415908
     51          6           0        5.286690    2.263477    0.200252
     52          7           0        4.655445    1.302604   -0.708592
     53          1           0        5.129770   -0.738917    4.303342
     54          1           0        3.866099    0.244151    3.988978
     55          1           0        5.364883    0.657539    3.492133
     56          1           0        1.767661   -2.857358   -1.963550
     57          1           0        3.450580   -3.001102   -1.724328
     58          7           0        2.567944   -2.662595   -1.396321
     59          6           0        2.463859   -1.981813   -0.253135
     60          6           0        3.291518   -0.967803    1.733960
     61          7           0        2.093269   -0.525361    2.149764
     62          1           0        0.135156   -0.547580    1.544867
     63          6           0        1.142473   -0.868586    1.283104
     64          7           0        1.244708   -1.550420    0.137579
     65          1           0        6.486347   -1.455934    1.817144
     66          6           0        5.427854   -1.429337    1.556695
     67          7           0        4.911824   -1.967958    0.479072
     68          6           0        3.557834   -1.682594    0.579103
     69          6           0        4.734624   -0.105043    3.638458
     70          7           0        4.504330   -0.807515    2.361151
 ---------------------------------------------------------------------

 SCF Done:  E(RwB97XD) =  -2048.72367189     A.U. after   15 cycles

 The electronic state is 1-A.
 Alpha  occ. eigenvalues --  -19.25950 -19.21950 -19.20869 -14.52639 -14.51485
 Alpha  occ. eigenvalues --  -14.49103 -14.48873 -14.47972 -14.47115 -14.46820
 Alpha  occ. eigenvalues --  -14.45741 -14.44400 -14.42901 -14.42682 -14.42162
 Alpha  occ. eigenvalues --  -14.42137 -14.41593 -14.41113 -14.40905 -14.40358
 Alpha  occ. eigenvalues --  -10.45589 -10.41376 -10.40112 -10.38437 -10.38161
 Alpha  occ. eigenvalues --  -10.37604 -10.36931 -10.36042 -10.35625 -10.35530
 Alpha  occ. eigenvalues --  -10.34613 -10.34458 -10.34316 -10.33612 -10.33386
 Alpha  occ. eigenvalues --  -10.33307 -10.33255 -10.31458 -10.31315 -10.30939
 Alpha  occ. eigenvalues --  -10.30776 -10.28713 -10.28224  -1.19552  -1.14177
 Alpha  occ. eigenvalues --   -1.13642  -1.13372  -1.11635  -1.10710  -1.09477
 Alpha  occ. eigenvalues --   -1.08740  -1.07675  -1.05167  -1.03324  -1.02701
 Alpha  occ. eigenvalues --   -1.00534  -0.99903  -0.99838  -0.98670  -0.97190
 Alpha  occ. eigenvalues --   -0.96672  -0.95341  -0.92790  -0.90934  -0.86536
 Alpha  occ. eigenvalues --   -0.84987  -0.84232  -0.84202  -0.83904  -0.82618
 Alpha  occ. eigenvalues --   -0.82579  -0.78918  -0.75796  -0.74745  -0.73793
 Alpha  occ. eigenvalues --   -0.73563  -0.73453  -0.73091  -0.71234  -0.69103
 Alpha  occ. eigenvalues --   -0.67515  -0.66621  -0.66475  -0.65504  -0.64558
 Alpha  occ. eigenvalues --   -0.63911  -0.63042  -0.62802  -0.62728  -0.61871
 Alpha  occ. eigenvalues --   -0.60633  -0.60372  -0.59490  -0.59272  -0.58517
 Alpha  occ. eigenvalues --   -0.58367  -0.58311  -0.57098  -0.56701  -0.56457
 Alpha  occ. eigenvalues --   -0.56077  -0.55461  -0.55273  -0.54589  -0.54249
 Alpha  occ. eigenvalues --   -0.53812  -0.53610  -0.53064  -0.52646  -0.52606
 Alpha  occ. eigenvalues --   -0.52173  -0.52034  -0.51708  -0.51121  -0.50439
 Alpha  occ. eigenvalues --   -0.50403  -0.50128  -0.49548  -0.49348  -0.49057
 Alpha  occ. eigenvalues --   -0.48647  -0.48489  -0.47720  -0.47628  -0.47411
 Alpha  occ. eigenvalues --   -0.47148  -0.45837  -0.45183  -0.43694  -0.42265
 Alpha  occ. eigenvalues --   -0.41327  -0.39600  -0.39545  -0.37741  -0.37421
 Alpha  occ. eigenvalues --   -0.37348  -0.37231  -0.36371  -0.35611  -0.34362
 Alpha  occ. eigenvalues --   -0.33836  -0.33735  -0.33591  -0.33468  -0.33011
 Alpha  occ. eigenvalues --   -0.32768  -0.32463  -0.32023  -0.31311  -0.31123
 Alpha  occ. eigenvalues --   -0.30537  -0.27395  -0.25900  -0.25577
 Alpha virt. eigenvalues --    0.02906   0.05024   0.07709   0.07888   0.08808
 Alpha virt. eigenvalues --    0.09008   0.09653   0.10713   0.10920   0.12217
 Alpha virt. eigenvalues --    0.13345   0.13557   0.14259   0.14418   0.14837

 Mulliken charges:
               1
     1  N   -0.309482
     2  C    0.180253
     3  C    0.046020
     4  N   -0.241735
     5  C    0.118006
     6  H    0.025377
     7  N   -0.290466
     8  C    0.135917
     9  H    0.013417
    10  N   -0.292307
    11  C    0.235570
    12  C    0.091954
    13  N   -0.039361
    14  H    0.113194
    15  H    0.093518
    16  H    0.027752
    17  H    0.034939
    18  H    0.020391
    19  N   -0.307191
    20  C    0.258759
    21  C    0.182434
    22  N   -0.123447
    23  H    0.116561
    24  H    0.119068
    25  N   -0.310461
    26  C    0.246957
    27  N   -0.149290
    28  H    0.121162
    29  C    0.190614
    30  O   -0.328727
    31  C   -0.023523
    32  N   -0.219284
    33  C    0.131425
    34  H    0.022250
    35  H    0.026604
    36  H    0.030168
    37  H    0.022885
    38  H    0.049261
    39  H    0.062270
    40  H    0.076323
    41  H    0.022256
    42  C   -0.066193
    43  O   -0.287129
    44  C    0.133322
    45  H    0.137057
    46  N   -0.112681
    47  O   -0.346922
    48  C    0.349008
    49  H    0.042272
    50  C    0.179813
    51  C    0.043096
    52  N   -0.281150
    53  H    0.032733
    54  H    0.041609
    55  H    0.017723
    56  H    0.126291
    57  H    0.113871
    58  N   -0.008972
    59  C    0.077218
    60  C    0.242556
    61  N   -0.276766
    62  H    0.029739
    63  C    0.159480
    64  N   -0.304286
    65  H    0.028759
    66  C    0.112465
    67  N   -0.249786
    68  C    0.011317
    69  C    0.181679
    70  N   -0.306156
 Sum of Mulliken charges =  -0.00000

 Dipole moment (field-independent basis, Debye):
    X=              5.4721    Y=              4.9046    Z=              5.2815  Tot=              9.0495
 Quadrupole moment (field-independent basis, Debye-Ang):
   XX=           -144.3724   YY=           -229.7792   ZZ=           -251.8365
   XY=              5.2894   XZ=             13.7369   YZ=             11.4814

 Normal termination of Gaussian 16 at Fri Jan 19 03:14:21 2018.
