 Gaussian 16, Revision A.03,
 Gaussian 16:  EM64L-G16RevA.03 25-Dec-2016

 ---------------------------------------
 #p wb97xd/cc-pvdz sp scf=(maxcycles=20)
 ---------------------------------------

 ------------------
 Base pair stacking
 ------------------
 Symbolic Z-matrix:
 Charge =  0 Multiplicity = 1

                         Standard orientation:
 ---------------------------------------------------------------------
 Center     Atomic      Atomic             Coordinates (Angstroms)
 Number     Number       Type             X           Y           Z
 ---------------------------------------------------------------------
      1          7           0       -6.608995   -1.069554    0.348309
      2          6           0       -7.900987   -0.504108    0.783081
      3          6           0       -4.466122   -1.529008    0.163098
      4          7           0       -5.111803   -2.296227   -0.795647
      5          6           0       -6.376965   -1.988711   -0.645698
      6          1           0       -7.191049   -2.406387   -1.238784
      7          7           0       -2.803681   -0.547614    1.518135
      8          6           0       -3.794303    0.122180    2.116139
      9          1           0       -3.485046    0.793693    2.915956
     10          7           0       -5.103438    0.087186    1.875642
     11          6           0       -5.375928   -0.767745    0.876004
     12          6           0       -3.110475   -1.400076    0.515999
     13          7           0       -2.123006   -2.069580   -0.082180
     14          1           0       -2.303885   -2.711017   -0.828551
     15          1           0       -1.169278   -1.952908    0.195179
     16          1           0       -8.499872   -1.240751    1.097517
     17          1           0       -7.748346    0.141986    1.530335
     18          1           0       -8.333914   -0.028938    0.017057
     19          7           0       -3.467212    2.029480   -1.113971
     20          6           0       -2.119414    2.099480   -0.855919
     21          6           0       -4.487333    2.955705   -0.582801
     22          7           0        0.567526    3.650086    0.705405
     23          1           0        1.557666    3.526385    0.765050
     24          1           0        0.174592    4.416643    1.214036
     25          7           0       -1.505490    3.018774   -0.080002
     26          6           0       -0.199688    2.825583   -0.023636
     27          7           0        0.456629    1.810402   -0.676441
     28          1           0        1.457552    1.739229   -0.576179
     29          6           0       -0.154794    0.853232   -1.480094
     30          8           0        0.529610   -0.021843   -2.024664
     31          6           0       -1.557683    1.047770   -1.550304
     32          7           0       -2.533194    0.331902   -2.230603
     33          6           0       -3.646969    0.949160   -1.942977
     34          1           0       -4.631442    0.657162   -2.310155
     35          1           0       -5.153057    2.445110   -0.039727
     36          1           0       -4.044310    3.641169   -0.006490
     37          1           0       -4.954119    3.410266   -1.340623
     38          1           0        6.336581    1.548177    0.842041
     39          1           0        6.601648    2.351055   -0.703855
     40          1           0        5.112135    2.640876    0.195426
     41          1           0        5.953117   -2.185958   -2.167235
     42          6           0        5.361069   -1.336137   -1.827386
     43          8           0        3.307783   -2.209226   -2.632901
     44          6           0        3.949829   -1.326444   -2.064338
     45          1           0        2.297527   -0.162393   -1.743089
     46          7           0        3.295887   -0.205448   -1.594260
     47          8           0        3.190991    1.815064   -0.562880
     48          6           0        3.853803    0.865653   -0.942320
     49          1           0        7.003062   -0.264882   -0.989474
     50          6           0        5.934051   -0.305960   -1.194106
     51          6           0        5.859652    1.904247   -0.058972
     52          7           0        5.219029    0.782646   -0.751337
     53          1           0        4.517651    0.664547    4.276944
     54          1           0        3.333036    1.513231    3.543093
     55          1           0        4.867783    1.614334    2.996815
     56          1           0        1.157373   -3.557200   -0.817265
     57          1           0        2.820369   -3.688285   -0.460368
     58          7           0        1.956377   -3.199772   -0.333534
     59          6           0        1.874427   -2.119773    0.446249
     60          6           0        2.726019   -0.453781    1.916288
     61          7           0        1.552545    0.182103    2.068043
     62          1           0       -0.388275    0.032362    1.426654
     63          6           0        0.599801   -0.420949    1.359866
     64          7           0        0.679887   -1.502728    0.578254
     65          1           0        5.876334   -1.046020    2.336950
     66          6           0        4.828386   -1.065377    2.036314
     67          7           0        4.300333   -1.954785    1.231459
     68          6           0        2.967659   -1.578565    1.146856
     69          6           0        4.182722    1.006841    3.399070
     70          7           0        3.932684   -0.127265    2.488417
 ---------------------------------------------------------------------

 SCF Done:  E(RwB97XD) =  -2048.75170281     A.U. after   15 cycles

 The electronic state is 1-A.
 Alpha  occ. eigenvalues --  -19.25945 -19.22137 -19.20672 -14.52501 -14.51372
 Alpha  occ. eigenvalues --  -14.49623 -14.48590 -14.47843 -14.46907 -14.46625
 Alpha  occ. eigenvalues --  -14.46006 -14.44239 -14.42876 -14.42701 -14.42607
 Alpha  occ. eigenvalues --  -14.42237 -14.41972 -14.41698 -14.40826 -14.40735
 Alpha  occ. eigenvalues --  -10.45540 -10.41177 -10.40114 -10.38226 -10.38221
 Alpha  occ. eigenvalues --  -10.37476 -10.36837 -10.36038 -10.35834 -10.35804
 Alpha  occ. eigenvalues --  -10.34899 -10.34486 -10.34272 -10.34160 -10.33752
 Alpha  occ. eigenvalues --  -10.33304 -10.33203 -10.31761 -10.31205 -10.30825
 Alpha  occ. eigenvalues --  -10.30441 -10.29313 -10.28037  -1.19513  -1.13998
 Alpha  occ. eigenvalues --   -1.13202  -1.13144  -1.12196  -1.10503  -1.09372
 Alpha  occ. eigenvalues --   -1.08554  -1.07615  -1.05669  -1.03124  -1.02578
 Alpha  occ. eigenvalues --   -1.01063  -0.99734  -0.99695  -0.98489  -0.97722
 Alpha  occ. eigenvalues --   -0.96424  -0.95249  -0.93284  -0.90879  -0.86425
 Alpha  occ. eigenvalues --   -0.84910  -0.84721  -0.84002  -0.83905  -0.83077
 Alpha  occ. eigenvalues --   -0.82244  -0.78823  -0.75646  -0.74526  -0.73631
 Alpha  occ. eigenvalues --   -0.73585  -0.73393  -0.73371  -0.71762  -0.68990
 Alpha  occ. eigenvalues --   -0.67321  -0.66982  -0.66541  -0.65314  -0.64436
 Alpha  occ. eigenvalues --   -0.63691  -0.63400  -0.62792  -0.62609  -0.61673
 Alpha  occ. eigenvalues --   -0.60816  -0.60582  -0.59476  -0.59188  -0.58325
 Alpha  occ. eigenvalues --   -0.58275  -0.58137  -0.57341  -0.57120  -0.56365
 Alpha  occ. eigenvalues --   -0.55994  -0.55906  -0.54752  -0.54379  -0.54233
 Alpha  occ. eigenvalues --   -0.53578  -0.53502  -0.52844  -0.52707  -0.52635
 Alpha  occ. eigenvalues --   -0.52315  -0.52125  -0.51592  -0.51517  -0.50872
 Alpha  occ. eigenvalues --   -0.50104  -0.49744  -0.49491  -0.48937  -0.48760
 Alpha  occ. eigenvalues --   -0.48594  -0.48262  -0.47864  -0.47656  -0.47622
 Alpha  occ. eigenvalues --   -0.47413  -0.45664  -0.45330  -0.43832  -0.43165
 Alpha  occ. eigenvalues --   -0.41863  -0.39530  -0.39464  -0.37895  -0.37234
 Alpha  occ. eigenvalues --   -0.37172  -0.36922  -0.36299  -0.35657  -0.34350
 Alpha  occ. eigenvalues --   -0.34219  -0.34155  -0.33357  -0.33322  -0.32899
 Alpha  occ. eigenvalues --   -0.32684  -0.32167  -0.31871  -0.31687  -0.31562
 Alpha  occ. eigenvalues --   -0.31026  -0.28160  -0.26500  -0.25317
 Alpha virt. eigenvalues --    0.03019   0.05342   0.07230   0.08025   0.08947
 Alpha virt. eigenvalues --    0.09172   0.09769   0.10326   0.10740   0.12055
 Alpha virt. eigenvalues --    0.13263   0.13372   0.14347   0.14781   0.15110

 Mulliken charges:
               1
     1  N   -0.310198
     2  C    0.180056
     3  C    0.040894
     4  N   -0.250552
     5  C    0.125741
     6  H    0.028316
     7  N   -0.282507
     8  C    0.132950
     9  H    0.016481
    10  N   -0.293154
    11  C    0.235210
    12  C    0.098735
    13  N   -0.038536
    14  H    0.110029
    15  H    0.090021
    16  H    0.028569
    17  H    0.035425
    18  H    0.023884
    19  N   -0.303251
    20  C    0.257260
    21  C    0.183118
    22  N   -0.118993
    23  H    0.113927
    24  H    0.117692
    25  N   -0.307007
    26  C    0.240141
    27  N   -0.139199
    28  H    0.119438
    29  C    0.169249
    30  O   -0.325393
    31  C   -0.007566
    32  N   -0.228050
    33  C    0.126148
    34  H    0.025515
    35  H    0.024540
    36  H    0.028099
    37  H    0.020998
    38  H    0.047740
    39  H    0.064398
    40  H    0.076111
    41  H    0.026363
    42  C   -0.068623
    43  O   -0.276633
    44  C    0.167973
    45  H    0.135767
    46  N   -0.126082
    47  O   -0.347172
    48  C    0.343060
    49  H    0.042521
    50  C    0.163734
    51  C    0.038830
    52  N   -0.282215
    53  H    0.032497
    54  H    0.039555
    55  H    0.012370
    56  H    0.119547
    57  H    0.118055
    58  N   -0.034471
    59  C    0.105829
    60  C    0.229853
    61  N   -0.275611
    62  H    0.032674
    63  C    0.160127
    64  N   -0.303999
    65  H    0.026911
    66  C    0.117664
    67  N   -0.246426
    68  C    0.009791
    69  C    0.183679
    70  N   -0.301845
 Sum of Mulliken charges =  -0.00000

 Dipole moment (field-independent basis, Debye):
    X=              5.1451    Y=              5.3464    Z=              4.5741  Tot=              8.7166
 Quadrupole moment (field-independent basis, Debye-Ang):
   XX=           -142.1368   YY=           -226.0449   ZZ=           -256.2837
   XY=             10.1255   XZ=             18.8405   YZ=              3.4968

 Normal termination of Gaussian 16 at Thu Jan 18 19:50:19 2018.
