 Gaussian 16, Revision A.03,
 Gaussian 16:  EM64L-G16RevA.03 25-Dec-2016

 ---------------------------------------
 #p wb97xd/cc-pvdz sp scf=(maxcycles=20)
 ---------------------------------------

 ------------------
 Base pair stacking
 ------------------
 Symbolic Z-matrix:
 Charge =  0 Multiplicity = 1

                         Standard orientation:
 ---------------------------------------------------------------------
 Center     Atomic      Atomic             Coordinates (Angstroms)
 Number     Number       Type             X           Y           Z
 ---------------------------------------------------------------------
      1          7           0       -5.451054   -1.975088    0.310960
      2          6           0       -6.741596   -1.866648    1.018607
      3          6           0       -3.303444   -1.991810   -0.163166
      4          7           0       -3.964097   -2.295614   -1.344680
      5          6           0       -5.231512   -2.273379   -1.011743
      6          1           0       -6.056241   -2.468994   -1.697672
      7          7           0       -1.617332   -1.548544    1.425387
      8          6           0       -2.603305   -1.384838    2.313444
      9          1           0       -2.282340   -1.135644    3.323953
     10          7           0       -3.920058   -1.482278    2.141451
     11          6           0       -4.206802   -1.791622    0.866101
     12          6           0       -1.938531   -1.859292    0.150495
     13          7           0       -0.955722   -2.023106   -0.737429
     14          1           0       -1.147162   -2.253666   -1.692108
     15          1           0        0.004923   -1.921020   -0.478786
     16          1           0       -7.227492   -2.739075    0.964154
     17          1           0       -6.578478   -1.636351    1.977491
     18          1           0       -7.297012   -1.150785    0.595458
     19          7           0       -4.719314    1.949892   -0.178279
     20          6           0       -3.365228    2.088440    0.009592
     21          6           0       -5.765186    2.536540    0.683516
     22          7           0       -0.695985    3.361148    1.830883
     23          1           0        0.302534    3.339259    1.789346
     24          1           0       -1.107614    3.876509    2.583001
     25          7           0       -2.767454    2.778243    1.005033
     26          6           0       -1.449967    2.728154    0.919443
     27          7           0       -0.768101    2.054626   -0.064901
     28          1           0        0.240133    2.070543   -0.051659
     29          6           0       -1.362548    1.338239   -1.098963
     30          8           0       -0.655430    0.765503   -1.937244
     31          6           0       -2.777719    1.382864   -1.020351
     32          7           0       -3.743532    0.812814   -1.838362
     33          6           0       -4.876968    1.175075   -1.301424
     34          1           0       -5.860873    0.903779   -1.685605
     35          1           0       -6.329586    1.807351    1.068944
     36          1           0       -5.334291    3.049908    1.424485
     37          1           0       -6.338638    3.151285    0.143091
     38          1           0        5.226374    2.000181    0.940911
     39          1           0        5.274905    3.276594   -0.272789
     40          1           0        3.854519    3.093591    0.756961
     41          1           0        4.904124   -0.605106   -3.090866
     42          6           0        4.272022    0.019357   -2.459422
     43          8           0        2.239970   -0.782532   -3.383987
     44          6           0        2.849808   -0.058134   -2.597774
     45          1           0        1.136341    0.746535   -1.820044
     46          7           0        2.143986    0.773235   -1.751679
     47          8           0        1.953608    2.336387   -0.115376
     48          6           0        2.661183    1.638841   -0.820675
     49          1           0        5.881410    0.950389   -1.415930
     50          6           0        4.806109    0.854081   -1.560202
     51          6           0        4.638513    2.566427    0.233908
     52          7           0        4.040106    1.656606   -0.746845
     53          1           0        5.790195   -0.786986    4.114426
     54          1           0        4.456640    0.135066    3.931216
     55          1           0        5.908689    0.693004    3.436918
     56          1           0        2.364305   -2.517936   -2.236377
     57          1           0        4.059968   -2.571237   -2.057506
     58          7           0        3.168887   -2.325176   -1.674554
     59          6           0        3.059509   -1.764935   -0.468185
     60          6           0        3.886150   -0.892028    1.585211
     61          7           0        2.676556   -0.572173    2.074085
     62          1           0        0.704885   -0.667220    1.522660
     63          6           0        1.721409   -0.893880    1.203979
     64          7           0        1.828930   -1.455055   -0.004785
     65          1           0        7.106629   -1.171621    1.534765
     66          6           0        6.040548   -1.190995    1.306632
     67          7           0        5.524514   -1.657670    0.195956
     68          6           0        4.159136   -1.474104    0.359573
     69          6           0        5.333574   -0.120408    3.525216
     70          7           0        5.106390   -0.711703    2.192266
 ---------------------------------------------------------------------

 SCF Done:  E(RwB97XD) =  -2048.72723089     A.U. after   15 cycles

 The electronic state is 1-A.
 Alpha  occ. eigenvalues --  -19.25796 -19.21762 -19.20861 -14.52353 -14.52014
 Alpha  occ. eigenvalues --  -14.49060 -14.48782 -14.47882 -14.47120 -14.46876
 Alpha  occ. eigenvalues --  -14.46463 -14.44927 -14.43705 -14.43583 -14.42211
 Alpha  occ. eigenvalues --  -14.42090 -14.41125 -14.41085 -14.40957 -14.40310
 Alpha  occ. eigenvalues --  -10.45373 -10.41445 -10.40323 -10.38933 -10.38481
 Alpha  occ. eigenvalues --  -10.37522 -10.37369 -10.36628 -10.35405 -10.35317
 Alpha  occ. eigenvalues --  -10.35192 -10.34597 -10.33888 -10.33638 -10.33595
 Alpha  occ. eigenvalues --  -10.33366 -10.33143 -10.32013 -10.31309 -10.31235
 Alpha  occ. eigenvalues --  -10.30788 -10.28458 -10.28347  -1.19387  -1.14728
 Alpha  occ. eigenvalues --   -1.13477  -1.13428  -1.11298  -1.10843  -1.09259
 Alpha  occ. eigenvalues --   -1.08790  -1.08495  -1.05046  -1.04042  -1.02599
 Alpha  occ. eigenvalues --   -1.00420  -1.00375  -0.99955  -0.98756  -0.96940
 Alpha  occ. eigenvalues --   -0.96795  -0.96129  -0.92692  -0.90878  -0.87093
 Alpha  occ. eigenvalues --   -0.85453  -0.84375  -0.83976  -0.83682  -0.82797
 Alpha  occ. eigenvalues --   -0.82391  -0.78798  -0.76407  -0.74876  -0.74258
 Alpha  occ. eigenvalues --   -0.73845  -0.73346  -0.72887  -0.71043  -0.69704
 Alpha  occ. eigenvalues --   -0.67615  -0.66520  -0.66277  -0.66149  -0.64599
 Alpha  occ. eigenvalues --   -0.63961  -0.63505  -0.62831  -0.62675  -0.61985
 Alpha  occ. eigenvalues --   -0.60737  -0.60289  -0.59845  -0.59333  -0.58934
 Alpha  occ. eigenvalues --   -0.58705  -0.58588  -0.57237  -0.56564  -0.56315
 Alpha  occ. eigenvalues --   -0.56037  -0.55384  -0.55191  -0.54792  -0.54368
 Alpha  occ. eigenvalues --   -0.53908  -0.53767  -0.53223  -0.53087  -0.52744
 Alpha  occ. eigenvalues --   -0.52446  -0.52237  -0.51853  -0.50901  -0.50435
 Alpha  occ. eigenvalues --   -0.50291  -0.50030  -0.49563  -0.49488  -0.49086
 Alpha  occ. eigenvalues --   -0.48800  -0.48625  -0.47867  -0.47603  -0.47366
 Alpha  occ. eigenvalues --   -0.46973  -0.46168  -0.44843  -0.44015  -0.42829
 Alpha  occ. eigenvalues --   -0.41068  -0.40168  -0.39427  -0.37911  -0.37465
 Alpha  occ. eigenvalues --   -0.37399  -0.37018  -0.36871  -0.35761  -0.34591
 Alpha  occ. eigenvalues --   -0.33928  -0.33713  -0.33585  -0.33345  -0.33304
 Alpha  occ. eigenvalues --   -0.32872  -0.32360  -0.31903  -0.31801  -0.30876
 Alpha  occ. eigenvalues --   -0.30400  -0.28788  -0.26313  -0.25091
 Alpha virt. eigenvalues --    0.03335   0.04580   0.07413   0.07673   0.08332
 Alpha virt. eigenvalues --    0.09242   0.09493   0.10649   0.11030   0.11815
 Alpha virt. eigenvalues --    0.12902   0.13356   0.14204   0.14375   0.14908

 Mulliken charges:
               1
     1  N   -0.307526
     2  C    0.179962
     3  C    0.048593
     4  N   -0.235818
     5  C    0.123987
     6  H    0.023131
     7  N   -0.295281
     8  C    0.134838
     9  H    0.011186
    10  N   -0.290046
    11  C    0.237250
    12  C    0.089573
    13  N   -0.041436
    14  H    0.115811
    15  H    0.086938
    16  H    0.027273
    17  H    0.034262
    18  H    0.017469
    19  N   -0.307617
    20  C    0.261160
    21  C    0.181846
    22  N   -0.124618
    23  H    0.117560
    24  H    0.119377
    25  N   -0.311693
    26  C    0.249847
    27  N   -0.149036
    28  H    0.119446
    29  C    0.196197
    30  O   -0.327284
    31  C   -0.023257
    32  N   -0.212203
    33  C    0.122686
    34  H    0.018477
    35  H    0.023524
    36  H    0.031692
    37  H    0.024537
    38  H    0.049600
    39  H    0.060455
    40  H    0.076365
    41  H    0.021453
    42  C   -0.100231
    43  O   -0.292612
    44  C    0.150879
    45  H    0.129780
    46  N   -0.098225
    47  O   -0.349786
    48  C    0.341718
    49  H    0.044552
    50  C    0.183683
    51  C    0.044642
    52  N   -0.280235
    53  H    0.034172
    54  H    0.042360
    55  H    0.022297
    56  H    0.130644
    57  H    0.112530
    58  N   -0.025109
    59  C    0.060097
    60  C    0.236383
    61  N   -0.270544
    62  H    0.030201
    63  C    0.160965
    64  N   -0.297111
    65  H    0.034007
    66  C    0.121439
    67  N   -0.254709
    68  C    0.038187
    69  C    0.179954
    70  N   -0.308602
 Sum of Mulliken charges =  -0.00000

 Dipole moment (field-independent basis, Debye):
    X=              5.3696    Y=              4.7688    Z=              6.0081  Tot=              9.3633
 Quadrupole moment (field-independent basis, Debye-Ang):
   XX=           -146.1935   YY=           -231.5122   ZZ=           -251.1897
   XY=              7.0154   XZ=              8.0450   YZ=             13.1575

 Normal termination of Gaussian 16 at Fri Jan 19 03:26:07 2018.
