 Gaussian 16, Revision A.03,
 Gaussian 16:  EM64L-G16RevA.03 25-Dec-2016

 ---------------------------------------
 #p wb97xd/cc-pvdz sp scf=(maxcycles=20)
 ---------------------------------------

 ------------------
 Base pair stacking
 ------------------
 Symbolic Z-matrix:
 Charge =  0 Multiplicity = 1

                         Standard orientation:
 ---------------------------------------------------------------------
 Center     Atomic      Atomic             Coordinates (Angstroms)
 Number     Number       Type             X           Y           Z
 ---------------------------------------------------------------------
      1          7           0        4.516481   -2.003208   -1.145361
      2          6           0        5.792140   -1.721051   -1.831731
      3          6           0        2.387135   -2.063163   -0.598013
      4          7           0        3.054469   -2.817587    0.356044
      5          6           0        4.310616   -2.751278   -0.011904
      6          1           0        5.136376   -3.233664    0.511898
      7          7           0        0.697200   -0.968527   -1.826355
      8          6           0        1.668577   -0.550668   -2.644526
      9          1           0        1.340311    0.070013   -3.477138
     10          7           0        2.978416   -0.783314   -2.588861
     11          6           0        3.275126   -1.554759   -1.529966
     12          6           0        1.028133   -1.743169   -0.770193
     13          7           0        0.059892   -2.161274    0.047658
     14          1           0        0.258945   -2.736412    0.841890
     15          1           0       -0.896942   -1.914004   -0.105559
     16          1           0        6.212407   -2.580356   -2.123515
     17          1           0        5.621184   -1.146307   -2.631462
     18          1           0        6.410869   -1.244615   -1.207095
     19          7           0        5.622341    1.287995    0.341332
     20          6           0        4.277324    1.559595    0.269129
     21          6           0        6.672518    1.959227   -0.450663
     22          7           0        1.642271    3.364520   -1.094874
     23          1           0        0.648423    3.407234   -0.996504
     24          1           0        2.060240    3.990000   -1.754259
     25          7           0        3.693813    2.477904   -0.531046
     26          6           0        2.382132    2.507324   -0.375331
     27          7           0        1.692709    1.700051    0.496742
     28          1           0        0.689807    1.791471    0.549606
     29          6           0        2.272477    0.748208    1.329644
     30          8           0        1.559579    0.070738    2.080332
     31          6           0        3.681254    0.704944    1.173603
     32          7           0        4.632915   -0.087264    1.801023
     33          6           0        5.766555    0.292795    1.276979
     34          1           0        6.741084   -0.121260    1.537980
     35          1           0        7.155522    1.283989   -1.007055
     36          1           0        6.252165    2.641674   -1.047182
     37          1           0        7.319778    2.408749    0.163986
     38          1           0       -4.325493    2.285364   -0.125394
     39          1           0       -4.210864    3.290188    1.317470
     40          1           0       -2.860005    3.216485    0.185613
     41          1           0       -4.035632   -1.097462    3.283274
     42          6           0       -3.383493   -0.405837    2.749811
     43          8           0       -1.384908   -1.523413    3.369333
     44          6           0       -1.967854   -0.612731    2.781435
     45          1           0       -0.231017    0.205967    2.073304
     46          7           0       -1.234981    0.319019    2.074339
     47          8           0       -0.990654    2.162631    0.771030
     48          6           0       -1.720605    1.390163    1.366966
     49          1           0       -4.956050    0.831235    2.013235
     50          6           0       -3.887041    0.629948    2.068484
     51          6           0       -3.660229    2.652816    0.641726
     52          7           0       -3.095157    1.522542    1.383972
     53          1           0       -6.701478    1.168696   -3.663266
     54          1           0       -5.298019    1.877655   -3.227613
     55          1           0       -6.690321    2.302126   -2.489103
     56          1           0       -3.246635   -2.969898    1.435911
     57          1           0       -4.945681   -2.851923    1.338905
     58          7           0       -4.049204   -2.536816    1.025457
     59          6           0       -3.930364   -1.581464    0.101143
     60          6           0       -4.743742    0.030645   -1.448443
     61          7           0       -3.527052    0.433910   -1.850274
     62          1           0       -1.554037    0.025176   -1.475069
     63          6           0       -2.575830   -0.240849   -1.207796
     64          7           0       -2.692829   -1.198057   -0.281708
     65          1           0       -7.973611   -0.053775   -1.334573
     66          6           0       -6.906282   -0.219404   -1.185195
     67          7           0       -6.397232   -1.090444   -0.348638
     68          6           0       -5.026780   -0.942198   -0.505588
     69          6           0       -6.180492    1.544518   -2.896883
     70          7           0       -5.962781    0.493740   -1.883732
 ---------------------------------------------------------------------

 SCF Done:  E(RwB97XD) =  -2048.74939793     A.U. after   15 cycles

 The electronic state is 1-A.
 Alpha  occ. eigenvalues --  -19.25288 -19.21826 -19.20801 -14.52632 -14.51765
 Alpha  occ. eigenvalues --  -14.49467 -14.48587 -14.48023 -14.47302 -14.47023
 Alpha  occ. eigenvalues --  -14.46824 -14.45486 -14.44650 -14.44522 -14.42535
 Alpha  occ. eigenvalues --  -14.42213 -14.41593 -14.41154 -14.40886 -14.40637
 Alpha  occ. eigenvalues --  -10.44866 -10.41453 -10.40040 -10.39779 -10.38493
 Alpha  occ. eigenvalues --  -10.38088 -10.37449 -10.36876 -10.36120 -10.35658
 Alpha  occ. eigenvalues --  -10.34830 -10.34441 -10.34019 -10.33990 -10.33777
 Alpha  occ. eigenvalues --  -10.33400 -10.33321 -10.32898 -10.31642 -10.31080
 Alpha  occ. eigenvalues --  -10.30380 -10.28587 -10.28543  -1.18846  -1.15378
 Alpha  occ. eigenvalues --   -1.13479  -1.12751  -1.11195  -1.11081  -1.09542
 Alpha  occ. eigenvalues --   -1.08805  -1.08590  -1.05272  -1.04993  -1.01965
 Alpha  occ. eigenvalues --   -1.01073  -1.00616  -0.99930  -0.98867  -0.97154
 Alpha  occ. eigenvalues --   -0.97117  -0.96743  -0.92952  -0.90392  -0.87813
 Alpha  occ. eigenvalues --   -0.86030  -0.84666  -0.83901  -0.83139  -0.82902
 Alpha  occ. eigenvalues --   -0.82350  -0.78271  -0.77163  -0.75057  -0.75029
 Alpha  occ. eigenvalues --   -0.73868  -0.72943  -0.72806  -0.71154  -0.70526
 Alpha  occ. eigenvalues --   -0.67682  -0.66936  -0.66364  -0.65990  -0.64677
 Alpha  occ. eigenvalues --   -0.64329  -0.63527  -0.62851  -0.62786  -0.62060
 Alpha  occ. eigenvalues --   -0.60691  -0.60609  -0.60349  -0.59602  -0.58968
 Alpha  occ. eigenvalues --   -0.58909  -0.58540  -0.57837  -0.56639  -0.55901
 Alpha  occ. eigenvalues --   -0.55785  -0.55668  -0.55341  -0.54481  -0.54233
 Alpha  occ. eigenvalues --   -0.54001  -0.53758  -0.53511  -0.53231  -0.53008
 Alpha  occ. eigenvalues --   -0.52888  -0.51816  -0.51762  -0.50728  -0.50517
 Alpha  occ. eigenvalues --   -0.50420  -0.50073  -0.49648  -0.49279  -0.48980
 Alpha  occ. eigenvalues --   -0.48901  -0.48474  -0.48375  -0.47702  -0.47325
 Alpha  occ. eigenvalues --   -0.47020  -0.45890  -0.45425  -0.45024  -0.42642
 Alpha  occ. eigenvalues --   -0.41252  -0.40863  -0.39064  -0.38051  -0.37713
 Alpha  occ. eigenvalues --   -0.37661  -0.37479  -0.37088  -0.35701  -0.34860
 Alpha  occ. eigenvalues --   -0.34525  -0.34213  -0.33506  -0.33433  -0.33218
 Alpha  occ. eigenvalues --   -0.32983  -0.32797  -0.32075  -0.31017  -0.30955
 Alpha  occ. eigenvalues --   -0.30582  -0.30318  -0.26525  -0.25257
 Alpha virt. eigenvalues --    0.02953   0.04501   0.06852   0.07832   0.08561
 Alpha virt. eigenvalues --    0.08999   0.09592   0.10292   0.10813   0.12267
 Alpha virt. eigenvalues --    0.13156   0.13304   0.14144   0.14529   0.14829

 Mulliken charges:
               1
     1  N   -0.302572
     2  C    0.186220
     3  C    0.042848
     4  N   -0.242331
     5  C    0.149254
     6  H    0.025247
     7  N   -0.294445
     8  C    0.127979
     9  H    0.008989
    10  N   -0.282806
    11  C    0.238129
    12  C    0.081098
    13  N   -0.054423
    14  H    0.118767
    15  H    0.088676
    16  H    0.025918
    17  H    0.033443
    18  H    0.008166
    19  N   -0.307411
    20  C    0.256441
    21  C    0.183066
    22  N   -0.122890
    23  H    0.118923
    24  H    0.119582
    25  N   -0.308921
    26  C    0.248886
    27  N   -0.142432
    28  H    0.120668
    29  C    0.188531
    30  O   -0.318823
    31  C   -0.013011
    32  N   -0.214184
    33  C    0.104112
    34  H    0.023124
    35  H    0.016550
    36  H    0.033908
    37  H    0.027384
    38  H    0.051911
    39  H    0.054310
    40  H    0.074572
    41  H    0.013759
    42  C   -0.097330
    43  O   -0.278769
    44  C    0.173943
    45  H    0.130373
    46  N   -0.119009
    47  O   -0.351311
    48  C    0.337032
    49  H    0.046266
    50  C    0.156884
    51  C    0.048149
    52  N   -0.273406
    53  H    0.036176
    54  H    0.041863
    55  H    0.029208
    56  H    0.126176
    57  H    0.117581
    58  N   -0.054299
    59  C    0.088399
    60  C    0.224902
    61  N   -0.264801
    62  H    0.033586
    63  C    0.165194
    64  N   -0.305707
    65  H    0.039269
    66  C    0.138303
    67  N   -0.258932
    68  C    0.037053
    69  C    0.178200
    70  N   -0.311202
 Sum of Mulliken charges =  -0.00000

 Dipole moment (field-independent basis, Debye):
    X=             -5.4815    Y=              6.0560    Z=             -5.1370  Tot=              9.6494
 Quadrupole moment (field-independent basis, Debye-Ang):
   XX=           -146.9486   YY=           -225.3886   ZZ=           -258.8683
   XY=             -9.7348   XZ=             -5.7273   YZ=             -5.2538

 Normal termination of Gaussian 16 at Thu Jan 18 20:50:50 2018.
