 Gaussian 16, Revision A.03,
 Gaussian 16:  EM64L-G16RevA.03 25-Dec-2016

 ---------------------------------------
 #p wb97xd/cc-pvdz sp scf=(maxcycles=20)
 ---------------------------------------

 ------------------
 Base pair stacking
 ------------------
 Symbolic Z-matrix:
 Charge =  0 Multiplicity = 1

                         Standard orientation:
 ---------------------------------------------------------------------
 Center     Atomic      Atomic             Coordinates (Angstroms)
 Number     Number       Type             X           Y           Z
 ---------------------------------------------------------------------
      1          7           0       -6.874989   -0.916195    0.261689
      2          6           0       -8.162202   -0.301823    0.640673
      3          6           0       -4.738875   -1.425442    0.139279
      4          7           0       -5.384741   -2.237019   -0.782098
      5          6           0       -6.645816   -1.897739   -0.671466
      6          1           0       -7.458780   -2.335323   -1.251593
      7          7           0       -3.078406   -0.394972    1.459859
      8          6           0       -4.064784    0.327828    2.000416
      9          1           0       -3.754701    1.040516    2.763417
     10          7           0       -5.370564    0.302552    1.741168
     11          6           0       -5.644428   -0.605924    0.790330
     12          6           0       -3.386476   -1.300498    0.505813
     13          7           0       -2.403240   -2.022959   -0.034965
     14          1           0       -2.585211   -2.704779   -0.744363
     15          1           0       -1.451731   -1.907381    0.250371
     16          1           0       -8.779953   -1.006996    0.988960
     17          1           0       -8.008384    0.385223    1.350203
     18          1           0       -8.574191    0.134201   -0.159413
     19          7           0       -3.161594    2.013732   -1.246313
     20          6           0       -1.816747    2.074293   -0.971025
     21          6           0       -4.171490    2.988962   -0.788329
     22          7           0        0.875827    3.666374    0.537973
     23          1           0        1.862365    3.528247    0.621036
     24          1           0        0.490183    4.469322    0.993237
     25          7           0       -1.196922    3.027209   -0.241762
     26          6           0        0.103885    2.813712   -0.152676
     27          7           0        0.750192    1.749082   -0.732633
     28          1           0        1.747915    1.665628   -0.612008
     29          6           0        0.132551    0.756643   -1.487255
     30          8           0        0.808016   -0.162152   -1.967136
     31          6           0       -1.265088    0.972445   -1.591820
     32          7           0       -2.243894    0.234983   -2.243728
     33          6           0       -3.349702    0.888904   -2.011823
     34          1           0       -4.333993    0.593517   -2.376792
     35          1           0       -4.855121    2.524417   -0.226511
     36          1           0       -3.724017    3.699635   -0.247058
     37          1           0       -4.617836    3.405548   -1.579559
     38          1           0        6.600290    1.470448    0.894323
     39          1           0        6.904253    2.173628   -0.692439
     40          1           0        5.407195    2.544577    0.163478
     41          1           0        6.190062   -2.430626   -1.891333
     42          6           0        5.609526   -1.551075   -1.612770
     43          8           0        3.552126   -2.433114   -2.397757
     44          6           0        4.202495   -1.529657   -1.872800
     45          1           0        2.568401   -0.318060   -1.648905
     46          7           0        3.563372   -0.370477   -1.481535
     47          8           0        3.482099    1.710131   -0.575077
     48          6           0        4.132027    0.727503   -0.886029
     49          1           0        7.259119   -0.461731   -0.814020
     50          6           0        6.192732   -0.495338   -1.033196
     51          6           0        6.144056    1.780281   -0.034070
     52          7           0        5.492342    0.630990   -0.668229
     53          1           0        4.222473    0.846031    4.259741
     54          1           0        3.065781    1.670634    3.457126
     55          1           0        4.610293    1.710286    2.930803
     56          1           0        0.858429   -3.612455   -0.626007
     57          1           0        2.512968   -3.752443   -0.234865
     58          7           0        1.656790   -3.241323   -0.151647
     59          6           0        1.584012   -2.114946    0.560499
     60          6           0        2.445416   -0.379345    1.941592
     61          7           0        1.282333    0.286075    2.035809
     62          1           0       -0.651098    0.133766    1.373072
     63          6           0        0.328900   -0.340892    1.349691
     64          7           0        0.399804   -1.469130    0.635792
     65          1           0        5.576927   -1.003163    2.448247
     66          6           0        4.533467   -1.021277    2.132288
     67          7           0        4.000502   -1.947702    1.373767
     68          6           0        2.676812   -1.552735    1.245075
     69          6           0        3.907567    1.140891    3.357589
     70          7           0        3.649389   -0.041251    2.512670
 ---------------------------------------------------------------------

 SCF Done:  E(RwB97XD) =  -2048.75251935     A.U. after   15 cycles

 The electronic state is 1-A.
 Alpha  occ. eigenvalues --  -19.26031 -19.22121 -19.20667 -14.52553 -14.51166
 Alpha  occ. eigenvalues --  -14.49749 -14.48557 -14.47869 -14.46891 -14.46674
 Alpha  occ. eigenvalues --  -14.45814 -14.44039 -14.42677 -14.42644 -14.42505
 Alpha  occ. eigenvalues --  -14.42416 -14.42006 -14.41838 -14.40937 -14.40753
 Alpha  occ. eigenvalues --  -10.45596 -10.41197 -10.40154 -10.38256 -10.38009
 Alpha  occ. eigenvalues --  -10.37553 -10.36700 -10.36167 -10.35857 -10.35641
 Alpha  occ. eigenvalues --  -10.35055 -10.34328 -10.34302 -10.34268 -10.33895
 Alpha  occ. eigenvalues --  -10.33163 -10.33158 -10.31807 -10.30987 -10.30932
 Alpha  occ. eigenvalues --  -10.30373 -10.29491 -10.28073  -1.19579  -1.13803
 Alpha  occ. eigenvalues --   -1.13221  -1.13107  -1.12342  -1.10503  -1.09429
 Alpha  occ. eigenvalues --   -1.08575  -1.07390  -1.05804  -1.02911  -1.02571
 Alpha  occ. eigenvalues --   -1.01197  -0.99747  -0.99516  -0.98504  -0.97853
 Alpha  occ. eigenvalues --   -0.96415  -0.95038  -0.93406  -0.90956  -0.86234
 Alpha  occ. eigenvalues --   -0.84865  -0.84716  -0.84027  -0.83930  -0.83192
 Alpha  occ. eigenvalues --   -0.82219  -0.78873  -0.75458  -0.74526  -0.73723
 Alpha  occ. eigenvalues --   -0.73634  -0.73395  -0.73189  -0.71907  -0.68795
 Alpha  occ. eigenvalues --   -0.67342  -0.67109  -0.66583  -0.65104  -0.64463
 Alpha  occ. eigenvalues --   -0.63697  -0.63511  -0.62630  -0.62620  -0.61689
 Alpha  occ. eigenvalues --   -0.60915  -0.60405  -0.59527  -0.59010  -0.58361
 Alpha  occ. eigenvalues --   -0.58212  -0.58097  -0.57382  -0.57182  -0.56391
 Alpha  occ. eigenvalues --   -0.56051  -0.56001  -0.54567  -0.54418  -0.54068
 Alpha  occ. eigenvalues --   -0.53576  -0.53541  -0.52861  -0.52737  -0.52694
 Alpha  occ. eigenvalues --   -0.52276  -0.52068  -0.51624  -0.51404  -0.50972
 Alpha  occ. eigenvalues --   -0.50099  -0.49842  -0.49502  -0.48814  -0.48607
 Alpha  occ. eigenvalues --   -0.48422  -0.48221  -0.47851  -0.47756  -0.47726
 Alpha  occ. eigenvalues --   -0.47402  -0.45790  -0.45171  -0.43986  -0.43106
 Alpha  occ. eigenvalues --   -0.41985  -0.39586  -0.39293  -0.38049  -0.37265
 Alpha  occ. eigenvalues --   -0.37168  -0.36737  -0.36060  -0.35437  -0.34472
 Alpha  occ. eigenvalues --   -0.34391  -0.34302  -0.33302  -0.33049  -0.32754
 Alpha  occ. eigenvalues --   -0.32635  -0.32269  -0.31909  -0.31802  -0.31715
 Alpha  occ. eigenvalues --   -0.31138  -0.28059  -0.26564  -0.25399
 Alpha virt. eigenvalues --    0.03104   0.05468   0.07061   0.08180   0.08876
 Alpha virt. eigenvalues --    0.09153   0.09700   0.10255   0.10685   0.12174
 Alpha virt. eigenvalues --    0.13116   0.13224   0.14512   0.14798   0.15404

 Mulliken charges:
               1
     1  N   -0.310138
     2  C    0.180369
     3  C    0.035761
     4  N   -0.253841
     5  C    0.128528
     6  H    0.029121
     7  N   -0.279123
     8  C    0.130887
     9  H    0.017733
    10  N   -0.292421
    11  C    0.235145
    12  C    0.096326
    13  N   -0.036122
    14  H    0.108705
    15  H    0.089356
    16  H    0.028513
    17  H    0.035709
    18  H    0.024872
    19  N   -0.302741
    20  C    0.254630
    21  C    0.182656
    22  N   -0.118757
    23  H    0.112352
    24  H    0.117643
    25  N   -0.305408
    26  C    0.240378
    27  N   -0.130980
    28  H    0.117625
    29  C    0.162601
    30  O   -0.324986
    31  C   -0.005228
    32  N   -0.227976
    33  C    0.121505
    34  H    0.028176
    35  H    0.025942
    36  H    0.027359
    37  H    0.021294
    38  H    0.050310
    39  H    0.064715
    40  H    0.076323
    41  H    0.028589
    42  C   -0.076638
    43  O   -0.276479
    44  C    0.179266
    45  H    0.135461
    46  N   -0.127775
    47  O   -0.349403
    48  C    0.343607
    49  H    0.043567
    50  C    0.161940
    51  C    0.037273
    52  N   -0.285603
    53  H    0.031584
    54  H    0.038683
    55  H    0.013983
    56  H    0.117871
    57  H    0.119540
    58  N   -0.041826
    59  C    0.117169
    60  C    0.233642
    61  N   -0.275855
    62  H    0.034959
    63  C    0.160581
    64  N   -0.304084
    65  H    0.024477
    66  C    0.117432
    67  N   -0.248814
    68  C    0.010373
    69  C    0.182286
    70  N   -0.302620
 Sum of Mulliken charges =  -0.00000

 Dipole moment (field-independent basis, Debye):
    X=              5.0981    Y=              5.5178    Z=              4.3148  Tot=              8.6634
 Quadrupole moment (field-independent basis, Debye-Ang):
   XX=           -140.3580   YY=           -226.4231   ZZ=           -255.3600
   XY=             11.6723   XZ=             21.5342   YZ=              1.7885

 Normal termination of Gaussian 16 at Thu Jan 18 20:39:02 2018.
