 Gaussian 16, Revision A.03,
 Gaussian 16:  EM64L-G16RevA.03 25-Dec-2016

 ---------------------------------------
 #p wb97xd/cc-pvdz sp scf=(maxcycles=20)
 ---------------------------------------

 ------------------
 Base pair stacking
 ------------------
 Symbolic Z-matrix:
 Charge =  0 Multiplicity = 1

                         Standard orientation:
 ---------------------------------------------------------------------
 Center     Atomic      Atomic             Coordinates (Angstroms)
 Number     Number       Type             X           Y           Z
 ---------------------------------------------------------------------
      1          7           0       -6.347436   -1.364911    0.229800
      2          6           0       -7.646877   -1.028476    0.843215
      3          6           0       -4.195442   -1.651458   -0.122508
      4          7           0       -4.837771   -2.079005   -1.275492
      5          6           0       -6.108559   -1.889251   -1.017086
      6          1           0       -6.922106   -2.116438   -1.706629
      7          7           0       -2.534956   -1.114650    1.464171
      8          6           0       -3.532878   -0.722648    2.262967
      9          1           0       -3.227277   -0.345359    3.237906
     10          7           0       -4.845450   -0.726716    2.039293
     11          6           0       -5.112945   -1.208528    0.814248
     12          6           0       -2.836863   -1.594654    0.237985
     13          7           0       -1.842094   -1.986458   -0.560829
     14          1           0       -2.019154   -2.348230   -1.476785
     15          1           0       -0.886476   -1.931752   -0.271105
     16          1           0       -8.213269   -1.850798    0.899593
     17          1           0       -7.498163   -0.663723    1.761885
     18          1           0       -8.113427   -0.342088    0.285371
     19          7           0       -3.755549    2.281046   -0.626568
     20          6           0       -2.402417    2.324685   -0.391659
     21          6           0       -4.770742    3.090031    0.077436
     22          7           0        0.308089    3.625015    1.347315
     23          1           0        1.300547    3.506480    1.362184
     24          1           0       -0.079197    4.288999    1.987520
     25          7           0       -1.777927    3.107624    0.514466
     26          6           0       -0.469353    2.925461    0.507014
     27          7           0        0.179950    2.044451   -0.323493
     28          1           0        1.183705    1.970950   -0.259952
     29          6           0       -0.442373    1.228897   -1.263412
     30          8           0        0.236396    0.468020   -1.964171
     31          6           0       -1.848366    1.413417   -1.267125
     32          7           0       -2.833836    0.809834   -2.036173
     33          6           0       -3.945829    1.354288   -1.622344
     34          1           0       -4.936402    1.115307   -2.010825
     35          1           0       -5.417732    2.485883    0.541342
     36          1           0       -4.319893    3.674019    0.751205
     37          1           0       -5.260701    3.659925   -0.581333
     38          1           0        6.098415    1.608963    0.991977
     39          1           0        6.316942    2.665453   -0.401122
     40          1           0        4.847808    2.778598    0.568524
     41          1           0        5.674880   -1.566780   -2.597143
     42          6           0        5.083527   -0.794874   -2.104518
     43          8           0        3.019021   -1.546857   -2.998635
     44          6           0        3.666750   -0.764405   -2.303653
     45          1           0        2.012081    0.305897   -1.751523
     46          7           0        3.014233    0.251849   -1.635304
     47          8           0        2.916135    2.067009   -0.274133
     48          6           0        3.578166    1.204621   -0.824295
     49          1           0        6.735820    0.141316   -1.135353
     50          6           0        5.662444    0.120932   -1.319175
     51          6           0        5.595650    2.105892    0.175672
     52          7           0        4.948493    1.109064   -0.681804
     53          1           0        4.805292   -0.607083    4.387438
     54          1           0        3.576005    0.390749    3.993358
     55          1           0        5.093153    0.728822    3.495295
     56          1           0        1.467659   -3.012783   -1.788184
     57          1           0        3.142087   -3.190098   -1.514397
     58          7           0        2.265547   -2.806407   -1.221682
     59          6           0        2.166185   -2.053120   -0.124485
     60          6           0        2.996441   -0.941931    1.808823
     61          7           0        1.806372   -0.439945    2.177830
     62          1           0       -0.143052   -0.442958    1.545095
     63          6           0        0.857714   -0.808687    1.319356
     64          7           0        0.955229   -1.563108    0.219842
     65          1           0        6.173812   -1.516336    1.971656
     66          6           0        5.120270   -1.475319    1.693635
     67          7           0        4.603189   -2.064734    0.643445
     68          6           0        3.257094   -1.734566    0.704604
     69          6           0        4.438427   -0.004607    3.678622
     70          7           0        4.204787   -0.778164    2.443702
 ---------------------------------------------------------------------

 SCF Done:  E(RwB97XD) =  -2048.73055455     A.U. after   15 cycles

 The electronic state is 1-A.
 Alpha  occ. eigenvalues --  -19.25957 -19.22329 -19.20858 -14.52539 -14.51264
 Alpha  occ. eigenvalues --  -14.49286 -14.48795 -14.47959 -14.47100 -14.46796
 Alpha  occ. eigenvalues --  -14.45539 -14.44179 -14.42663 -14.42442 -14.42231
 Alpha  occ. eigenvalues --  -14.42114 -14.41851 -14.41270 -14.40868 -14.40471
 Alpha  occ. eigenvalues --  -10.45582 -10.41346 -10.40116 -10.38403 -10.37916
 Alpha  occ. eigenvalues --  -10.37421 -10.36682 -10.35739 -10.35654 -10.35651
 Alpha  occ. eigenvalues --  -10.34544 -10.34417 -10.34357 -10.33786 -10.33385
 Alpha  occ. eigenvalues --  -10.33343 -10.33148 -10.31541 -10.31072 -10.30809
 Alpha  occ. eigenvalues --  -10.30777 -10.28910 -10.28188  -1.19543  -1.13961
 Alpha  occ. eigenvalues --   -1.13640  -1.13353  -1.11836  -1.10670  -1.09428
 Alpha  occ. eigenvalues --   -1.08720  -1.07420  -1.05297  -1.03056  -1.02695
 Alpha  occ. eigenvalues --   -1.00670  -0.99880  -0.99609  -0.98644  -0.97369
 Alpha  occ. eigenvalues --   -0.96616  -0.95071  -0.92908  -0.90853  -0.86301
 Alpha  occ. eigenvalues --   -0.84787  -0.84391  -0.84151  -0.83888  -0.82759
 Alpha  occ. eigenvalues --   -0.82500  -0.78855  -0.75534  -0.74696  -0.73767
 Alpha  occ. eigenvalues --   -0.73481  -0.73276  -0.73234  -0.71389  -0.68854
 Alpha  occ. eigenvalues --   -0.67479  -0.66628  -0.66592  -0.65227  -0.64533
 Alpha  occ. eigenvalues --   -0.63852  -0.63056  -0.62757  -0.62622  -0.61831
 Alpha  occ. eigenvalues --   -0.60484  -0.60445  -0.59478  -0.59039  -0.58486
 Alpha  occ. eigenvalues --   -0.58227  -0.58147  -0.57110  -0.56809  -0.56489
 Alpha  occ. eigenvalues --   -0.56068  -0.55559  -0.54964  -0.54502  -0.54112
 Alpha  occ. eigenvalues --   -0.53768  -0.53552  -0.53007  -0.52642  -0.52496
 Alpha  occ. eigenvalues --   -0.52131  -0.52017  -0.51465  -0.51259  -0.50558
 Alpha  occ. eigenvalues --   -0.50384  -0.49830  -0.49439  -0.49408  -0.49068
 Alpha  occ. eigenvalues --   -0.48496  -0.48426  -0.47761  -0.47650  -0.47430
 Alpha  occ. eigenvalues --   -0.47287  -0.45624  -0.45369  -0.43672  -0.42421
 Alpha  occ. eigenvalues --   -0.41505  -0.39554  -0.39395  -0.37569  -0.37508
 Alpha  occ. eigenvalues --   -0.37341  -0.37278  -0.36204  -0.35598  -0.34307
 Alpha  occ. eigenvalues --   -0.33894  -0.33814  -0.33763  -0.33402  -0.32881
 Alpha  occ. eigenvalues --   -0.32726  -0.32335  -0.31990  -0.31319  -0.31178
 Alpha  occ. eigenvalues --   -0.30649  -0.27287  -0.26117  -0.25470
 Alpha virt. eigenvalues --    0.02950   0.05252   0.07590   0.07904   0.08827
 Alpha virt. eigenvalues --    0.09374   0.09702   0.10664   0.10823   0.12347
 Alpha virt. eigenvalues --    0.13514   0.13573   0.14246   0.14581   0.14959

 Mulliken charges:
               1
     1  N   -0.310074
     2  C    0.180326
     3  C    0.039881
     4  N   -0.245643
     5  C    0.120774
     6  H    0.026496
     7  N   -0.288203
     8  C    0.134878
     9  H    0.014598
    10  N   -0.292842
    11  C    0.236251
    12  C    0.097075
    13  N   -0.038748
    14  H    0.111875
    15  H    0.093205
    16  H    0.027903
    17  H    0.035269
    18  H    0.021795
    19  N   -0.307546
    20  C    0.259543
    21  C    0.181953
    22  N   -0.123032
    23  H    0.115870
    24  H    0.118885
    25  N   -0.310052
    26  C    0.246716
    27  N   -0.147612
    28  H    0.120680
    29  C    0.183533
    30  O   -0.327849
    31  C   -0.016710
    32  N   -0.226003
    33  C    0.132569
    34  H    0.024536
    35  H    0.028243
    36  H    0.029445
    37  H    0.022378
    38  H    0.049269
    39  H    0.062640
    40  H    0.075492
    41  H    0.022418
    42  C   -0.055360
    43  O   -0.284732
    44  C    0.146777
    45  H    0.136577
    46  N   -0.121031
    47  O   -0.347666
    48  C    0.349064
    49  H    0.041753
    50  C    0.169660
    51  C    0.042180
    52  N   -0.282796
    53  H    0.032071
    54  H    0.041018
    55  H    0.017173
    56  H    0.121767
    57  H    0.115298
    58  N   -0.004520
    59  C    0.083087
    60  C    0.238366
    61  N   -0.277710
    62  H    0.030481
    63  C    0.158135
    64  N   -0.304764
    65  H    0.026497
    66  C    0.115271
    67  N   -0.248235
    68  C    0.004469
    69  C    0.181786
    70  N   -0.304796
 Sum of Mulliken charges =  -0.00000

 Dipole moment (field-independent basis, Debye):
    X=              5.4117    Y=              4.9503    Z=              4.9459  Tot=              8.8461
 Quadrupole moment (field-independent basis, Debye-Ang):
   XX=           -143.5946   YY=           -228.9053   ZZ=           -251.9712
   XY=              4.9687   XZ=             16.8180   YZ=              9.9629

 Normal termination of Gaussian 16 at Fri Jan 19 04:04:20 2018.
