 Gaussian 16, Revision A.03,
 Gaussian 16:  EM64L-G16RevA.03 25-Dec-2016

 ---------------------------------------
 #p wb97xd/cc-pvdz sp scf=(maxcycles=20)
 ---------------------------------------

 ------------------
 Base pair stacking
 ------------------
 Symbolic Z-matrix:
 Charge =  0 Multiplicity = 1

                         Standard orientation:
 ---------------------------------------------------------------------
 Center     Atomic      Atomic             Coordinates (Angstroms)
 Number     Number       Type             X           Y           Z
 ---------------------------------------------------------------------
      1          7           0        5.742622   -1.365992   -0.839602
      2          6           0        7.040491   -0.804438   -1.261754
      3          6           0        3.589513   -1.743475   -0.596815
      4          7           0        4.239252   -2.678388    0.195970
      5          6           0        5.510411   -2.413557    0.017969
      6          1           0        6.329008   -2.955897    0.491992
      7          7           0        1.917719   -0.487215   -1.687631
      8          6           0        2.912586    0.216905   -2.237207
      9          1           0        2.601070    1.016747   -2.907619
     10          7           0        4.228310    0.081966   -2.083681
     11          6           0        4.503073   -0.927611   -1.241253
     12          6           0        2.226956   -1.496412   -0.844427
     13          7           0        1.235248   -2.200429   -0.294832
     14          1           0        1.417718   -2.956189    0.335050
     15          1           0        0.276624   -1.996545   -0.493863
     16          1           0        7.579098   -1.512788   -1.718160
     17          1           0        6.886397   -0.045314   -1.893512
     18          1           0        7.539129   -0.473244   -0.460712
     19          7           0        4.427562    1.603139    0.978076
     20          6           0        3.075653    1.769406    0.797132
     21          6           0        5.479861    2.440614    0.368141
     22          7           0        0.422371    3.488985   -0.639842
     23          1           0       -0.575997    3.438838   -0.639184
     24          1           0        0.839855    4.214702   -1.187337
     25          7           0        2.486175    2.718126    0.037858
     26          6           0        1.168645    2.622429    0.061636
     27          7           0        0.479193    1.671158    0.773851
     28          1           0       -0.528440    1.673462    0.733416
     29          6           0        1.065028    0.685341    1.561777
     30          8           0        0.351517   -0.126075    2.164476
     31          6           0        2.480139    0.775346    1.546157
     32          7           0        3.438897    0.000620    2.184491
     33          6           0        4.576100    0.527369    1.819085
     34          1           0        5.556430    0.168982    2.134960
     35          1           0        6.072582    1.871914   -0.201124
     36          1           0        5.055137    3.146962   -0.196610
     37          1           0        6.023170    2.872364    1.087307
     38          1           0       -5.483964    1.823522   -0.394817
     39          1           0       -5.596615    2.671514    1.145596
     40          1           0       -4.145916    2.832708    0.155205
     41          1           0       -5.198809   -1.874479    2.669490
     42          6           0       -4.566924   -1.077657    2.277050
     43          8           0       -2.539405   -2.087734    2.981351
     44          6           0       -3.147226   -1.169591    2.431476
     45          1           0       -1.435560   -0.138656    1.989109
     46          7           0       -2.441451   -0.109370    1.899434
     47          8           0       -2.249266    1.878820    0.819000
     48          6           0       -2.956590    0.988728    1.257275
     49          1           0       -6.172299    0.098570    1.512154
     50          6           0       -5.098964   -0.018894    1.655301
     51          6           0       -4.929302    2.158865    0.468867
     52          7           0       -4.333158    1.004939    1.147687
     53          1           0       -5.455842    1.486269   -3.789598
     54          1           0       -4.188074    2.154467   -3.009617
     55          1           0       -5.684039    2.245680   -2.363195
     56          1           0       -2.082172   -3.621271    0.405265
     57          1           0       -3.766242   -3.615316    0.133289
     58          7           0       -2.883491   -3.155814    0.029256
     59          6           0       -2.780563   -1.974837   -0.583836
     60          6           0       -3.610780   -0.064757   -1.734513
     61          7           0       -2.412334    0.528963   -1.859709
     62          1           0       -0.452528    0.188892   -1.365620
     63          6           0       -1.460108   -0.220662   -1.308132
     64          7           0       -1.561178   -1.403761   -0.693616
     65          1           0       -6.807403   -0.431888   -2.049038
     66          6           0       -5.748072   -0.547836   -1.818152
     67          7           0       -5.230613   -1.574192   -1.188460
     68          6           0       -3.876014   -1.280583   -1.128754
     69          6           0       -5.056681    1.674010   -2.892148
     70          7           0       -4.824909    0.403508   -2.177921
 ---------------------------------------------------------------------

 SCF Done:  E(RwB97XD) =  -2048.75255066     A.U. after   15 cycles

 The electronic state is 1-A.
 Alpha  occ. eigenvalues --  -19.25440 -19.21629 -19.20598 -14.52307 -14.52199
 Alpha  occ. eigenvalues --  -14.49325 -14.48726 -14.47483 -14.47323 -14.46832
 Alpha  occ. eigenvalues --  -14.46587 -14.45202 -14.43933 -14.43835 -14.42703
 Alpha  occ. eigenvalues --  -14.41919 -14.41756 -14.41404 -14.40825 -14.40702
 Alpha  occ. eigenvalues --  -10.45092 -10.41157 -10.39779 -10.39383 -10.38217
 Alpha  occ. eigenvalues --  -10.37796 -10.37327 -10.36936 -10.35913 -10.35450
 Alpha  occ. eigenvalues --  -10.35199 -10.34474 -10.34283 -10.34074 -10.33856
 Alpha  occ. eigenvalues --  -10.33537 -10.33317 -10.32294 -10.31802 -10.30785
 Alpha  occ. eigenvalues --  -10.30566 -10.28956 -10.28060  -1.19106  -1.15042
 Alpha  occ. eigenvalues --   -1.13145  -1.12692  -1.11842  -1.10533  -1.09036
 Alpha  occ. eigenvalues --   -1.08777  -1.08498  -1.05505  -1.04283  -1.02193
 Alpha  occ. eigenvalues --   -1.00906  -1.00754  -0.99656  -0.98458  -0.97465
 Alpha  occ. eigenvalues --   -0.96511  -0.96382  -0.93160  -0.90629  -0.87432
 Alpha  occ. eigenvalues --   -0.85850  -0.84499  -0.84037  -0.83556  -0.82929
 Alpha  occ. eigenvalues --   -0.82399  -0.78513  -0.76686  -0.74608  -0.74441
 Alpha  occ. eigenvalues --   -0.73549  -0.73384  -0.73045  -0.71517  -0.70043
 Alpha  occ. eigenvalues --   -0.67313  -0.66803  -0.66393  -0.66217  -0.64297
 Alpha  occ. eigenvalues --   -0.63864  -0.63673  -0.63191  -0.62550  -0.61711
 Alpha  occ. eigenvalues --   -0.61651  -0.60778  -0.60161  -0.59225  -0.59158
 Alpha  occ. eigenvalues --   -0.58317  -0.58196  -0.57727  -0.57056  -0.56121
 Alpha  occ. eigenvalues --   -0.55895  -0.55684  -0.55174  -0.54757  -0.54102
 Alpha  occ. eigenvalues --   -0.53741  -0.53498  -0.53343  -0.52850  -0.52603
 Alpha  occ. eigenvalues --   -0.52474  -0.52375  -0.52195  -0.51252  -0.50743
 Alpha  occ. eigenvalues --   -0.50050  -0.49879  -0.49263  -0.49245  -0.49025
 Alpha  occ. eigenvalues --   -0.48675  -0.48327  -0.48198  -0.47512  -0.47279
 Alpha  occ. eigenvalues --   -0.47260  -0.46021  -0.45276  -0.44294  -0.43062
 Alpha  occ. eigenvalues --   -0.41569  -0.40406  -0.39125  -0.37586  -0.37517
 Alpha  occ. eigenvalues --   -0.37218  -0.37150  -0.37022  -0.36059  -0.34400
 Alpha  occ. eigenvalues --   -0.34366  -0.34070  -0.33730  -0.33625  -0.32951
 Alpha  occ. eigenvalues --   -0.32558  -0.32188  -0.31806  -0.31525  -0.31383
 Alpha  occ. eigenvalues --   -0.30889  -0.29312  -0.26343  -0.25319
 Alpha virt. eigenvalues --    0.03530   0.04258   0.07327   0.07469   0.08571
 Alpha virt. eigenvalues --    0.09150   0.09784   0.10449   0.10671   0.12344
 Alpha virt. eigenvalues --    0.13352   0.13475   0.13928   0.14421   0.14916

 Mulliken charges:
               1
     1  N   -0.305928
     2  C    0.176174
     3  C    0.062877
     4  N   -0.244149
     5  C    0.123388
     6  H    0.026148
     7  N   -0.288061
     8  C    0.136762
     9  H    0.011668
    10  N   -0.286046
    11  C    0.224012
    12  C    0.087326
    13  N   -0.043516
    14  H    0.112131
    15  H    0.087820
    16  H    0.029765
    17  H    0.039456
    18  H    0.020745
    19  N   -0.293652
    20  C    0.247789
    21  C    0.188752
    22  N   -0.119682
    23  H    0.117760
    24  H    0.117688
    25  N   -0.304671
    26  C    0.236885
    27  N   -0.141767
    28  H    0.118171
    29  C    0.182968
    30  O   -0.324721
    31  C   -0.016785
    32  N   -0.214465
    33  C    0.120865
    34  H    0.017344
    35  H    0.009938
    36  H    0.031898
    37  H    0.022151
    38  H    0.037780
    39  H    0.061117
    40  H    0.076749
    41  H    0.023734
    42  C   -0.094860
    43  O   -0.272758
    44  C    0.157460
    45  H    0.132264
    46  N   -0.111186
    47  O   -0.341485
    48  C    0.334411
    49  H    0.041892
    50  C    0.172837
    51  C    0.045047
    52  N   -0.274779
    53  H    0.035709
    54  H    0.042879
    55  H    0.017445
    56  H    0.124920
    57  H    0.118178
    58  N   -0.044516
    59  C    0.088100
    60  C    0.217722
    61  N   -0.259895
    62  H    0.029628
    63  C    0.155073
    64  N   -0.295983
    65  H    0.034268
    66  C    0.113524
    67  N   -0.247022
    68  C    0.037627
    69  C    0.178816
    70  N   -0.301736
 Sum of Mulliken charges =  -0.00000

 Dipole moment (field-independent basis, Debye):
    X=             -5.1826    Y=              5.6212    Z=             -5.0736  Tot=              9.1760
 Quadrupole moment (field-independent basis, Debye-Ang):
   XX=           -146.0954   YY=           -224.1547   ZZ=           -261.7245
   XY=            -10.6826   XZ=              7.6929   YZ=             -0.8130

 Normal termination of Gaussian 16 at Thu Jan 18 15:05:40 2018.
