 Gaussian 16, Revision A.03,
 Gaussian 16:  EM64L-G16RevA.03 25-Dec-2016

 ---------------------------------------
 #p wb97xd/cc-pvdz sp scf=(maxcycles=20)
 ---------------------------------------

 ------------------
 Base pair stacking
 ------------------
 Symbolic Z-matrix:
 Charge =  0 Multiplicity = 1

                         Standard orientation:
 ---------------------------------------------------------------------
 Center     Atomic      Atomic             Coordinates (Angstroms)
 Number     Number       Type             X           Y           Z
 ---------------------------------------------------------------------
      1          7           0        5.738148   -1.246851   -0.926014
      2          6           0        7.035330   -0.624860   -1.255350
      3          6           0        3.585772   -1.665009   -0.753547
      4          7           0        4.236029   -2.700383   -0.097883
      5          6           0        5.506734   -2.407012   -0.228033
      6          1           0        6.325539   -3.007605    0.169193
      7          7           0        1.913445   -0.273825   -1.665070
      8          6           0        2.907598    0.506031   -2.102188
      9          1           0        2.595576    1.391826   -2.653787
     10          7           0        4.223132    0.356666   -1.960880
     11          6           0        4.498558   -0.761407   -1.269168
     12          6           0        2.223338   -1.391467   -0.972298
     13          7           0        1.232340   -2.171210   -0.535130
     14          1           0        1.415302   -3.008189   -0.018209
     15          1           0        0.273784   -1.945464   -0.709321
     16          1           0        7.580454   -1.258432   -1.804533
     17          1           0        6.880730    0.215845   -1.773465
     18          1           0        7.527486   -0.408948   -0.412053
     19          7           0        4.433713    1.462152    1.082196
     20          6           0        3.082381    1.641522    0.909622
     21          6           0        5.488558    2.330759    0.522243
     22          7           0        0.434564    3.446378   -0.429519
     23          1           0       -0.563908    3.398508   -0.432792
     24          1           0        0.854277    4.201260   -0.934197
     25          7           0        2.495881    2.633407    0.205198
     26          6           0        1.178123    2.539474    0.222068
     27          7           0        0.485746    1.550598    0.878004
     28          1           0       -0.521827    1.557482    0.836707
     29          6           0        1.068493    0.520051    1.608924
     30          8           0        0.352501   -0.322888    2.163497
     31          6           0        2.483820    0.607621    1.599971
     32          7           0        3.440128   -0.204482    2.193990
     33          6           0        4.578899    0.339735    1.860499
     34          1           0        5.558077   -0.038316    2.156408
     35          1           0        6.080715    1.794193   -0.077970
     36          1           0        5.066048    3.069178   -0.001658
     37          1           0        6.031961    2.719477    1.265499
     38          1           0       -5.475674    1.782900   -0.286364
     39          1           0       -5.588297    2.541717    1.299885
     40          1           0       -4.136079    2.755990    0.321871
     41          1           0       -5.202226   -2.084836    2.561866
     42          6           0       -4.568136   -1.268302    2.216285
     43          8           0       -2.543657   -2.321530    2.863846
     44          6           0       -3.148822   -1.372099    2.366703
     45          1           0       -1.434390   -0.321411    1.985806
     46          7           0       -2.440112   -0.284787    1.896882
     47          8           0       -2.242305    1.761470    0.932070
     48          6           0       -2.952088    0.849368    1.317994
     49          1           0       -6.170029   -0.046683    1.518170
     50          6           0       -5.097127   -0.174539    1.655506
     51          6           0       -4.921301    2.067088    0.595670
     52          7           0       -4.328483    0.874904    1.208055
     53          1           0       -5.458542    1.945086   -3.512368
     54          1           0       -4.199012    2.501119   -2.636864
     55          1           0       -5.699177    2.492353   -1.993803
     56          1           0       -2.081222   -3.692643   -0.066312
     57          1           0       -3.763693   -3.655750   -0.345645
     58          7           0       -2.882887   -3.182041   -0.377376
     59          6           0       -2.782912   -1.925270   -0.815210
     60          6           0       -3.616927    0.125483   -1.687310
     61          7           0       -2.421060    0.736505   -1.718793
     62          1           0       -0.462307    0.338533   -1.265450
     63          6           0       -1.467940   -0.079682   -1.273492
     64          7           0       -1.566070   -1.338754   -0.834528
     65          1           0       -6.809613   -0.207816   -2.071791
     66          6           0       -5.751012   -0.350606   -1.852879
     67          7           0       -5.231581   -1.453844   -1.372526
     68          6           0       -3.878970   -1.165491   -1.262754
     69          6           0       -5.065638    2.004813   -2.594731
     70          7           0       -4.831028    0.646567   -2.067361
 ---------------------------------------------------------------------

 SCF Done:  E(RwB97XD) =  -2048.74771800     A.U. after   15 cycles

 The electronic state is 1-A.
 Alpha  occ. eigenvalues --  -19.25324 -19.21583 -19.20573 -14.52405 -14.52127
 Alpha  occ. eigenvalues --  -14.49409 -14.48659 -14.47513 -14.47424 -14.46786
 Alpha  occ. eigenvalues --  -14.46566 -14.45331 -14.44026 -14.43977 -14.42835
 Alpha  occ. eigenvalues --  -14.41872 -14.41843 -14.41442 -14.40793 -14.40747
 Alpha  occ. eigenvalues --  -10.44989 -10.41120 -10.39713 -10.39519 -10.38186
 Alpha  occ. eigenvalues --  -10.37914 -10.37286 -10.37042 -10.36008 -10.35542
 Alpha  occ. eigenvalues --  -10.35007 -10.34549 -10.34223 -10.34191 -10.33925
 Alpha  occ. eigenvalues --  -10.33583 -10.33286 -10.32417 -10.31913 -10.30679
 Alpha  occ. eigenvalues --  -10.30548 -10.29024 -10.28027  -1.19044  -1.15191
 Alpha  occ. eigenvalues --   -1.13117  -1.12617  -1.11924  -1.10487  -1.09026
 Alpha  occ. eigenvalues --   -1.08863  -1.08466  -1.05587  -1.04422  -1.02129
 Alpha  occ. eigenvalues --   -1.01005  -1.00916  -0.99624  -0.98422  -0.97564
 Alpha  occ. eigenvalues --   -0.96521  -0.96459  -0.93244  -0.90586  -0.87586
 Alpha  occ. eigenvalues --   -0.86023  -0.84593  -0.83989  -0.83495  -0.83030
 Alpha  occ. eigenvalues --   -0.82324  -0.78462  -0.76828  -0.74675  -0.74474
 Alpha  occ. eigenvalues --   -0.73520  -0.73465  -0.72996  -0.71594  -0.70192
 Alpha  occ. eigenvalues --   -0.67281  -0.66896  -0.66537  -0.66188  -0.64286
 Alpha  occ. eigenvalues --   -0.64019  -0.63686  -0.63288  -0.62525  -0.62080
 Alpha  occ. eigenvalues --   -0.61653  -0.60888  -0.60307  -0.59350  -0.59156
 Alpha  occ. eigenvalues --   -0.58303  -0.58098  -0.57933  -0.57150  -0.56128
 Alpha  occ. eigenvalues --   -0.55931  -0.55627  -0.55305  -0.54659  -0.54043
 Alpha  occ. eigenvalues --   -0.53833  -0.53462  -0.53430  -0.52804  -0.52729
 Alpha  occ. eigenvalues --   -0.52461  -0.52396  -0.52053  -0.51283  -0.50814
 Alpha  occ. eigenvalues --   -0.49985  -0.49954  -0.49356  -0.49180  -0.48870
 Alpha  occ. eigenvalues --   -0.48623  -0.48478  -0.48173  -0.47590  -0.47220
 Alpha  occ. eigenvalues --   -0.47155  -0.46015  -0.45382  -0.44423  -0.42955
 Alpha  occ. eigenvalues --   -0.41635  -0.40533  -0.39061  -0.37667  -0.37578
 Alpha  occ. eigenvalues --   -0.37336  -0.37109  -0.36959  -0.36073  -0.34524
 Alpha  occ. eigenvalues --   -0.34387  -0.34181  -0.33805  -0.33629  -0.32900
 Alpha  occ. eigenvalues --   -0.32513  -0.32139  -0.31755  -0.31510  -0.31424
 Alpha  occ. eigenvalues --   -0.30963  -0.29371  -0.26428  -0.25296
 Alpha virt. eigenvalues --    0.03579   0.04131   0.07219   0.07413   0.08620
 Alpha virt. eigenvalues --    0.09149   0.09765   0.10349   0.10607   0.12530
 Alpha virt. eigenvalues --    0.13352   0.13442   0.14014   0.14365   0.14787

 Mulliken charges:
               1
     1  N   -0.304965
     2  C    0.175711
     3  C    0.067367
     4  N   -0.245555
     5  C    0.124309
     6  H    0.026473
     7  N   -0.286099
     8  C    0.137163
     9  H    0.011073
    10  N   -0.283902
    11  C    0.220175
    12  C    0.084877
    13  N   -0.044388
    14  H    0.111452
    15  H    0.087292
    16  H    0.029593
    17  H    0.042932
    18  H    0.020874
    19  N   -0.288426
    20  C    0.239470
    21  C    0.194094
    22  N   -0.117034
    23  H    0.117774
    24  H    0.117288
    25  N   -0.300663
    26  C    0.231226
    27  N   -0.138795
    28  H    0.117418
    29  C    0.179562
    30  O   -0.323804
    31  C   -0.011213
    32  N   -0.214257
    33  C    0.118357
    34  H    0.016755
    35  H   -0.000544
    36  H    0.032220
    37  H    0.021999
    38  H    0.040132
    39  H    0.059527
    40  H    0.076029
    41  H    0.024608
    42  C   -0.096671
    43  O   -0.270418
    44  C    0.160300
    45  H    0.131867
    46  N   -0.112136
    47  O   -0.338449
    48  C    0.331477
    49  H    0.041769
    50  C    0.171184
    51  C    0.043449
    52  N   -0.273405
    53  H    0.035876
    54  H    0.043260
    55  H    0.017871
    56  H    0.124307
    57  H    0.118986
    58  N   -0.049942
    59  C    0.094981
    60  C    0.208596
    61  N   -0.254817
    62  H    0.029802
    63  C    0.152863
    64  N   -0.295929
    65  H    0.034904
    66  C    0.114040
    67  N   -0.246238
    68  C    0.041079
    69  C    0.177164
    70  N   -0.301873
 Sum of Mulliken charges =  -0.00000

 Dipole moment (field-independent basis, Debye):
    X=             -5.1377    Y=              5.8476    Z=             -4.9531  Tot=              9.2262
 Quadrupole moment (field-independent basis, Debye-Ang):
   XX=           -146.4317   YY=           -224.2777   ZZ=           -262.7124
   XY=            -11.4180   XZ=              6.5617   YZ=              2.8312

 Normal termination of Gaussian 16 at Fri Jan 19 06:44:21 2018.
