 Gaussian 16, Revision A.03,
 Gaussian 16:  EM64L-G16RevA.03 25-Dec-2016

 ---------------------------------------
 #p wb97xd/cc-pvdz sp scf=(maxcycles=20)
 ---------------------------------------

 ------------------
 Base pair stacking
 ------------------
 Symbolic Z-matrix:
 Charge =  0 Multiplicity = 1

                         Standard orientation:
 ---------------------------------------------------------------------
 Center     Atomic      Atomic             Coordinates (Angstroms)
 Number     Number       Type             X           Y           Z
 ---------------------------------------------------------------------
      1          7           0       -5.448779   -1.886998    0.468474
      2          6           0       -6.741953   -1.673371    1.146751
      3          6           0       -3.299034   -1.983151    0.013840
      4          7           0       -3.956075   -2.442900   -1.118261
      5          6           0       -5.224913   -2.366574   -0.799045
      6          1           0       -6.047675   -2.649642   -1.456231
      7          7           0       -1.617561   -1.335783    1.535853
      8          6           0       -2.606671   -1.044502    2.386969
      9          1           0       -2.288856   -0.660219    3.355256
     10          7           0       -3.923238   -1.156121    2.222336
     11          6           0       -4.205961   -1.636779    1.000268
     12          6           0       -1.934753   -1.817539    0.314214
     13          7           0       -0.948807   -2.108881   -0.536779
     14          1           0       -1.137240   -2.467840   -1.451583
     15          1           0        0.011267   -1.978360   -0.289065
     16          1           0       -7.233938   -2.541747    1.210455
     17          1           0       -6.581871   -1.313907    2.065600
     18          1           0       -7.290029   -1.019194    0.625546
     19          7           0       -4.724556    1.870471   -0.338990
     20          6           0       -3.371075    2.019804   -0.155072
     21          6           0       -5.773132    2.500909    0.487880
     22          7           0       -0.707587    3.388862    1.603689
     23          1           0        0.291052    3.365590    1.566023
     24          1           0       -1.121578    3.942833    2.326489
     25          7           0       -2.776437    2.761592    0.804199
     26          6           0       -1.458684    2.708099    0.724872
     27          7           0       -0.773731    1.984160   -0.220768
     28          1           0        0.234458    2.001547   -0.205702
     29          6           0       -1.364919    1.213779   -1.217203
     30          8           0       -0.655167    0.598208   -2.022234
     31          6           0       -2.780324    1.261364   -1.144820
     32          7           0       -3.743549    0.648222   -1.934213
     33          6           0       -4.878668    1.037402   -1.420149
     34          1           0       -5.861361    0.745448   -1.792101
     35          1           0       -6.338095    1.792612    0.909717
     36          1           0       -5.344575    3.052977    1.201911
     37          1           0       -6.345523    3.085855   -0.085721
     38          1           0        5.218041    1.987537    0.802478
     39          1           0        5.269025    3.198229   -0.476685
     40          1           0        3.845987    3.068654    0.557489
     41          1           0        4.908376   -0.826923   -3.087183
     42          6           0        4.274158   -0.170543   -2.491224
     43          8           0        2.245127   -1.021657   -3.377640
     44          6           0        2.852379   -0.256342   -2.629086
     45          1           0        1.136296    0.586856   -1.899434
     46          7           0        2.143731    0.617909   -1.829881
     47          8           0        1.947929    2.265015   -0.278775
     48          6           0        2.657850    1.531805   -0.944421
     49          1           0        5.880112    0.815475   -1.493980
     50          6           0        4.805283    0.710845   -1.635838
     51          6           0        4.631720    2.515262    0.065046
     52          7           0        4.036563    1.554529   -0.867964
     53          1           0        5.782019   -0.258726    4.137477
     54          1           0        4.456162    0.637911    3.820852
     55          1           0        5.914677    1.112674    3.262796
     56          1           0        2.374846   -2.827813   -1.933472
     57          1           0        4.069170   -2.867024   -1.738987
     58          7           0        3.178033   -2.564587   -1.398933
     59          6           0        3.066824   -1.842366   -0.282148
     60          6           0        3.889721   -0.699626    1.635845
     61          7           0        2.680115   -0.307379    2.068747
     62          1           0        0.710529   -0.464721    1.524136
     63          6           0        1.726929   -0.739916    1.245797
     64          7           0        1.836285   -1.463376    0.126768
     65          1           0        7.108281   -1.004653    1.643443
     66          6           0        6.043217   -1.048355    1.413904
     67          7           0        5.529259   -1.660573    0.375297
     68          6           0        4.164461   -1.447206    0.503960
     69          6           0        5.333197    0.323058    3.459192
     70          7           0        5.108250   -0.445188    2.219350
 ---------------------------------------------------------------------

 SCF Done:  E(RwB97XD) =  -2048.74029788     A.U. after   15 cycles

 The electronic state is 1-A.
 Alpha  occ. eigenvalues --  -19.25688 -19.21778 -19.20774 -14.52276 -14.52142
 Alpha  occ. eigenvalues --  -14.49015 -14.48881 -14.47711 -14.47030 -14.46850
 Alpha  occ. eigenvalues --  -14.46795 -14.45028 -14.43847 -14.43727 -14.42241
 Alpha  occ. eigenvalues --  -14.42135 -14.41234 -14.41066 -14.41054 -14.40430
 Alpha  occ. eigenvalues --  -10.45272 -10.41365 -10.40108 -10.39136 -10.38405
 Alpha  occ. eigenvalues --  -10.37634 -10.37337 -10.36754 -10.35526 -10.35320
 Alpha  occ. eigenvalues --  -10.35259 -10.34539 -10.33994 -10.33767 -10.33566
 Alpha  occ. eigenvalues --  -10.33466 -10.33247 -10.32135 -10.31412 -10.31193
 Alpha  occ. eigenvalues --  -10.30703 -10.28564 -10.28289  -1.19277  -1.14845
 Alpha  occ. eigenvalues --   -1.13353  -1.13135  -1.11398  -1.10785  -1.09155
 Alpha  occ. eigenvalues --   -1.08709  -1.08653  -1.05160  -1.04155  -1.02429
 Alpha  occ. eigenvalues --   -1.00543  -1.00495  -0.99875  -0.98684  -0.97024
 Alpha  occ. eigenvalues --   -0.96769  -0.96254  -0.92810  -0.90776  -0.87215
 Alpha  occ. eigenvalues --   -0.85577  -0.84327  -0.84073  -0.83596  -0.82759
 Alpha  occ. eigenvalues --   -0.82484  -0.78673  -0.76510  -0.74814  -0.74351
 Alpha  occ. eigenvalues --   -0.73768  -0.73220  -0.72996  -0.71150  -0.69828
 Alpha  occ. eigenvalues --   -0.67543  -0.66435  -0.66372  -0.66202  -0.64512
 Alpha  occ. eigenvalues --   -0.63859  -0.63612  -0.62795  -0.62753  -0.61917
 Alpha  occ. eigenvalues --   -0.60831  -0.60406  -0.59935  -0.59262  -0.59024
 Alpha  occ. eigenvalues --   -0.58673  -0.58512  -0.57343  -0.56672  -0.56270
 Alpha  occ. eigenvalues --   -0.55935  -0.55511  -0.55017  -0.54820  -0.54299
 Alpha  occ. eigenvalues --   -0.53813  -0.53726  -0.53236  -0.53110  -0.52787
 Alpha  occ. eigenvalues --   -0.52391  -0.52315  -0.51961  -0.50971  -0.50399
 Alpha  occ. eigenvalues --   -0.50355  -0.49788  -0.49626  -0.49370  -0.48994
 Alpha  occ. eigenvalues --   -0.48908  -0.48534  -0.47815  -0.47579  -0.47479
 Alpha  occ. eigenvalues --   -0.47073  -0.46151  -0.44897  -0.44156  -0.43072
 Alpha  occ. eigenvalues --   -0.41167  -0.40276  -0.39321  -0.37802  -0.37397
 Alpha  occ. eigenvalues --   -0.37329  -0.37114  -0.36994  -0.35924  -0.34535
 Alpha  occ. eigenvalues --   -0.34056  -0.33789  -0.33506  -0.33425  -0.33247
 Alpha  occ. eigenvalues --   -0.32801  -0.32326  -0.31911  -0.31747  -0.30980
 Alpha  occ. eigenvalues --   -0.30517  -0.29120  -0.26347  -0.25113
 Alpha virt. eigenvalues --    0.03323   0.04524   0.07356   0.07616   0.08436
 Alpha virt. eigenvalues --    0.09243   0.09562   0.10669   0.10932   0.11835
 Alpha virt. eigenvalues --    0.12973   0.13431   0.14236   0.14295   0.14914

 Mulliken charges:
               1
     1  N   -0.306605
     2  C    0.179259
     3  C    0.051497
     4  N   -0.237709
     5  C    0.125051
     6  H    0.023657
     7  N   -0.294358
     8  C    0.135500
     9  H    0.011155
    10  N   -0.289255
    11  C    0.235092
    12  C    0.089135
    13  N   -0.042282
    14  H    0.115155
    15  H    0.086547
    16  H    0.027783
    17  H    0.034558
    18  H    0.017895
    19  N   -0.305990
    20  C    0.260659
    21  C    0.182387
    22  N   -0.124589
    23  H    0.117802
    24  H    0.119090
    25  N   -0.311121
    26  C    0.249249
    27  N   -0.147234
    28  H    0.119059
    29  C    0.192575
    30  O   -0.326355
    31  C   -0.022304
    32  N   -0.212605
    33  C    0.121174
    34  H    0.018270
    35  H    0.021887
    36  H    0.032016
    37  H    0.024297
    38  H    0.046381
    39  H    0.060428
    40  H    0.076751
    41  H    0.020931
    42  C   -0.100060
    43  O   -0.285170
    44  C    0.154584
    45  H    0.129629
    46  N   -0.100987
    47  O   -0.348945
    48  C    0.338921
    49  H    0.044383
    50  C    0.179828
    51  C    0.044985
    52  N   -0.278320
    53  H    0.034615
    54  H    0.042323
    55  H    0.022396
    56  H    0.128758
    57  H    0.114314
    58  N   -0.030318
    59  C    0.062312
    60  C    0.231481
    61  N   -0.268283
    62  H    0.029653
    63  C    0.159330
    64  N   -0.295565
    65  H    0.034452
    66  C    0.120950
    67  N   -0.253349
    68  C    0.040793
    69  C    0.179283
    70  N   -0.306826
 Sum of Mulliken charges =  -0.00000

 Dipole moment (field-independent basis, Debye):
    X=              5.3335    Y=              4.8717    Z=              5.8749  Tot=              9.3109
 Quadrupole moment (field-independent basis, Debye-Ang):
   XX=           -146.2353   YY=           -229.2704   ZZ=           -254.2288
   XY=              7.9091   XZ=              7.4044   YZ=             11.6975

 Normal termination of Gaussian 16 at Thu Jan 18 22:54:15 2018.
