 Gaussian 16, Revision A.03,
 Gaussian 16:  EM64L-G16RevA.03 25-Dec-2016

 ---------------------------------------
 #p wb97xd/cc-pvdz sp scf=(maxcycles=20)
 ---------------------------------------

 ------------------
 Base pair stacking
 ------------------
 Symbolic Z-matrix:
 Charge =  0 Multiplicity = 1

                         Standard orientation:
 ---------------------------------------------------------------------
 Center     Atomic      Atomic             Coordinates (Angstroms)
 Number     Number       Type             X           Y           Z
 ---------------------------------------------------------------------
      1          7           0       -6.040844   -1.330973    0.613048
      2          6           0       -7.337609   -0.800824    1.077115
      3          6           0       -3.889656   -1.715089    0.363776
      4          7           0       -4.538627   -2.536784   -0.546375
      5          6           0       -5.808665   -2.272482   -0.359778
      6          1           0       -6.626419   -2.739570   -0.909371
      7          7           0       -2.219614   -0.628293    1.625832
      8          6           0       -3.213684    0.022721    2.238673
      9          1           0       -2.902588    0.730996    3.005369
     10          7           0       -4.528174   -0.069379    2.047513
     11          6           0       -4.802515   -0.965941    1.085577
     12          6           0       -2.528391   -1.523765    0.662565
     13          7           0       -1.537474   -2.174633    0.049676
     14          1           0       -1.719645   -2.846289   -0.669294
     15          1           0       -0.579765   -2.013141    0.288134
     16          1           0       -7.895904   -1.548935    1.436023
     17          1           0       -7.183789   -0.125540    1.797853
     18          1           0       -7.815546   -0.367406    0.313097
     19          7           0       -4.106530    1.827084   -0.965563
     20          6           0       -2.755106    1.951797   -0.750734
     21          6           0       -5.150314    2.670542   -0.349274
     22          7           0       -0.091070    3.551826    0.799917
     23          1           0        0.905480    3.475711    0.818443
     24          1           0       -0.501865    4.269190    1.363257
     25          7           0       -2.158480    2.858501    0.052981
     26          6           0       -0.843596    2.729340    0.053505
     27          7           0       -0.163104    1.785129   -0.676496
     28          1           0        0.843140    1.759786   -0.614928
     29          6           0       -0.756415    0.842244   -1.510046
     30          8           0       -0.050724    0.033415   -2.125303
     31          6           0       -2.168787    0.968544   -1.520956
     32          7           0       -3.132729    0.241188   -2.205564
     33          6           0       -4.263904    0.784714   -1.846098
     34          1           0       -5.245889    0.462947   -2.194601
     35          1           0       -5.769541    2.098500    0.187508
     36          1           0       -4.720242    3.346001    0.248270
     37          1           0       -5.666694    3.140473   -1.064351
     38          1           0        5.775090    1.742168    0.621322
     39          1           0        5.942766    2.638717   -0.886239
     40          1           0        4.475372    2.803987    0.078529
     41          1           0        5.463199   -1.841015   -2.574008
     42          6           0        4.843299   -1.041752   -2.167636
     43          8           0        2.806674   -1.974126   -2.948640
     44          6           0        3.425439   -1.091344   -2.354829
     45          1           0        1.731212   -0.031717   -1.913103
     46          7           0        2.735327   -0.031739   -1.801431
     47          8           0        2.570080    1.922979   -0.657334
     48          6           0        3.264006    1.030122   -1.111134
     49          1           0        6.460912    0.065562   -1.329186
     50          6           0        5.388320   -0.018943   -1.498736
     51          6           0        5.248075    2.120976   -0.241711
     52          7           0        4.637820    1.006696   -0.972260
     53          1           0        5.142279    0.947812    4.075456
     54          1           0        3.900341    1.726988    3.359526
     55          1           0        5.409670    1.868111    2.754479
     56          1           0        1.770098   -3.560582   -0.758614
     57          1           0        3.448525   -3.617246   -0.459012
     58          7           0        2.571248   -3.157789   -0.315825
     59          6           0        2.475099   -2.056928    0.432526
     60          6           0        3.312910   -0.313225    1.817923
     61          7           0        2.121734    0.282567    1.992773
     62          1           0        0.166677    0.039049    1.427920
     63          6           0        1.168638   -0.378623    1.339063
     64          7           0        1.262924   -1.481392    0.589007
     65          1           0        6.496769   -0.772331    2.141017
     66          6           0        5.440371   -0.840921    1.879736
     67          7           0        4.919075   -1.775239    1.122790
     68          6           0        3.570623   -1.452462    1.075453
     69          6           0        4.763408    1.248590    3.200251
     70          7           0        4.525497    0.076924    2.335025
 ---------------------------------------------------------------------

 SCF Done:  E(RwB97XD) =  -2048.75315976     A.U. after   15 cycles

 The electronic state is 1-A.
 Alpha  occ. eigenvalues --  -19.25635 -19.21759 -19.20644 -14.52374 -14.51994
 Alpha  occ. eigenvalues --  -14.49411 -14.48672 -14.47607 -14.46887 -14.46817
 Alpha  occ. eigenvalues --  -14.46589 -14.44879 -14.43581 -14.43409 -14.42627
 Alpha  occ. eigenvalues --  -14.41928 -14.41888 -14.41465 -14.40744 -14.40695
 Alpha  occ. eigenvalues --  -10.45293 -10.41166 -10.39877 -10.38995 -10.38225
 Alpha  occ. eigenvalues --  -10.37438 -10.37437 -10.36594 -10.35904 -10.35555
 Alpha  occ. eigenvalues --  -10.35132 -10.34599 -10.34248 -10.33920 -10.33789
 Alpha  occ. eigenvalues --  -10.33556 -10.33237 -10.31945 -10.31746 -10.30636
 Alpha  occ. eigenvalues --  -10.30601 -10.29028 -10.28020  -1.19264  -1.14668
 Alpha  occ. eigenvalues --   -1.13164  -1.12851  -1.11936  -1.10508  -1.09185
 Alpha  occ. eigenvalues --   -1.08520  -1.08364  -1.05510  -1.03877  -1.02343
 Alpha  occ. eigenvalues --   -1.00912  -1.00380  -0.99671  -0.98464  -0.97514
 Alpha  occ. eigenvalues --   -0.96461  -0.95979  -0.93152  -0.90729  -0.87086
 Alpha  occ. eigenvalues --   -0.85509  -0.84532  -0.83992  -0.83746  -0.82925
 Alpha  occ. eigenvalues --   -0.82332  -0.78645  -0.76319  -0.74552  -0.74103
 Alpha  occ. eigenvalues --   -0.73560  -0.73413  -0.73178  -0.71556  -0.69675
 Alpha  occ. eigenvalues --   -0.67303  -0.66818  -0.66347  -0.66006  -0.64329
 Alpha  occ. eigenvalues --   -0.63677  -0.63528  -0.63164  -0.62566  -0.61672
 Alpha  occ. eigenvalues --   -0.61217  -0.60733  -0.59827  -0.59278  -0.58862
 Alpha  occ. eigenvalues --   -0.58302  -0.58134  -0.57461  -0.57049  -0.56261
 Alpha  occ. eigenvalues --   -0.55858  -0.55789  -0.55049  -0.54778  -0.54214
 Alpha  occ. eigenvalues --   -0.53627  -0.53508  -0.53025  -0.52831  -0.52490
 Alpha  occ. eigenvalues --   -0.52380  -0.52245  -0.52196  -0.51340  -0.50750
 Alpha  occ. eigenvalues --   -0.50059  -0.49735  -0.49382  -0.49203  -0.49100
 Alpha  occ. eigenvalues --   -0.48682  -0.48306  -0.48052  -0.47501  -0.47381
 Alpha  occ. eigenvalues --   -0.47336  -0.45796  -0.45360  -0.43849  -0.43166
 Alpha  occ. eigenvalues --   -0.41665  -0.40070  -0.39267  -0.37636  -0.37292
 Alpha  occ. eigenvalues --   -0.37172  -0.37144  -0.36868  -0.35961  -0.34292
 Alpha  occ. eigenvalues --   -0.34225  -0.33937  -0.33750  -0.33538  -0.33063
 Alpha  occ. eigenvalues --   -0.32598  -0.32267  -0.31821  -0.31453  -0.31412
 Alpha  occ. eigenvalues --   -0.30904  -0.28910  -0.26247  -0.25395
 Alpha virt. eigenvalues --    0.03305   0.04636   0.07396   0.07567   0.08699
 Alpha virt. eigenvalues --    0.08963   0.09836   0.10564   0.10879   0.12041
 Alpha virt. eigenvalues --    0.13436   0.13496   0.13857   0.14574   0.14936

 Mulliken charges:
               1
     1  N   -0.309101
     2  C    0.178080
     3  C    0.053958
     4  N   -0.244691
     5  C    0.121636
     6  H    0.026976
     7  N   -0.287018
     8  C    0.136540
     9  H    0.013447
    10  N   -0.290531
    11  C    0.230764
    12  C    0.090904
    13  N   -0.041288
    14  H    0.112173
    15  H    0.091265
    16  H    0.029594
    17  H    0.036527
    18  H    0.021705
    19  N   -0.298901
    20  C    0.253347
    21  C    0.185116
    22  N   -0.119742
    23  H    0.116549
    24  H    0.117832
    25  N   -0.306859
    26  C    0.237096
    27  N   -0.145054
    28  H    0.122966
    29  C    0.180866
    30  O   -0.325465
    31  C   -0.019793
    32  N   -0.217815
    33  C    0.126571
    34  H    0.020328
    35  H    0.019608
    36  H    0.030108
    37  H    0.021143
    38  H    0.039380
    39  H    0.063059
    40  H    0.076362
    41  H    0.023826
    42  C   -0.083805
    43  O   -0.275698
    44  C    0.156041
    45  H    0.134923
    46  N   -0.118595
    47  O   -0.342644
    48  C    0.338912
    49  H    0.041576
    50  C    0.173397
    51  C    0.044675
    52  N   -0.277673
    53  H    0.035073
    54  H    0.041682
    55  H    0.011931
    56  H    0.123923
    57  H    0.117445
    58  N   -0.036368
    59  C    0.094126
    60  C    0.228999
    61  N   -0.265877
    62  H    0.033528
    63  C    0.152679
    64  N   -0.300906
    65  H    0.032013
    66  C    0.111487
    67  N   -0.245389
    68  C    0.021301
    69  C    0.182581
    70  N   -0.300805
 Sum of Mulliken charges =  -0.00000

 Dipole moment (field-independent basis, Debye):
    X=              5.1793    Y=              5.3221    Z=              5.0788  Tot=              8.9969
 Quadrupole moment (field-independent basis, Debye-Ang):
   XX=           -144.9995   YY=           -224.8918   ZZ=           -259.5301
   XY=              9.9789   XZ=             12.1616   YZ=              3.6788

 Normal termination of Gaussian 16 at Fri Jan 19 07:34:29 2018.
