 Gaussian 16, Revision A.03,
 Gaussian 16:  EM64L-G16RevA.03 25-Dec-2016

 ---------------------------------------
 #p wb97xd/cc-pvdz sp scf=(maxcycles=20)
 ---------------------------------------

 ------------------
 Base pair stacking
 ------------------
 Symbolic Z-matrix:
 Charge =  0 Multiplicity = 1

                         Standard orientation:
 ---------------------------------------------------------------------
 Center     Atomic      Atomic             Coordinates (Angstroms)
 Number     Number       Type             X           Y           Z
 ---------------------------------------------------------------------
      1          7           0       -6.853862   -0.844560    0.327250
      2          6           0       -8.132529   -0.144833    0.558309
      3          6           0       -4.724899   -1.396681    0.325829
      4          7           0       -5.381890   -2.382192   -0.396588
      5          6           0       -6.638215   -2.010106   -0.366809
      6          1           0       -7.457137   -2.553601   -0.838952
      7          7           0       -3.050361   -0.123461    1.392495
      8          6           0       -4.026732    0.713525    1.758221
      9          1           0       -3.706847    1.572249    2.346889
     10          7           0       -5.332767    0.649314    1.507130
     11          6           0       -5.619118   -0.442143    0.778327
     12          6           0       -3.370875   -1.212288    0.659831
     13          7           0       -2.397651   -2.048952    0.293793
     14          1           0       -2.588992   -2.867491   -0.248983
     15          1           0       -1.444621   -1.886197    0.549498
     16          1           0       -8.759782   -0.747951    1.051234
     17          1           0       -7.969272    0.679206    1.099997
     18          1           0       -8.538644    0.110196   -0.319207
     19          7           0       -3.197401    1.753148   -1.390221
     20          6           0       -1.855094    1.849515   -1.112803
     21          6           0       -4.225059    2.733921   -0.986832
     22          7           0        0.804083    3.560017    0.324106
     23          1           0        1.792294    3.442364    0.418211
     24          1           0        0.403364    4.378767    0.736170
     25          7           0       -1.254245    2.848319   -0.430585
     26          6           0        0.049355    2.660821   -0.325294
     27          7           0        0.715515    1.578651   -0.847453
     28          1           0        1.713833    1.517681   -0.718574
     29          6           0        0.117615    0.539112   -1.552960
     30          8           0        0.810094   -0.391861   -1.982497
     31          6           0       -1.282758    0.726552   -1.674226
     32          7           0       -2.246369   -0.058994   -2.291687
     33          6           0       -3.363661    0.587833   -2.098063
     34          1           0       -4.341251    0.258264   -2.451567
     35          1           0       -4.903954    2.287573   -0.404874
     36          1           0       -3.791736    3.478448   -0.480697
     37          1           0       -4.674086    3.102308   -1.800140
     38          1           0        6.561153    1.478456    0.815895
     39          1           0        6.861702    2.104663   -0.803422
     40          1           0        5.354658    2.494386    0.026208
     41          1           0        6.227344   -2.565733   -1.768600
     42          6           0        5.631413   -1.682675   -1.537721
     43          8           0        3.592344   -2.636920   -2.285189
     44          6           0        4.225532   -1.697415   -1.804359
     45          1           0        2.571151   -0.502706   -1.649407
     46          7           0        3.565984   -0.530337   -1.475450
     47          8           0        3.446876    1.592182   -0.676764
     48          6           0        4.114010    0.605676   -0.934438
     49          1           0        7.259351   -0.527352   -0.788804
     50          6           0        6.194747   -0.589422   -1.010396
     51          6           0        6.104639    1.733089   -0.128993
     52          7           0        5.474594    0.542519   -0.706330
     53          1           0        4.267127    1.604988    3.872218
     54          1           0        3.121683    2.248425    2.904738
     55          1           0        4.666511    2.150888    2.386994
     56          1           0        0.841963   -3.772797    0.075755
     57          1           0        2.494497   -3.845467    0.492826
     58          7           0        1.645371   -3.317176    0.459262
     59          6           0        1.588053   -2.060986    0.906336
     60          6           0        2.473221   -0.075993    1.874840
     61          7           0        1.319334    0.609315    1.817237
     62          1           0       -0.616086    0.340894    1.198617
     63          6           0        0.357349   -0.140332    1.282891
     64          7           0        0.412775   -1.398686    0.834514
     65          1           0        5.596006   -0.614915    2.515127
     66          6           0        4.552361   -0.688102    2.207892
     67          7           0        4.006715   -1.751364    1.669906
     68          6           0        2.688505   -1.376724    1.453797
     69          6           0        3.956149    1.698595    2.926428
     70          7           0        3.681777    0.363239    2.361134
 ---------------------------------------------------------------------

 SCF Done:  E(RwB97XD) =  -2048.75048280     A.U. after   15 cycles

 The electronic state is 1-A.
 Alpha  occ. eigenvalues --  -19.26042 -19.21999 -19.20548 -14.52607 -14.51335
 Alpha  occ. eigenvalues --  -14.49930 -14.48359 -14.47863 -14.46630 -14.46464
 Alpha  occ. eigenvalues --  -14.46350 -14.44203 -14.42975 -14.42844 -14.42832
 Alpha  occ. eigenvalues --  -14.42578 -14.42099 -14.41882 -14.41160 -14.40619
 Alpha  occ. eigenvalues --  -10.45611 -10.40991 -10.40069 -10.38373 -10.38101
 Alpha  occ. eigenvalues --  -10.37621 -10.36882 -10.36420 -10.36014 -10.35875
 Alpha  occ. eigenvalues --  -10.35219 -10.34562 -10.34537 -10.34145 -10.34114
 Alpha  occ. eigenvalues --  -10.33370 -10.33048 -10.31954 -10.31214 -10.30977
 Alpha  occ. eigenvalues --  -10.29939 -10.29708 -10.27933  -1.19612  -1.13995
 Alpha  occ. eigenvalues --   -1.13089  -1.13004  -1.12529  -1.10354  -1.09465
 Alpha  occ. eigenvalues --   -1.08407  -1.07734  -1.06046  -1.03271  -1.02548
 Alpha  occ. eigenvalues --   -1.01462  -0.99753  -0.99548  -0.98356  -0.98044
 Alpha  occ. eigenvalues --   -0.96232  -0.95372  -0.93663  -0.91017  -0.86478
 Alpha  occ. eigenvalues --   -0.85068  -0.84957  -0.84092  -0.83787  -0.83372
 Alpha  occ. eigenvalues --   -0.81959  -0.78904  -0.75754  -0.74385  -0.73924
 Alpha  occ. eigenvalues --   -0.73515  -0.73482  -0.73366  -0.72137  -0.69111
 Alpha  occ. eigenvalues --   -0.67332  -0.67190  -0.66585  -0.65431  -0.64469
 Alpha  occ. eigenvalues --   -0.63751  -0.63535  -0.62946  -0.62526  -0.61527
 Alpha  occ. eigenvalues --   -0.61130  -0.60771  -0.59540  -0.59335  -0.58470
 Alpha  occ. eigenvalues --   -0.58184  -0.58073  -0.57590  -0.57426  -0.56399
 Alpha  occ. eigenvalues --   -0.56211  -0.56004  -0.54819  -0.54403  -0.54304
 Alpha  occ. eigenvalues --   -0.53744  -0.53412  -0.52946  -0.52851  -0.52623
 Alpha  occ. eigenvalues --   -0.52371  -0.52091  -0.51664  -0.51598  -0.51167
 Alpha  occ. eigenvalues --   -0.50049  -0.49930  -0.49468  -0.48738  -0.48606
 Alpha  occ. eigenvalues --   -0.48497  -0.48126  -0.47965  -0.47900  -0.47649
 Alpha  occ. eigenvalues --   -0.47307  -0.45889  -0.45256  -0.44103  -0.43237
 Alpha  occ. eigenvalues --   -0.42069  -0.39654  -0.39516  -0.38286  -0.37128
 Alpha  occ. eigenvalues --   -0.37105  -0.36791  -0.36238  -0.35482  -0.34664
 Alpha  occ. eigenvalues --   -0.34544  -0.34221  -0.33278  -0.33187  -0.32979
 Alpha  occ. eigenvalues --   -0.32588  -0.32334  -0.31820  -0.31786  -0.31729
 Alpha  occ. eigenvalues --   -0.31379  -0.28299  -0.26794  -0.25259
 Alpha virt. eigenvalues --    0.03096   0.05215   0.06791   0.08209   0.08691
 Alpha virt. eigenvalues --    0.09121   0.09763   0.10120   0.10877   0.11930
 Alpha virt. eigenvalues --    0.12962   0.13017   0.14659   0.14787   0.15301

 Mulliken charges:
               1
     1  N   -0.310490
     2  C    0.180145
     3  C    0.041896
     4  N   -0.254117
     5  C    0.130049
     6  H    0.029928
     7  N   -0.272752
     8  C    0.127875
     9  H    0.019376
    10  N   -0.292168
    11  C    0.235473
    12  C    0.094442
    13  N   -0.038083
    14  H    0.108457
    15  H    0.088911
    16  H    0.028991
    17  H    0.035589
    18  H    0.025744
    19  N   -0.298149
    20  C    0.250590
    21  C    0.183188
    22  N   -0.111007
    23  H    0.111541
    24  H    0.115806
    25  N   -0.299208
    26  C    0.227807
    27  N   -0.124308
    28  H    0.119221
    29  C    0.148701
    30  O   -0.324164
    31  C    0.001673
    32  N   -0.225845
    33  C    0.117666
    34  H    0.026203
    35  H    0.019980
    36  H    0.025840
    37  H    0.020169
    38  H    0.048985
    39  H    0.065858
    40  H    0.080393
    41  H    0.029840
    42  C   -0.085182
    43  O   -0.270564
    44  C    0.179942
    45  H    0.134455
    46  N   -0.126290
    47  O   -0.347043
    48  C    0.341111
    49  H    0.043945
    50  C    0.163459
    51  C    0.033824
    52  N   -0.282808
    53  H    0.032269
    54  H    0.036077
    55  H    0.003395
    56  H    0.118664
    57  H    0.120533
    58  N   -0.054793
    59  C    0.127440
    60  C    0.224749
    61  N   -0.276657
    62  H    0.036923
    63  C    0.164166
    64  N   -0.303979
    65  H    0.025714
    66  C    0.114890
    67  N   -0.248127
    68  C    0.014650
    69  C    0.186171
    70  N   -0.296979
 Sum of Mulliken charges =  -0.00000

 Dipole moment (field-independent basis, Debye):
    X=              4.8196    Y=              5.5629    Z=              4.4049  Tot=              8.5778
 Quadrupole moment (field-independent basis, Debye-Ang):
   XX=           -140.1846   YY=           -226.3186   ZZ=           -257.8339
   XY=             15.1400   XZ=             19.4341   YZ=             -2.1942

 Normal termination of Gaussian 16 at Thu Jan 18 16:32:10 2018.
