 Gaussian 16, Revision A.03,
 Gaussian 16:  EM64L-G16RevA.03 25-Dec-2016

 ---------------------------------------
 #p wb97xd/cc-pvdz sp scf=(maxcycles=20)
 ---------------------------------------

 ------------------
 Base pair stacking
 ------------------
 Symbolic Z-matrix:
 Charge =  0 Multiplicity = 1

                         Standard orientation:
 ---------------------------------------------------------------------
 Center     Atomic      Atomic             Coordinates (Angstroms)
 Number     Number       Type             X           Y           Z
 ---------------------------------------------------------------------
      1          7           0       -4.587722    0.571158   -1.789435
      2          6           0       -5.888894   -0.125089   -1.803396
      3          6           0       -2.433911    1.009715   -1.711199
      4          7           0       -3.074764    2.233513   -1.839077
      5          6           0       -4.346704    1.920314   -1.881106
      6          1           0       -5.159617    2.640402   -1.979031
      7          7           0       -0.775011   -0.653069   -1.496411
      8          6           0       -1.774790   -1.540619   -1.479898
      9          1           0       -1.470585   -2.581987   -1.383630
     10          7           0       -3.087772   -1.335899   -1.564062
     11          6           0       -3.353448   -0.024188   -1.679208
     12          6           0       -1.075127    0.658920   -1.613369
     13          7           0       -0.078510    1.546415   -1.630041
     14          1           0       -0.254202    2.527808   -1.714984
     15          1           0        0.877196    1.260747   -1.558227
     16          1           0       -6.362818    0.068404   -2.662538
     17          1           0       -5.741566   -1.110185   -1.719641
     18          1           0       -6.447703    0.192962   -1.037521
     19          7           0       -5.576505   -0.638285    0.898811
     20          6           0       -4.224795   -0.879916    0.949404
     21          6           0       -6.611151   -1.640031    0.572156
     22          7           0       -1.546727   -3.068681    0.634742
     23          1           0       -0.551652   -3.034315    0.723476
     24          1           0       -1.950095   -3.950291    0.388236
     25          7           0       -3.619579   -2.063542    0.711127
     26          6           0       -2.306899   -1.981884    0.837007
     27          7           0       -1.636293   -0.830156    1.170636
     28          1           0       -0.631015   -0.860592    1.244480
     29          6           0       -2.238563    0.399017    1.420211
     30          8           0       -1.541423    1.377982    1.714065
     31          6           0       -3.648678    0.327027    1.288800
     32          7           0       -4.619165    1.306663    1.448075
     33          6           0       -5.744140    0.689599    1.207457
     34          1           0       -6.728624    1.157472    1.241430
     35          1           0       -7.115183   -1.348404   -0.240069
     36          1           0       -6.174663   -2.520892    0.393704
     37          1           0       -7.242937   -1.732027    1.341047
     38          1           0        4.393013   -1.518423    0.821227
     39          1           0        4.312738   -1.660320    2.575673
     40          1           0        2.955335   -2.197074    1.585365
     41          1           0        4.024485    3.114781    2.063889
     42          6           0        3.389432    2.234506    1.963633
     43          8           0        1.363361    3.468239    1.970710
     44          6           0        1.968747    2.398273    1.911882
     45          1           0        0.252186    1.296627    1.744246
     46          7           0        1.258897    1.221389    1.784213
     47          8           0        1.060070   -1.032726    1.592811
     48          6           0        1.770926   -0.049463    1.704860
     49          1           0        4.992446    0.829317    1.923332
     50          6           0        3.918512    1.007691    1.888618
     51          6           0        3.741623   -1.463049    1.680705
     52          7           0        3.148690   -0.125281    1.761769
     53          1           0        6.585528   -3.538513   -1.073422
     54          1           0        5.242868   -3.477066   -0.148443
     55          1           0        6.694155   -3.095184    0.493444
     56          1           0        3.267330    3.052556   -1.856293
     57          1           0        4.960986    2.858146   -1.918143
     58          7           0        4.061784    2.455864   -1.742548
     59          6           0        3.929128    1.180276   -1.373166
     60          6           0        4.716998   -0.994049   -0.813430
     61          7           0        3.496986   -1.507378   -0.584352
     62          1           0        1.534236   -0.918082   -0.615469
     63          6           0        2.557745   -0.584161   -0.780333
     64          7           0        2.688599    0.693960   -1.150306
     65          1           0        7.941168   -0.950619   -1.047940
     66          6           0        6.878580   -0.706052   -1.043762
     67          7           0        6.383449    0.470253   -1.341829
     68          6           0        5.013767    0.301415   -1.199734
     69          6           0        6.128354   -3.050359   -0.329986
     70          7           0        5.926594   -1.639864   -0.714420
 ---------------------------------------------------------------------

 SCF Done:  E(RwB97XD) =  -2048.62973880     A.U. after   16 cycles

 The electronic state is 1-A.
 Alpha  occ. eigenvalues --  -19.24959 -19.21149 -19.20749 -14.53303 -14.51436
 Alpha  occ. eigenvalues --  -14.49465 -14.48963 -14.48557 -14.47058 -14.46712
 Alpha  occ. eigenvalues --  -14.46678 -14.45906 -14.44567 -14.44532 -14.42980
 Alpha  occ. eigenvalues --  -14.41787 -14.41560 -14.41488 -14.41113 -14.40755
 Alpha  occ. eigenvalues --  -10.44607 -10.41021 -10.40435 -10.39260 -10.38450
 Alpha  occ. eigenvalues --  -10.38377 -10.37697 -10.36826 -10.36021 -10.35901
 Alpha  occ. eigenvalues --  -10.34676 -10.34588 -10.34312 -10.34084 -10.33749
 Alpha  occ. eigenvalues --  -10.33296 -10.33028 -10.32078 -10.31703 -10.31217
 Alpha  occ. eigenvalues --  -10.30169 -10.28844 -10.28538  -1.18738  -1.16092
 Alpha  occ. eigenvalues --   -1.13637  -1.12186  -1.11641  -1.11158  -1.10015
 Alpha  occ. eigenvalues --   -1.08983  -1.08341  -1.05780  -1.05566  -1.01628
 Alpha  occ. eigenvalues --   -1.01598  -1.01155  -1.00058  -0.98832  -0.97835
 Alpha  occ. eigenvalues --   -0.97500  -0.97038  -0.93292  -0.90034  -0.88324
 Alpha  occ. eigenvalues --   -0.86611  -0.85307  -0.84000  -0.83551  -0.82586
 Alpha  occ. eigenvalues --   -0.82410  -0.77993  -0.77623  -0.75889  -0.75139
 Alpha  occ. eigenvalues --   -0.73983  -0.73364  -0.72475  -0.71683  -0.71032
 Alpha  occ. eigenvalues --   -0.67800  -0.67653  -0.66842  -0.65672  -0.64882
 Alpha  occ. eigenvalues --   -0.64743  -0.63463  -0.63422  -0.62812  -0.62175
 Alpha  occ. eigenvalues --   -0.61969  -0.61436  -0.61168  -0.60296  -0.59665
 Alpha  occ. eigenvalues --   -0.59221  -0.58839  -0.58528  -0.57523  -0.56353
 Alpha  occ. eigenvalues --   -0.56173  -0.55681  -0.55591  -0.54774  -0.54475
 Alpha  occ. eigenvalues --   -0.54272  -0.54046  -0.53599  -0.53274  -0.52934
 Alpha  occ. eigenvalues --   -0.52371  -0.51944  -0.51262  -0.51057  -0.50653
 Alpha  occ. eigenvalues --   -0.50486  -0.49564  -0.49523  -0.49306  -0.49201
 Alpha  occ. eigenvalues --   -0.49115  -0.48581  -0.47980  -0.47647  -0.47355
 Alpha  occ. eigenvalues --   -0.47002  -0.46042  -0.44800  -0.44300  -0.42268
 Alpha  occ. eigenvalues --   -0.40726  -0.40508  -0.39292  -0.38794  -0.38078
 Alpha  occ. eigenvalues --   -0.37845  -0.37306  -0.36438  -0.35381  -0.35095
 Alpha  occ. eigenvalues --   -0.34578  -0.34049  -0.33791  -0.33465  -0.33152
 Alpha  occ. eigenvalues --   -0.33010  -0.32388  -0.32000  -0.31081  -0.30869
 Alpha  occ. eigenvalues --   -0.30231  -0.29906  -0.27512  -0.24107
 Alpha virt. eigenvalues --    0.03132   0.04350   0.06292   0.06396   0.08091
 Alpha virt. eigenvalues --    0.09029   0.09215   0.09879   0.11595   0.12756
 Alpha virt. eigenvalues --    0.12791   0.13114   0.14127   0.14417   0.15041

 Mulliken charges:
               1
     1  N   -0.293087
     2  C    0.205068
     3  C    0.063601
     4  N   -0.252385
     5  C    0.144830
     6  H    0.026585
     7  N   -0.272061
     8  C    0.127863
     9  H    0.000202
    10  N   -0.261251
    11  C    0.212018
    12  C    0.067716
    13  N   -0.056937
    14  H    0.110877
    15  H    0.083299
    16  H    0.022830
    17  H    0.027154
    18  H   -0.002109
    19  N   -0.298848
    20  C    0.205047
    21  C    0.173179
    22  N   -0.082222
    23  H    0.123571
    24  H    0.121973
    25  N   -0.226864
    26  C    0.101979
    27  N   -0.084060
    28  H    0.121968
    29  C    0.168345
    30  O   -0.317637
    31  C    0.018117
    32  N   -0.206979
    33  C    0.092485
    34  H    0.027271
    35  H    0.011062
    36  H    0.039132
    37  H    0.027544
    38  H    0.023564
    39  H    0.024859
    40  H    0.069000
    41  H    0.023340
    42  C   -0.099672
    43  O   -0.269917
    44  C    0.176933
    45  H    0.130610
    46  N   -0.116592
    47  O   -0.341049
    48  C    0.308730
    49  H    0.046393
    50  C    0.153812
    51  C    0.112933
    52  N   -0.273756
    53  H    0.036989
    54  H    0.045463
    55  H    0.032330
    56  H    0.122603
    57  H    0.121014
    58  N   -0.064423
    59  C    0.115688
    60  C    0.229011
    61  N   -0.299401
    62  H    0.036417
    63  C    0.160980
    64  N   -0.309224
    65  H    0.040731
    66  C    0.139045
    67  N   -0.254475
    68  C    0.040740
    69  C    0.182909
    70  N   -0.314859
 Sum of Mulliken charges =  -0.00000

 Dipole moment (field-independent basis, Debye):
    X=              5.6218    Y=             -7.9351    Z=             -2.3825  Tot=             10.0123
 Quadrupole moment (field-independent basis, Debye-Ang):
   XX=           -147.4404   YY=           -236.8553   ZZ=           -254.5485
   XY=             -1.9159   XZ=             10.8271   YZ=            -19.0856

 Normal termination of Gaussian 16 at Fri Jan 19 05:20:25 2018.
