 Gaussian 16, Revision A.03,
 Gaussian 16:  EM64L-G16RevA.03 25-Dec-2016

 ---------------------------------------
 #p wb97xd/cc-pvdz sp scf=(maxcycles=20)
 ---------------------------------------

 ------------------
 Base pair stacking
 ------------------
 Symbolic Z-matrix:
 Charge =  0 Multiplicity = 1

                         Standard orientation:
 ---------------------------------------------------------------------
 Center     Atomic      Atomic             Coordinates (Angstroms)
 Number     Number       Type             X           Y           Z
 ---------------------------------------------------------------------
      1          7           0       -7.133010   -0.783823    0.171128
      2          6           0       -8.414924   -0.129012    0.496573
      3          6           0       -5.004026   -1.332182    0.107662
      4          7           0       -5.650890   -2.184945   -0.774981
      5          6           0       -6.907638   -1.820450   -0.701427
      6          1           0       -7.719953   -2.277829   -1.267018
      7          7           0       -3.344425   -0.253803    1.390547
      8          6           0       -4.325912    0.513830    1.875311
      9          1           0       -4.014279    1.264022    2.600813
     10          7           0       -5.628440    0.493977    1.599745
     11          6           0       -5.904581   -0.462947    0.698377
     12          6           0       -3.654672   -1.207429    0.485335
     13          7           0       -2.676318   -1.974691    0.000264
     14          1           0       -2.860056   -2.692990   -0.671671
     15          1           0       -1.726863   -1.857736    0.291818
     16          1           0       -9.048522   -0.803524    0.875735
     17          1           0       -8.259248    0.594952    1.167963
     18          1           0       -8.809314    0.266952   -0.332689
     19          7           0       -2.864406    1.978096   -1.355215
     20          6           0       -1.522459    2.033480   -1.065087
     21          6           0       -3.864226    2.993361   -0.967553
     22          7           0        1.175675    3.667286    0.388339
     23          1           0        2.158689    3.518902    0.492875
     24          1           0        0.797206    4.500780    0.791799
     25          7           0       -0.896824    3.016766   -0.382620
     26          6           0        0.399078    2.788631   -0.263394
     27          7           0        1.035540    1.682778   -0.772815
     28          1           0        2.030119    1.590937   -0.633737
     29          6           0        0.411773    0.658547   -1.478314
     30          8           0        1.078451   -0.296481   -1.895709
     31          6           0       -0.980688    0.889599   -1.614470
     32          7           0       -1.962743    0.131345   -2.236977
     33          6           0       -3.060742    0.814438   -2.058068
     34          1           0       -4.044837    0.513955   -2.419347
     35          1           0       -4.562582    2.572264   -0.389818
     36          1           0       -3.412391    3.726771   -0.461372
     37          1           0       -4.293408    3.370959   -1.787339
     38          1           0        6.858640    1.407086    0.948779
     39          1           0        7.194629    2.013772   -0.670998
     40          1           0        5.692760    2.456059    0.141471
     41          1           0        6.421534   -2.639823   -1.615999
     42          6           0        5.851772   -1.736935   -1.396020
     43          8           0        3.790738   -2.630438   -2.158197
     44          6           0        4.448775   -1.708650   -1.676444
     45          1           0        2.831780   -0.461146   -1.544616
     46          7           0        3.823502   -0.519293   -1.360677
     47          8           0        3.764173    1.610659   -0.575219
     48          6           0        4.402076    0.601959   -0.820699
     49          1           0        7.508258   -0.629408   -0.637581
     50          6           0        6.444418   -0.658981   -0.869329
     51          6           0        6.419630    1.670441   -0.002002
     52          7           0        5.757691    0.497031   -0.578801
     53          1           0        3.938486    1.032014    4.216876
     54          1           0        2.805902    1.827237    3.352609
     55          1           0        4.357576    1.812912    2.846482
     56          1           0        0.566567   -3.645546   -0.453884
     57          1           0        2.213376   -3.788530   -0.032389
     58          7           0        1.364593   -3.260315    0.009685
     59          6           0        1.300816   -2.094138    0.655546
     60          6           0        2.172170   -0.296069    1.947599
     61          7           0        1.018910    0.391546    1.987600
     62          1           0       -0.907932    0.231549    1.307685
     63          6           0        0.064468   -0.258761    1.325001
     64          7           0        0.126359   -1.426854    0.677473
     65          1           0        5.286276   -0.938266    2.532518
     66          6           0        4.246872   -0.958252    2.203592
     67          7           0        3.708887   -1.918111    1.491609
     68          6           0        2.393566   -1.510733    1.322216
     69          6           0        3.640199    1.279732    3.295114
     70          7           0        3.373930    0.055423    2.515253
 ---------------------------------------------------------------------

 SCF Done:  E(RwB97XD) =  -2048.75152883     A.U. after   15 cycles

 The electronic state is 1-A.
 Alpha  occ. eigenvalues --  -19.26079 -19.22033 -19.20704 -14.52603 -14.50986
 Alpha  occ. eigenvalues --  -14.49858 -14.48553 -14.47823 -14.46868 -14.46754
 Alpha  occ. eigenvalues --  -14.45702 -14.43856 -14.42809 -14.42564 -14.42466
 Alpha  occ. eigenvalues --  -14.42356 -14.42032 -14.41956 -14.41076 -14.40759
 Alpha  occ. eigenvalues --  -10.45629 -10.41220 -10.40120 -10.38304 -10.37880
 Alpha  occ. eigenvalues --  -10.37660 -10.36505 -10.36319 -10.35872 -10.35494
 Alpha  occ. eigenvalues --  -10.35188 -10.34477 -10.34307 -10.34089 -10.34032
 Alpha  occ. eigenvalues --  -10.33137 -10.33020 -10.31852 -10.31016 -10.30828
 Alpha  occ. eigenvalues --  -10.30368 -10.29651 -10.28103  -1.19617  -1.13633
 Alpha  occ. eigenvalues --   -1.13240  -1.13022  -1.12467  -1.10516  -1.09473
 Alpha  occ. eigenvalues --   -1.08609  -1.07228  -1.05953  -1.02768  -1.02514
 Alpha  occ. eigenvalues --   -1.01341  -0.99796  -0.99343  -0.98515  -0.97975
 Alpha  occ. eigenvalues --   -0.96421  -0.94890  -0.93546  -0.91027  -0.86074
 Alpha  occ. eigenvalues --   -0.84977  -0.84566  -0.84040  -0.83949  -0.83298
 Alpha  occ. eigenvalues --   -0.82226  -0.78910  -0.75301  -0.74543  -0.73848
 Alpha  occ. eigenvalues --   -0.73666  -0.73385  -0.73018  -0.72048  -0.68642
 Alpha  occ. eigenvalues --   -0.67376  -0.67234  -0.66601  -0.64943  -0.64477
 Alpha  occ. eigenvalues --   -0.63714  -0.63634  -0.62660  -0.62473  -0.61724
 Alpha  occ. eigenvalues --   -0.61024  -0.60240  -0.59560  -0.58857  -0.58426
 Alpha  occ. eigenvalues --   -0.58247  -0.58026  -0.57428  -0.57235  -0.56433
 Alpha  occ. eigenvalues --   -0.56120  -0.56084  -0.54457  -0.54416  -0.53923
 Alpha  occ. eigenvalues --   -0.53591  -0.53583  -0.52880  -0.52770  -0.52753
 Alpha  occ. eigenvalues --   -0.52238  -0.51954  -0.51728  -0.51271  -0.51063
 Alpha  occ. eigenvalues --   -0.50106  -0.49948  -0.49505  -0.48767  -0.48475
 Alpha  occ. eigenvalues --   -0.48343  -0.48211  -0.47882  -0.47832  -0.47690
 Alpha  occ. eigenvalues --   -0.47387  -0.45962  -0.44999  -0.44084  -0.43004
 Alpha  occ. eigenvalues --   -0.42124  -0.39626  -0.39120  -0.38182  -0.37287
 Alpha  occ. eigenvalues --   -0.37189  -0.36584  -0.35834  -0.35228  -0.34566
 Alpha  occ. eigenvalues --   -0.34477  -0.34467  -0.33271  -0.32874  -0.32823
 Alpha  occ. eigenvalues --   -0.32609  -0.32269  -0.31935  -0.31874  -0.31831
 Alpha  occ. eigenvalues --   -0.31241  -0.27995  -0.26655  -0.25454
 Alpha virt. eigenvalues --    0.03159   0.05510   0.06882   0.08222   0.08889
 Alpha virt. eigenvalues --    0.09100   0.09736   0.10139   0.10678   0.12354
 Alpha virt. eigenvalues --    0.13003   0.13102   0.14616   0.14775   0.15665

 Mulliken charges:
               1
     1  N   -0.309984
     2  C    0.180507
     3  C    0.031213
     4  N   -0.256153
     5  C    0.130766
     6  H    0.029729
     7  N   -0.276962
     8  C    0.128423
     9  H    0.018740
    10  N   -0.290533
    11  C    0.235180
    12  C    0.090744
    13  N   -0.033939
    14  H    0.107734
    15  H    0.090710
    16  H    0.028500
    17  H    0.036185
    18  H    0.025653
    19  N   -0.301512
    20  C    0.246986
    21  C    0.182333
    22  N   -0.119361
    23  H    0.111238
    24  H    0.117836
    25  N   -0.303698
    26  C    0.240336
    27  N   -0.125252
    28  H    0.118554
    29  C    0.154821
    30  O   -0.324798
    31  C   -0.002664
    32  N   -0.227127
    33  C    0.121724
    34  H    0.030483
    35  H    0.027911
    36  H    0.027084
    37  H    0.021719
    38  H    0.052058
    39  H    0.064606
    40  H    0.076139
    41  H    0.030457
    42  C   -0.088069
    43  O   -0.275430
    44  C    0.188077
    45  H    0.134456
    46  N   -0.128042
    47  O   -0.351200
    48  C    0.345363
    49  H    0.044980
    50  C    0.162025
    51  C    0.037214
    52  N   -0.289846
    53  H    0.030833
    54  H    0.037833
    55  H    0.015333
    56  H    0.116357
    57  H    0.120965
    58  N   -0.048312
    59  C    0.130098
    60  C    0.236378
    61  N   -0.271696
    62  H    0.039771
    63  C    0.153370
    64  N   -0.304256
    65  H    0.022869
    66  C    0.115111
    67  N   -0.249511
    68  C    0.010852
    69  C    0.180475
    70  N   -0.302384
 Sum of Mulliken charges =  -0.00000

 Dipole moment (field-independent basis, Debye):
    X=              5.0254    Y=              5.6644    Z=              4.0701  Tot=              8.5968
 Quadrupole moment (field-independent basis, Debye-Ang):
   XX=           -138.5648   YY=           -226.9726   ZZ=           -254.2972
   XY=             13.4874   XZ=             23.8875   YZ=              0.3079

 Normal termination of Gaussian 16 at Thu Jan 18 21:27:23 2018.
