 Gaussian 16, Revision A.03,
 Gaussian 16:  EM64L-G16RevA.03 25-Dec-2016

 ---------------------------------------
 #p wb97xd/cc-pvdz sp scf=(maxcycles=20)
 ---------------------------------------

 ------------------
 Base pair stacking
 ------------------
 Symbolic Z-matrix:
 Charge =  0 Multiplicity = 1

                         Standard orientation:
 ---------------------------------------------------------------------
 Center     Atomic      Atomic             Coordinates (Angstroms)
 Number     Number       Type             X           Y           Z
 ---------------------------------------------------------------------
      1          7           0        4.268460    0.594321    2.007382
      2          6           0        5.560172   -0.103264    2.158608
      3          6           0        2.125479    1.033323    1.778844
      4          7           0        2.772305    2.260365    1.805530
      5          6           0        4.037489    1.946771    1.942148
      6          1           0        4.852325    2.668893    2.001386
      7          7           0        0.461332   -0.634105    1.663842
      8          6           0        1.451444   -1.523566    1.790793
      9          1           0        1.141270   -2.567618    1.792169
     10          7           0        2.761030   -1.317937    1.915717
     11          6           0        3.034646   -0.002879    1.902242
     12          6           0        0.769266    0.681251    1.653803
     13          7           0       -0.217705    1.570651    1.527163
     14          1           0       -0.035986    2.554541    1.514783
     15          1           0       -1.171865    1.283982    1.440400
     16          1           0        5.994877    0.179023    3.013895
     17          1           0        5.406695   -1.090859    2.173943
     18          1           0        6.157922    0.127577    1.390882
     19          7           0        5.869411   -0.647806   -0.807623
     20          6           0        4.521857   -0.893849   -0.915388
     21          6           0        6.901558   -1.662090   -0.513367
     22          7           0        1.852995   -3.114330   -0.823745
     23          1           0        0.860846   -3.080386   -0.940948
     24          1           0        2.255664   -4.007430   -0.621384
     25          7           0        3.919108   -2.093894   -0.771725
     26          6           0        2.610286   -2.012282   -0.932827
     27          7           0        1.941009   -0.845681   -1.213216
     28          1           0        0.938741   -0.877411   -1.320004
     29          6           0        2.540793    0.400507   -1.365332
     30          8           0        1.845153    1.392004   -1.617857
     31          6           0        3.946760    0.328779   -1.195085
     32          7           0        4.913804    1.322407   -1.261569
     33          6           0        6.035785    0.698051   -1.025880
     34          1           0        7.017074    1.173072   -0.999471
     35          1           0        7.378160   -1.419824    0.331009
     36          1           0        6.466867   -2.555146   -0.404891
     37          1           0        7.557269   -1.701042   -1.266576
     38          1           0       -4.090470   -1.591171   -1.095512
     39          1           0       -3.955452   -1.620378   -2.852090
     40          1           0       -2.624719   -2.211017   -1.856268
     41          1           0       -3.721148    3.114002   -2.029079
     42          6           0       -3.082445    2.232962   -1.965344
     43          8           0       -1.067026    3.476830   -1.831113
     44          6           0       -1.665365    2.401661   -1.859224
     45          1           0        0.054025    1.301929   -1.708783
     46          7           0       -0.950364    1.223325   -1.784668
     47          8           0       -0.739476   -1.037167   -1.730874
     48          6           0       -1.454409   -0.053069   -1.802195
     49          1           0       -4.674655    0.818431   -2.064201
     50          6           0       -3.603755    1.000702   -1.984914
     51          6           0       -3.413564   -1.477150   -1.929096
     52          7           0       -2.829137   -0.133399   -1.906525
     53          1           0       -6.900671   -3.509264    1.198329
     54          1           0       -5.515142   -3.554796    0.337891
     55          1           0       -6.930336   -3.236500   -0.410447
     56          1           0       -3.554571    3.110098    1.429095
     57          1           0       -5.251204    2.932454    1.429722
     58          7           0       -4.348948    2.508857    1.341820
     59          6           0       -4.212283    1.200247    1.118140
     60          6           0       -4.995443   -1.017473    0.757410
     61          7           0       -3.771373   -1.558935    0.643766
     62          1           0       -1.806258   -0.980115    0.706113
     63          6           0       -2.832884   -0.624972    0.784685
     64          7           0       -2.967743    0.686198    1.008765
     65          1           0       -8.226474   -0.931988    0.830232
     66          6           0       -7.162373   -0.694916    0.851081
     67          7           0       -6.669653    0.503986    1.044837
     68          6           0       -5.296617    0.313581    0.987850
     69          6           0       -6.403727   -3.106354    0.429744
     70          7           0       -6.205678   -1.663767    0.670021
 ---------------------------------------------------------------------

 SCF Done:  E(RwB97XD) =  -2048.72533729     A.U. after   15 cycles

 The electronic state is 1-A.
 Alpha  occ. eigenvalues --  -19.24961 -19.21219 -19.20692 -14.52988 -14.51339
 Alpha  occ. eigenvalues --  -14.49602 -14.48838 -14.48591 -14.47003 -14.46826
 Alpha  occ. eigenvalues --  -14.46690 -14.45717 -14.44880 -14.44858 -14.43233
 Alpha  occ. eigenvalues --  -14.41999 -14.41868 -14.41503 -14.41361 -14.41139
 Alpha  occ. eigenvalues --  -10.44522 -10.41277 -10.40472 -10.39295 -10.38431
 Alpha  occ. eigenvalues --  -10.38290 -10.37721 -10.36735 -10.36411 -10.36201
 Alpha  occ. eigenvalues --  -10.34878 -10.34335 -10.34176 -10.34174 -10.33788
 Alpha  occ. eigenvalues --  -10.33704 -10.33242 -10.32406 -10.31901 -10.30928
 Alpha  occ. eigenvalues --  -10.30181 -10.29019 -10.28641  -1.18528  -1.15733
 Alpha  occ. eigenvalues --   -1.13493  -1.12213  -1.11522  -1.11234  -1.09991
 Alpha  occ. eigenvalues --   -1.08693  -1.08216  -1.05777  -1.05601  -1.01562
 Alpha  occ. eigenvalues --   -1.01374  -1.01178  -0.99825  -0.98874  -0.97707
 Alpha  occ. eigenvalues --   -0.97268  -0.97122  -0.93475  -0.90000  -0.88178
 Alpha  occ. eigenvalues --   -0.86351  -0.84858  -0.84220  -0.83269  -0.82627
 Alpha  occ. eigenvalues --   -0.82136  -0.77940  -0.77500  -0.75566  -0.75102
 Alpha  occ. eigenvalues --   -0.73787  -0.73401  -0.72399  -0.71637  -0.70917
 Alpha  occ. eigenvalues --   -0.67623  -0.67361  -0.66826  -0.65646  -0.64762
 Alpha  occ. eigenvalues --   -0.64701  -0.63302  -0.63169  -0.62772  -0.61991
 Alpha  occ. eigenvalues --   -0.61164  -0.61094  -0.60852  -0.60067  -0.59128
 Alpha  occ. eigenvalues --   -0.59022  -0.58718  -0.58374  -0.57099  -0.56204
 Alpha  occ. eigenvalues --   -0.55843  -0.55577  -0.55361  -0.54801  -0.54384
 Alpha  occ. eigenvalues --   -0.54312  -0.54043  -0.53389  -0.53259  -0.52892
 Alpha  occ. eigenvalues --   -0.52400  -0.52015  -0.51100  -0.50820  -0.50687
 Alpha  occ. eigenvalues --   -0.50529  -0.50303  -0.49666  -0.49446  -0.49310
 Alpha  occ. eigenvalues --   -0.48648  -0.48505  -0.48003  -0.47384  -0.47340
 Alpha  occ. eigenvalues --   -0.47023  -0.45835  -0.45536  -0.44505  -0.42772
 Alpha  occ. eigenvalues --   -0.41360  -0.40929  -0.38804  -0.38316  -0.38107
 Alpha  occ. eigenvalues --   -0.38022  -0.37378  -0.37165  -0.35385  -0.35156
 Alpha  occ. eigenvalues --   -0.34661  -0.34150  -0.33991  -0.33909  -0.33187
 Alpha  occ. eigenvalues --   -0.32824  -0.32424  -0.32011  -0.31363  -0.31027
 Alpha  occ. eigenvalues --   -0.30754  -0.30426  -0.26906  -0.25339
 Alpha virt. eigenvalues --    0.02757   0.04834   0.06252   0.07455   0.08439
 Alpha virt. eigenvalues --    0.08988   0.09376   0.09952   0.10369   0.12661
 Alpha virt. eigenvalues --    0.13181   0.13530   0.14067   0.14330   0.14672

 Mulliken charges:
               1
     1  N   -0.294430
     2  C    0.196967
     3  C    0.053684
     4  N   -0.248810
     5  C    0.149084
     6  H    0.028279
     7  N   -0.280674
     8  C    0.118616
     9  H   -0.000645
    10  N   -0.268837
    11  C    0.220603
    12  C    0.077553
    13  N   -0.059269
    14  H    0.115151
    15  H    0.085774
    16  H    0.025606
    17  H    0.032976
    18  H    0.000495
    19  N   -0.298041
    20  C    0.216820
    21  C    0.179014
    22  N   -0.104185
    23  H    0.120326
    24  H    0.118862
    25  N   -0.281701
    26  C    0.209601
    27  N   -0.117656
    28  H    0.119282
    29  C    0.177807
    30  O   -0.317380
    31  C    0.006341
    32  N   -0.212112
    33  C    0.092810
    34  H    0.024908
    35  H    0.013382
    36  H    0.036329
    37  H    0.030184
    38  H    0.066193
    39  H    0.038320
    40  H    0.068425
    41  H    0.020393
    42  C   -0.099202
    43  O   -0.271381
    44  C    0.174088
    45  H    0.131722
    46  N   -0.123618
    47  O   -0.343124
    48  C    0.328197
    49  H    0.045683
    50  C    0.155160
    51  C    0.054744
    52  N   -0.270750
    53  H    0.037034
    54  H    0.042535
    55  H    0.031250
    56  H    0.122769
    57  H    0.120494
    58  N   -0.062011
    59  C    0.101493
    60  C    0.228833
    61  N   -0.283206
    62  H    0.040506
    63  C    0.153877
    64  N   -0.303973
    65  H    0.040598
    66  C    0.141903
    67  N   -0.257405
    68  C    0.038651
    69  C    0.179065
    70  N   -0.313978
 Sum of Mulliken charges =  -0.00000

 Dipole moment (field-independent basis, Debye):
    X=             -5.7468    Y=             -7.8650    Z=              1.5094  Tot=              9.8571
 Quadrupole moment (field-independent basis, Debye-Ang):
   XX=           -147.3594   YY=           -236.5539   ZZ=           -251.8688
   XY=             -0.4446   XZ=             13.7163   YZ=             18.2838

 Normal termination of Gaussian 16 at Thu Jan 18 21:15:39 2018.
