 Gaussian 16, Revision A.03,
 Gaussian 16:  EM64L-G16RevA.03 25-Dec-2016

 ---------------------------------------
 #p wb97xd/cc-pvdz sp scf=(maxcycles=20)
 ---------------------------------------

 ------------------
 Base pair stacking
 ------------------
 Symbolic Z-matrix:
 Charge =  0 Multiplicity = 1

                         Standard orientation:
 ---------------------------------------------------------------------
 Center     Atomic      Atomic             Coordinates (Angstroms)
 Number     Number       Type             X           Y           Z
 ---------------------------------------------------------------------
      1          7           0        4.306270    0.423146    1.899620
      2          6           0        5.605625   -0.276626    1.899588
      3          6           0        2.155525    0.872324    1.800403
      4          7           0        2.795367    2.083877    2.018261
      5          6           0        4.065509    1.764776    2.069325
      6          1           0        4.877206    2.474903    2.229933
      7          7           0        0.499115   -0.768853    1.445755
      8          6           0        1.497522   -1.656745    1.396690
      9          1           0        1.193813   -2.689211    1.229227
     10          7           0        2.808599   -1.461666    1.522833
     11          6           0        3.073815   -0.160434    1.725019
     12          6           0        0.798705    0.532453    1.650533
     13          7           0       -0.196547    1.420263    1.699828
     14          1           0       -0.021174    2.393963    1.849377
     15          1           0       -1.150864    1.142527    1.588999
     16          1           0        6.060342   -0.138183    2.779494
     17          1           0        5.458578   -1.254175    1.751628
     18          1           0        6.182128    0.086538    1.167641
     19          7           0        5.841450   -0.575988   -0.786325
     20          6           0        4.490824   -0.809859   -0.882120
     21          6           0        6.866770   -1.599217   -0.499258
     22          7           0        1.802663   -3.005670   -0.763956
     23          1           0        0.809902   -2.962822   -0.872697
     24          1           0        2.198876   -3.902101   -0.563589
     25          7           0        3.878382   -2.004112   -0.731328
     26          6           0        2.569032   -1.910772   -0.881337
     27          7           0        1.908068   -0.738533   -1.157884
     28          1           0        0.904665   -0.761245   -1.256018
     29          6           0        2.517883    0.501883   -1.317189
     30          8           0        1.829203    1.499305   -1.565363
     31          6           0        3.924547    0.417555   -1.158877
     32          7           0        4.900023    1.402180   -1.235281
     33          6           0        6.018241    0.767949   -1.008198
     34          1           0        7.004025    1.233998   -0.990992
     35          1           0        7.352801   -1.360012    0.340592
     36          1           0        6.424884   -2.488095   -0.385605
     37          1           0        7.515610   -1.645348   -1.257999
     38          1           0       -4.128739   -1.428583   -0.987237
     39          1           0       -4.009085   -1.461771   -2.744861
     40          1           0       -2.675305   -2.063011   -1.759520
     41          1           0       -3.724460    3.271547   -1.931662
     42          6           0       -3.093311    2.384799   -1.871957
     43          8           0       -1.065531    3.610371   -1.757042
     44          6           0       -1.673889    2.540674   -1.778265
     45          1           0        0.036596    1.425486   -1.640767
     46          7           0       -0.969076    1.355968   -1.707921
     47          8           0       -0.778405   -0.906275   -1.652229
     48          6           0       -1.484901    0.084213   -1.719023
     49          1           0       -4.699181    0.984752   -1.954837
     50          6           0       -3.626008    1.157330   -1.885035
     51          6           0       -3.458006   -1.322076   -1.826791
     52          7           0       -2.861150    0.016315   -1.811428
     53          1           0       -6.854829   -3.599907    0.679579
     54          1           0       -5.491512   -3.485406   -0.209442
     55          1           0       -6.927281   -3.060027   -0.858833
     56          1           0       -3.544105    2.919771    1.943874
     57          1           0       -5.239059    2.727115    1.955519
     58          7           0       -4.336795    2.333719    1.775548
     59          6           0       -4.197968    1.083062    1.330860
     60          6           0       -4.976632   -1.049977    0.619836
     61          7           0       -3.752614   -1.551885    0.386828
     62          1           0       -1.790091   -0.971682    0.498467
     63          6           0       -2.816502   -0.645470    0.660703
     64          7           0       -2.953537    0.607673    1.106177
     65          1           0       -8.205204   -1.011250    0.784175
     66          6           0       -7.142375   -0.770164    0.819021
     67          7           0       -6.652142    0.383893    1.200482
     68          6           0       -5.279884    0.219971    1.078971
     69          6           0       -6.380156   -3.068045   -0.021712
     70          7           0       -6.184768   -1.684700    0.453865
 ---------------------------------------------------------------------

 SCF Done:  E(RwB97XD) =  -2048.62474427     A.U. after   15 cycles

 The electronic state is 1-A.
 Alpha  occ. eigenvalues --  -19.24898 -19.21149 -19.20652 -14.53308 -14.51303
 Alpha  occ. eigenvalues --  -14.49490 -14.48870 -14.48538 -14.46974 -14.46673
 Alpha  occ. eigenvalues --  -14.46626 -14.45888 -14.45179 -14.44831 -14.43320
 Alpha  occ. eigenvalues --  -14.41951 -14.41712 -14.41502 -14.41214 -14.41099
 Alpha  occ. eigenvalues --  -10.44445 -10.41246 -10.40396 -10.39227 -10.38425
 Alpha  occ. eigenvalues --  -10.38379 -10.37800 -10.36669 -10.36226 -10.36206
 Alpha  occ. eigenvalues --  -10.34762 -10.34623 -10.34303 -10.34183 -10.33865
 Alpha  occ. eigenvalues --  -10.33393 -10.33368 -10.32003 -10.30865 -10.30697
 Alpha  occ. eigenvalues --  -10.30191 -10.29078 -10.28588  -1.18545  -1.16082
 Alpha  occ. eigenvalues --   -1.13677  -1.12145  -1.11585  -1.11326  -1.10350
 Alpha  occ. eigenvalues --   -1.08949  -1.08184  -1.06220  -1.05781  -1.01584
 Alpha  occ. eigenvalues --   -1.01480  -1.01304  -1.00078  -0.98929  -0.98250
 Alpha  occ. eigenvalues --   -0.97414  -0.97186  -0.93558  -0.89972  -0.88394
 Alpha  occ. eigenvalues --   -0.86573  -0.85095  -0.84271  -0.83403  -0.82698
 Alpha  occ. eigenvalues --   -0.82026  -0.77921  -0.77615  -0.76075  -0.75202
 Alpha  occ. eigenvalues --   -0.73933  -0.73505  -0.72413  -0.71847  -0.71087
 Alpha  occ. eigenvalues --   -0.67737  -0.67672  -0.67019  -0.65696  -0.64867
 Alpha  occ. eigenvalues --   -0.64804  -0.63548  -0.63537  -0.62854  -0.62168
 Alpha  occ. eigenvalues --   -0.61796  -0.61444  -0.61208  -0.60372  -0.59779
 Alpha  occ. eigenvalues --   -0.59464  -0.58778  -0.58470  -0.57530  -0.56341
 Alpha  occ. eigenvalues --   -0.56247  -0.55784  -0.55589  -0.55088  -0.54446
 Alpha  occ. eigenvalues --   -0.54296  -0.54117  -0.53657  -0.53307  -0.52801
 Alpha  occ. eigenvalues --   -0.52639  -0.51961  -0.51196  -0.50921  -0.50755
 Alpha  occ. eigenvalues --   -0.50537  -0.50022  -0.49627  -0.49544  -0.49362
 Alpha  occ. eigenvalues --   -0.48644  -0.48524  -0.47905  -0.47413  -0.47314
 Alpha  occ. eigenvalues --   -0.46938  -0.45826  -0.45494  -0.43861  -0.42962
 Alpha  occ. eigenvalues --   -0.40355  -0.40117  -0.39380  -0.38786  -0.38215
 Alpha  occ. eigenvalues --   -0.37994  -0.37317  -0.36729  -0.35630  -0.35133
 Alpha  occ. eigenvalues --   -0.34387  -0.34245  -0.34120  -0.33707  -0.33177
 Alpha  occ. eigenvalues --   -0.32439  -0.32334  -0.31968  -0.31438  -0.30751
 Alpha  occ. eigenvalues --   -0.30508  -0.29438  -0.27154  -0.24629
 Alpha virt. eigenvalues --    0.02661   0.04727   0.06259   0.07282   0.08110
 Alpha virt. eigenvalues --    0.08827   0.09162   0.09902   0.10646   0.12759
 Alpha virt. eigenvalues --    0.13080   0.13335   0.14039   0.14303   0.14574

 Mulliken charges:
               1
     1  N   -0.290895
     2  C    0.212449
     3  C    0.064255
     4  N   -0.252628
     5  C    0.147373
     6  H    0.028208
     7  N   -0.267685
     8  C    0.110447
     9  H   -0.001566
    10  N   -0.263045
    11  C    0.209046
    12  C    0.071689
    13  N   -0.059830
    14  H    0.112395
    15  H    0.083977
    16  H    0.020531
    17  H    0.027195
    18  H   -0.000968
    19  N   -0.296606
    20  C    0.181439
    21  C    0.171578
    22  N   -0.084848
    23  H    0.123284
    24  H    0.120463
    25  N   -0.240457
    26  C    0.138679
    27  N   -0.092669
    28  H    0.123814
    29  C    0.166046
    30  O   -0.317325
    31  C    0.026744
    32  N   -0.208553
    33  C    0.090347
    34  H    0.025381
    35  H    0.016033
    36  H    0.038919
    37  H    0.031404
    38  H    0.059035
    39  H    0.020843
    40  H    0.061646
    41  H    0.023015
    42  C   -0.097772
    43  O   -0.269001
    44  C    0.176473
    45  H    0.131794
    46  N   -0.123286
    47  O   -0.339023
    48  C    0.323538
    49  H    0.045833
    50  C    0.156444
    51  C    0.074701
    52  N   -0.271773
    53  H    0.037043
    54  H    0.044065
    55  H    0.032550
    56  H    0.121173
    57  H    0.120810
    58  N   -0.066222
    59  C    0.106143
    60  C    0.231438
    61  N   -0.274636
    62  H    0.046407
    63  C    0.135081
    64  N   -0.302497
    65  H    0.041188
    66  C    0.141827
    67  N   -0.255741
    68  C    0.039331
    69  C    0.180444
    70  N   -0.315491
 Sum of Mulliken charges =  -0.00000

 Dipole moment (field-independent basis, Debye):
    X=             -5.8500    Y=             -8.1116    Z=              1.8008  Tot=             10.1619
 Quadrupole moment (field-independent basis, Debye-Ang):
   XX=           -147.4455   YY=           -239.5063   ZZ=           -251.6413
   XY=             -1.6173   XZ=             13.5261   YZ=             19.7299

 Normal termination of Gaussian 16 at Fri Jan 19 06:08:54 2018.
