 Gaussian 16, Revision A.03,
 Gaussian 16:  EM64L-G16RevA.03 25-Dec-2016

 ---------------------------------------
 #p wb97xd/cc-pvdz sp scf=(maxcycles=20)
 ---------------------------------------

 ------------------
 Base pair stacking
 ------------------
 Symbolic Z-matrix:
 Charge =  0 Multiplicity = 1

                         Standard orientation:
 ---------------------------------------------------------------------
 Center     Atomic      Atomic             Coordinates (Angstroms)
 Number     Number       Type             X           Y           Z
 ---------------------------------------------------------------------
      1          7           0        4.195778   -2.477779   -0.544071
      2          6           0        5.445220   -2.553384   -1.325840
      3          6           0        2.093144   -2.219666    0.047215
      4          7           0        2.784112   -2.548676    1.204395
      5          6           0        4.023215   -2.691005    0.801844
      6          1           0        4.859557   -2.953351    1.450427
      7          7           0        0.377117   -1.648305   -1.466630
      8          6           0        1.320140   -1.640740   -2.414379
      9          1           0        0.969911   -1.398826   -3.416914
     10          7           0        2.624697   -1.886003   -2.310149
     11          6           0        2.949979   -2.172189   -1.038645
     12          6           0        0.736360   -1.939986   -0.197398
     13          7           0       -0.203554   -1.948034    0.750060
     14          1           0        0.017049   -2.158510    1.703076
     15          1           0       -1.159729   -1.744060    0.539674
     16          1           0        5.829234   -3.474087   -1.254868
     17          1           0        5.252419   -2.346700   -2.284603
     18          1           0        6.104243   -1.890881   -0.969801
     19          7           0        5.902022    1.238759   -0.143185
     20          6           0        4.564241    1.528546   -0.263255
     21          6           0        6.954977    1.659923   -1.089019
     22          7           0        1.955501    3.029225   -1.996514
     23          1           0        0.965491    3.127551   -1.899307
     24          1           0        2.377987    3.459492   -2.794695
     25          7           0        3.991502    2.240990   -1.257455
     26          6           0        2.684627    2.351017   -1.097447
     27          7           0        1.989884    1.805811   -0.045031
     28          1           0        0.991317    1.940455   -0.003803
     29          6           0        2.558574    1.069036    0.989191
     30          8           0        1.841681    0.620544    1.892328
     31          6           0        3.962078    0.942308    0.831071
     32          7           0        4.902892    0.297459    1.622231
     33          6           0        6.036245    0.499573    1.006703
     34          1           0        7.003470    0.130364    1.349402
     35          1           0        7.406909    0.853180   -1.468126
     36          1           0        6.542580    2.188488   -1.829848
     37          1           0        7.627238    2.225009   -0.611987
     38          1           0       -4.020198    2.418713   -0.717053
     39          1           0       -3.847454    3.742714    0.432653
     40          1           0       -2.522409    3.348808   -0.663004
     41          1           0       -3.759557   -0.031207    3.415325
     42          6           0       -3.098577    0.486354    2.719997
     43          8           0       -1.121065   -0.510222    3.570526
     44          6           0       -1.689173    0.246945    2.783923
     45          1           0        0.055971    0.808922    1.874539
     46          7           0       -0.944073    0.951831    1.860225
     47          8           0       -0.672891    2.409866    0.140402
     48          6           0       -1.412694    1.831897    0.917135
     49          1           0       -4.649244    1.555867    1.721315
     50          6           0       -3.585613    1.339151    1.811071
     51          6           0       -3.329236    2.941119   -0.072281
     52          7           0       -2.782224    2.009697    0.918160
     53          1           0       -7.040816   -0.130665   -3.780369
     54          1           0       -5.600893    0.633940   -3.716455
     55          1           0       -6.946166    1.380607   -3.171660
     56          1           0       -3.462222   -1.981433    2.451308
     57          1           0       -5.160316   -1.841125    2.368453
     58          7           0       -4.271433   -1.718989    1.925538
     59          6           0       -4.170772   -1.227872    0.688670
     60          6           0       -5.012928   -0.352005   -1.357148
     61          7           0       -3.806085   -0.198920   -1.926809
     62          1           0       -1.829065   -0.503099   -1.480170
     63          6           0       -2.843956   -0.593903   -1.095429
     64          7           0       -2.942744   -1.086076    0.143758
     65          1           0       -8.235190   -0.245758   -1.116571
     66          6           0       -7.166742   -0.381473   -0.946492
     67          7           0       -6.642261   -0.857953    0.156037
     68          6           0       -5.277158   -0.844584   -0.091028
     69          6           0       -6.475458    0.501769   -3.250855
     70          7           0       -6.238399   -0.054594   -1.904648
 ---------------------------------------------------------------------

 SCF Done:  E(RwB97XD) =  -2048.73823542     A.U. after   15 cycles

 The electronic state is 1-A.
 Alpha  occ. eigenvalues --  -19.25345 -19.22088 -19.20893 -14.52502 -14.51839
 Alpha  occ. eigenvalues --  -14.49650 -14.48261 -14.48019 -14.47458 -14.47200
 Alpha  occ. eigenvalues --  -14.47007 -14.45405 -14.44658 -14.44572 -14.42441
 Alpha  occ. eigenvalues --  -14.42309 -14.41820 -14.40945 -14.40534 -14.40438
 Alpha  occ. eigenvalues --  -10.44939 -10.41669 -10.40005 -10.39971 -10.38630
 Alpha  occ. eigenvalues --  -10.38019 -10.37421 -10.36857 -10.36100 -10.35439
 Alpha  occ. eigenvalues --  -10.35044 -10.34576 -10.34194 -10.33864 -10.33425
 Alpha  occ. eigenvalues --  -10.33146 -10.33105 -10.32892 -10.31749 -10.30729
 Alpha  occ. eigenvalues --  -10.30364 -10.28783 -10.28303  -1.18916  -1.15289
 Alpha  occ. eigenvalues --   -1.13648  -1.12993  -1.11273  -1.10880  -1.09617
 Alpha  occ. eigenvalues --   -1.08962  -1.08664  -1.05099  -1.05032  -1.02105
 Alpha  occ. eigenvalues --   -1.01018  -1.00404  -1.00123  -0.99067  -0.97331
 Alpha  occ. eigenvalues --   -0.97141  -0.96461  -0.92740  -0.90499  -0.87772
 Alpha  occ. eigenvalues --   -0.85935  -0.84836  -0.83622  -0.83278  -0.83017
 Alpha  occ. eigenvalues --   -0.82051  -0.78423  -0.77144  -0.75222  -0.75013
 Alpha  occ. eigenvalues --   -0.74058  -0.72978  -0.72662  -0.70919  -0.70547
 Alpha  occ. eigenvalues --   -0.67865  -0.66975  -0.66181  -0.66075  -0.64867
 Alpha  occ. eigenvalues --   -0.64467  -0.63560  -0.63015  -0.62531  -0.62245
 Alpha  occ. eigenvalues --   -0.60622  -0.60475  -0.60043  -0.59500  -0.59068
 Alpha  occ. eigenvalues --   -0.59006  -0.58701  -0.57643  -0.56379  -0.55964
 Alpha  occ. eigenvalues --   -0.55908  -0.55475  -0.55225  -0.54672  -0.54378
 Alpha  occ. eigenvalues --   -0.54000  -0.53759  -0.53626  -0.53389  -0.52966
 Alpha  occ. eigenvalues --   -0.52811  -0.52042  -0.51464  -0.50705  -0.50602
 Alpha  occ. eigenvalues --   -0.50230  -0.49969  -0.49866  -0.49444  -0.49061
 Alpha  occ. eigenvalues --   -0.48736  -0.48638  -0.48490  -0.47691  -0.47465
 Alpha  occ. eigenvalues --   -0.46747  -0.45853  -0.45448  -0.44941  -0.42579
 Alpha  occ. eigenvalues --   -0.41080  -0.40819  -0.39195  -0.37976  -0.37898
 Alpha  occ. eigenvalues --   -0.37691  -0.37645  -0.36848  -0.35582  -0.34969
 Alpha  occ. eigenvalues --   -0.34588  -0.34368  -0.33463  -0.33369  -0.33217
 Alpha  occ. eigenvalues --   -0.33139  -0.32940  -0.32157  -0.31008  -0.30690
 Alpha  occ. eigenvalues --   -0.30350  -0.30193  -0.26332  -0.25427
 Alpha virt. eigenvalues --    0.02431   0.04784   0.06921   0.08104   0.08510
 Alpha virt. eigenvalues --    0.08946   0.09384   0.10361   0.10981   0.12307
 Alpha virt. eigenvalues --    0.13197   0.13229   0.14145   0.14375   0.15127

 Mulliken charges:
               1
     1  N   -0.306088
     2  C    0.185185
     3  C    0.035439
     4  N   -0.239409
     5  C    0.152712
     6  H    0.025808
     7  N   -0.298270
     8  C    0.128632
     9  H    0.009201
    10  N   -0.284926
    11  C    0.240065
    12  C    0.082129
    13  N   -0.060894
    14  H    0.121520
    15  H    0.092539
    16  H    0.024392
    17  H    0.032501
    18  H    0.013778
    19  N   -0.310119
    20  C    0.256488
    21  C    0.181922
    22  N   -0.123286
    23  H    0.119079
    24  H    0.119944
    25  N   -0.312660
    26  C    0.253403
    27  N   -0.147315
    28  H    0.120426
    29  C    0.195492
    30  O   -0.317049
    31  C   -0.014184
    32  N   -0.218824
    33  C    0.107417
    34  H    0.024325
    35  H    0.021130
    36  H    0.033138
    37  H    0.027594
    38  H    0.057093
    39  H    0.055767
    40  H    0.073752
    41  H    0.011677
    42  C   -0.100907
    43  O   -0.282216
    44  C    0.175824
    45  H    0.131204
    46  N   -0.123628
    47  O   -0.354615
    48  C    0.349201
    49  H    0.045494
    50  C    0.162775
    51  C    0.044079
    52  N   -0.277489
    53  H    0.034823
    54  H    0.042169
    55  H    0.029194
    56  H    0.128520
    57  H    0.118117
    58  N   -0.052996
    59  C    0.073411
    60  C    0.237833
    61  N   -0.268256
    62  H    0.035112
    63  C    0.164424
    64  N   -0.303281
    65  H    0.039447
    66  C    0.140332
    67  N   -0.261565
    68  C    0.037333
    69  C    0.179340
    70  N   -0.313206
 Sum of Mulliken charges =  -0.00000

 Dipole moment (field-independent basis, Debye):
    X=             -5.3867    Y=              5.2157    Z=             -6.3189  Tot=              9.8055
 Quadrupole moment (field-independent basis, Debye-Ang):
   XX=           -146.5022   YY=           -231.4182   ZZ=           -250.7812
   XY=            -11.7669   XZ=             -5.4048   YZ=            -12.3042

 Normal termination of Gaussian 16 at Fri Jan 19 06:31:33 2018.
