 Gaussian 16, Revision A.03,
 Gaussian 16:  EM64L-G16RevA.03 25-Dec-2016

 ---------------------------------------
 #p wb97xd/cc-pvdz sp scf=(maxcycles=20)
 ---------------------------------------

 ------------------
 Base pair stacking
 ------------------
 Symbolic Z-matrix:
 Charge =  0 Multiplicity = 1

                         Standard orientation:
 ---------------------------------------------------------------------
 Center     Atomic      Atomic             Coordinates (Angstroms)
 Number     Number       Type             X           Y           Z
 ---------------------------------------------------------------------
      1          7           0       -5.755805   -1.700737    0.423865
      2          6           0       -7.052901   -1.418730    1.068851
      3          6           0       -3.602776   -1.882100    0.012877
      4          7           0       -4.254727   -2.369608   -1.110513
      5          6           0       -5.525750   -2.240832   -0.817957
      6          1           0       -6.345785   -2.526474   -1.477428
      7          7           0       -1.927732   -1.221914    1.536479
      8          6           0       -2.921432   -0.864260    2.356373
      9          1           0       -2.608096   -0.448746    3.313153
     10          7           0       -4.237889   -0.942447    2.172687
     11          6           0       -4.514899   -1.466154    0.967111
     12          6           0       -2.239228   -1.745634    0.330757
     13          7           0       -1.248697   -2.103256   -0.489073
     14          1           0       -1.432831   -2.495154   -1.391146
     15          1           0       -0.289306   -1.991713   -0.229680
     16          1           0       -7.572899   -2.268093    1.160273
     17          1           0       -6.897141   -1.025282    1.974417
     18          1           0       -7.571306   -0.771010    0.510547
     19          7           0       -4.407373    2.001520   -0.478233
     20          6           0       -3.053158    2.117068   -0.276216
     21          6           0       -5.449446    2.698652    0.302011
     22          7           0       -0.378067    3.478013    1.471215
     23          1           0        0.619834    3.422575    1.452735
     24          1           0       -0.786618    4.074871    2.162272
     25          7           0       -2.451813    2.880726    0.661468
     26          6           0       -1.135234    2.783542    0.608475
     27          7           0       -0.457473    1.999086   -0.293074
     28          1           0        0.550360    1.986221   -0.260411
     29          6           0       -1.055647    1.205192   -1.266611
     30          8           0       -0.352092    0.534234   -2.031826
     31          6           0       -2.469891    1.299175   -1.222066
     32          7           0       -3.438428    0.682560   -2.002200
     33          6           0       -4.569287    1.127999   -1.525792
     34          1           0       -5.554246    0.850611   -1.902886
     35          1           0       -6.043394    2.026730    0.743086
     36          1           0       -5.015886    3.267419    0.999716
     37          1           0       -5.993440    3.275741   -0.306154
     38          1           0        5.513331    1.862772    0.837955
     39          1           0        5.623853    3.015395   -0.490166
     40          1           0        4.180205    2.973911    0.522513
     41          1           0        5.181163   -1.104999   -2.934118
     42          6           0        4.557891   -0.404561   -2.378103
     43          8           0        2.518391   -1.230335   -3.264482
     44          6           0        3.136646   -0.452597   -2.538068
     45          1           0        1.435806    0.473275   -1.876076
     46          7           0        2.442402    0.476410   -1.789592
     47          8           0        2.272241    2.193692   -0.313388
     48          6           0        2.969936    1.411237   -0.934390
     49          1           0        6.176954    0.573629   -1.394427
     50          6           0        5.101904    0.495991   -1.551273
     51          6           0        4.956394    2.376118    0.068307
     52          7           0        4.347197    1.394970   -0.833894
     53          1           0        5.457058   -0.261528    4.224383
     54          1           0        4.165521    0.660910    3.846032
     55          1           0        5.647424    1.066421    3.295005
     56          1           0        2.073848   -2.982862   -1.793405
     57          1           0        3.762585   -3.065592   -1.566635
     58          7           0        2.875777   -2.721700   -1.255961
     59          6           0        2.768462   -1.949215   -0.172938
     60          6           0        3.594339   -0.751068    1.709636
     61          7           0        2.390497   -0.303749    2.103467
     62          1           0        0.426421   -0.423885    1.530268
     63          6           0        1.438226   -0.741756    1.282353
     64          7           0        1.543689   -1.515526    0.197123
     65          1           0        6.801145   -1.153940    1.788688
     66          6           0        5.739268   -1.174795    1.541864
     67          7           0        5.223937   -1.814929    0.520916
     68          6           0        3.864540   -1.554537    0.615584
     69          6           0        5.038221    0.304131    3.514026
     70          7           0        4.810225   -0.509295    2.303916
 ---------------------------------------------------------------------

 SCF Done:  E(RwB97XD) =  -2048.73941996     A.U. after   15 cycles

 The electronic state is 1-A.
 Alpha  occ. eigenvalues --  -19.25787 -19.21662 -19.20778 -14.52474 -14.51929
 Alpha  occ. eigenvalues --  -14.49031 -14.48910 -14.47787 -14.47043 -14.46778
 Alpha  occ. eigenvalues --  -14.46415 -14.44818 -14.43497 -14.43311 -14.42263
 Alpha  occ. eigenvalues --  -14.42105 -14.41449 -14.41115 -14.40942 -14.40415
 Alpha  occ. eigenvalues --  -10.45406 -10.41344 -10.40060 -10.38801 -10.38392
 Alpha  occ. eigenvalues --  -10.37536 -10.37417 -10.36537 -10.35567 -10.35471
 Alpha  occ. eigenvalues --  -10.35071 -10.34470 -10.34186 -10.33650 -10.33572
 Alpha  occ. eigenvalues --  -10.33433 -10.33277 -10.31847 -10.31480 -10.31025
 Alpha  occ. eigenvalues --  -10.30689 -10.28663 -10.28224  -1.19387  -1.14615
 Alpha  occ. eigenvalues --   -1.13327  -1.13147  -1.11549  -1.10709  -1.09293
 Alpha  occ. eigenvalues --   -1.08690  -1.08272  -1.05193  -1.03801  -1.02509
 Alpha  occ. eigenvalues --   -1.00556  -1.00297  -0.99855  -0.98642  -0.97139
 Alpha  occ. eigenvalues --   -0.96688  -0.95900  -0.92833  -0.90843  -0.86988
 Alpha  occ. eigenvalues --   -0.85388  -0.84238  -0.84175  -0.83755  -0.82663
 Alpha  occ. eigenvalues --   -0.82556  -0.78773  -0.76240  -0.74746  -0.74045
 Alpha  occ. eigenvalues --   -0.73738  -0.73308  -0.73078  -0.71222  -0.69559
 Alpha  occ. eigenvalues --   -0.67496  -0.66478  -0.66453  -0.65947  -0.64491
 Alpha  occ. eigenvalues --   -0.63859  -0.63363  -0.62846  -0.62734  -0.61863
 Alpha  occ. eigenvalues --   -0.60848  -0.60425  -0.59690  -0.59367  -0.58728
 Alpha  occ. eigenvalues --   -0.58524  -0.58482  -0.57249  -0.56730  -0.56347
 Alpha  occ. eigenvalues --   -0.55965  -0.55533  -0.55128  -0.54725  -0.54327
 Alpha  occ. eigenvalues --   -0.53782  -0.53641  -0.53063  -0.52996  -0.52532
 Alpha  occ. eigenvalues --   -0.52452  -0.52130  -0.52045  -0.51078  -0.50451
 Alpha  occ. eigenvalues --   -0.50300  -0.49877  -0.49513  -0.49426  -0.48932
 Alpha  occ. eigenvalues --   -0.48893  -0.48469  -0.47713  -0.47569  -0.47500
 Alpha  occ. eigenvalues --   -0.47141  -0.46026  -0.45058  -0.43744  -0.42920
 Alpha  occ. eigenvalues --   -0.41278  -0.40024  -0.39398  -0.37619  -0.37383
 Alpha  occ. eigenvalues --   -0.37309  -0.37187  -0.36760  -0.35860  -0.34442
 Alpha  occ. eigenvalues --   -0.34008  -0.33709  -0.33549  -0.33398  -0.33201
 Alpha  occ. eigenvalues --   -0.32727  -0.32389  -0.31962  -0.31615  -0.31072
 Alpha  occ. eigenvalues --   -0.30569  -0.28544  -0.26095  -0.25384
 Alpha virt. eigenvalues --    0.03212   0.04656   0.07608   0.07853   0.08346
 Alpha virt. eigenvalues --    0.09093   0.09628   0.10677   0.10877   0.11943
 Alpha virt. eigenvalues --    0.13151   0.13518   0.14149   0.14345   0.14865

 Mulliken charges:
               1
     1  N   -0.308036
     2  C    0.179311
     3  C    0.052585
     4  N   -0.239662
     5  C    0.119791
     6  H    0.024683
     7  N   -0.292774
     8  C    0.136702
     9  H    0.012229
    10  N   -0.290956
    11  C    0.233260
    12  C    0.090349
    13  N   -0.041140
    14  H    0.113884
    15  H    0.089653
    16  H    0.028160
    17  H    0.034875
    18  H    0.019463
    19  N   -0.305129
    20  C    0.259130
    21  C    0.182845
    22  N   -0.123482
    23  H    0.117299
    24  H    0.118918
    25  N   -0.310618
    26  C    0.246902
    27  N   -0.148164
    28  H    0.119814
    29  C    0.192869
    30  O   -0.327568
    31  C   -0.025032
    32  N   -0.214387
    33  C    0.126703
    34  H    0.019207
    35  H    0.023755
    36  H    0.031128
    37  H    0.023218
    38  H    0.045824
    39  H    0.061758
    40  H    0.076868
    41  H    0.022427
    42  C   -0.087615
    43  O   -0.284868
    44  C    0.142403
    45  H    0.133498
    46  N   -0.105386
    47  O   -0.346947
    48  C    0.342279
    49  H    0.042696
    50  C    0.182326
    51  C    0.044317
    52  N   -0.278510
    53  H    0.033962
    54  H    0.042221
    55  H    0.018856
    56  H    0.128030
    57  H    0.113705
    58  N   -0.025099
    59  C    0.069396
    60  C    0.237247
    61  N   -0.271044
    62  H    0.029358
    63  C    0.159861
    64  N   -0.298351
    65  H    0.032379
    66  C    0.114554
    67  N   -0.250647
    68  C    0.029839
    69  C    0.180921
    70  N   -0.306048
 Sum of Mulliken charges =  -0.00000

 Dipole moment (field-independent basis, Debye):
    X=              5.3832    Y=              4.9495    Z=              5.6084  Tot=              9.2158
 Quadrupole moment (field-independent basis, Debye-Ang):
   XX=           -145.3284   YY=           -228.5917   ZZ=           -254.5470
   XY=              7.2225   XZ=             10.5846   YZ=             10.7983

 Normal termination of Gaussian 16 at Thu Jan 18 22:04:09 2018.
