 Gaussian 16, Revision A.03,
 Gaussian 16:  EM64L-G16RevA.03 25-Dec-2016

 ---------------------------------------
 #p wb97xd/cc-pvdz sp scf=(maxcycles=20)
 ---------------------------------------

 ------------------
 Base pair stacking
 ------------------
 Symbolic Z-matrix:
 Charge =  0 Multiplicity = 1

                         Standard orientation:
 ---------------------------------------------------------------------
 Center     Atomic      Atomic             Coordinates (Angstroms)
 Number     Number       Type             X           Y           Z
 ---------------------------------------------------------------------
      1          7           0       -5.760176   -1.778651    0.285756
      2          6           0       -7.056236   -1.596871    0.967809
      3          6           0       -3.607844   -1.887028   -0.153599
      4          7           0       -4.261545   -2.219985   -1.331109
      5          6           0       -5.532083   -2.141361   -1.019286
      6          1           0       -6.353130   -2.339273   -1.708971
      7          7           0       -1.930442   -1.431025    1.440559
      8          6           0       -2.922829   -1.196271    2.305218
      9          1           0       -2.608002   -0.914049    3.308959
     10          7           0       -4.239548   -1.257502    2.117022
     11          6           0       -4.518445   -1.612446    0.851856
     12          6           0       -2.243824   -1.786194    0.175359
     13          7           0       -1.254605   -2.020945   -0.689212
     14          1           0       -1.440154   -2.286401   -1.635964
     15          1           0       -0.294829   -1.939518   -0.420231
     16          1           0       -7.570452   -2.454284    0.943385
     17          1           0       -6.899055   -1.330550    1.918334
     18          1           0       -7.581139   -0.882137    0.505604
     19          7           0       -4.399751    2.095681   -0.310416
     20          6           0       -3.044563    2.197416   -0.107545
     21          6           0       -5.437370    2.753581    0.508874
     22          7           0       -0.360015    3.459249    1.698757
     23          1           0        0.637686    3.402555    1.673810
     24          1           0       -0.764655    4.020209    2.421464
     25          7           0       -2.438044    2.909766    0.866496
     26          6           0       -1.121914    2.812447    0.803742
     27          7           0       -0.449259    2.074504   -0.139916
     28          1           0        0.558650    2.057625   -0.111616
     29          6           0       -1.052803    1.333816   -1.151340
     30          8           0       -0.353585    0.702041   -1.953032
     31          6           0       -2.466636    1.428608   -1.096848
     32          7           0       -3.439426    0.855732   -1.904553
     33          6           0       -4.567501    1.278325   -1.401488
     34          1           0       -5.554448    1.023248   -1.788963
     35          1           0       -6.031439    2.060934    0.916470
     36          1           0       -4.999950    3.284195    1.233697
     37          1           0       -5.982044    3.362837   -0.066411
     38          1           0        5.525104    1.865667    0.960868
     39          1           0        5.633858    3.085707   -0.305753
     40          1           0        4.193652    2.994815    0.708601
     41          1           0        5.172390   -0.900642   -2.959545
     42          6           0        4.552813   -0.228713   -2.365532
     43          8           0        2.508181   -1.002452   -3.286358
     44          6           0        3.130899   -0.265067   -2.522637
     45          1           0        1.434686    0.628940   -1.807137
     46          7           0        2.441587    0.625247   -1.724245
     47          8           0        2.280846    2.263620   -0.159933
     48          6           0        2.974416    1.512999   -0.823400
     49          1           0        6.177713    0.693140   -1.338064
     50          6           0        5.101939    0.626257   -1.494845
     51          6           0        4.966759    2.419719    0.221042
     52          7           0        4.351978    1.488341   -0.728864
     53          1           0        5.459674   -0.798513    4.209755
     54          1           0        4.160705    0.158295    3.966191
     55          1           0        5.637606    0.645837    3.471092
     56          1           0        2.067768   -2.690126   -2.113406
     57          1           0        3.757962   -2.791644   -1.905927
     58          7           0        2.870345   -2.499799   -1.547897
     59          6           0        2.762825   -1.884245   -0.368615
     60          6           0        3.589231   -0.950555    1.657956
     61          7           0        2.384301   -0.569878    2.113642
     62          1           0        0.418564   -0.623582    1.536074
     63          6           0        1.431280   -0.897413    1.243368
     64          7           0        1.536946   -1.513952    0.061721
     65          1           0        6.798838   -1.338463    1.669934
     66          6           0        5.736053   -1.332480    1.426214
     67          7           0        5.220380   -1.829746    0.328726
     68          6           0        3.859783   -1.594175    0.462925
     69          6           0        5.034206   -0.143479    3.585323
     70          7           0        4.806127   -0.784423    2.275680
 ---------------------------------------------------------------------

 SCF Done:  E(RwB97XD) =  -2048.72319286     A.U. after   15 cycles

 The electronic state is 1-A.
 Alpha  occ. eigenvalues --  -19.25922 -19.21631 -19.20867 -14.52609 -14.51746
 Alpha  occ. eigenvalues --  -14.48967 -14.48926 -14.47968 -14.47130 -14.46859
 Alpha  occ. eigenvalues --  -14.46000 -14.44658 -14.43255 -14.43065 -14.42181
 Alpha  occ. eigenvalues --  -14.42107 -14.41344 -14.40999 -14.40984 -14.40294
 Alpha  occ. eigenvalues --  -10.45539 -10.41422 -10.40248 -10.38507 -10.38470
 Alpha  occ. eigenvalues --  -10.37661 -10.37242 -10.36339 -10.35533 -10.35441
 Alpha  occ. eigenvalues --  -10.34884 -10.34534 -10.34083 -10.33481 -10.33474
 Alpha  occ. eigenvalues --  -10.33465 -10.33170 -10.31633 -10.31379 -10.31090
 Alpha  occ. eigenvalues --  -10.30790 -10.28554 -10.28287  -1.19525  -1.14446
 Alpha  occ. eigenvalues --   -1.13546  -1.13404  -1.11446  -1.10774  -1.09445
 Alpha  occ. eigenvalues --   -1.08772  -1.08026  -1.05076  -1.03634  -1.02684
 Alpha  occ. eigenvalues --   -1.00431  -1.00114  -0.99937  -0.98717  -0.97030
 Alpha  occ. eigenvalues --   -0.96747  -0.95692  -0.92710  -0.90977  -0.86805
 Alpha  occ. eigenvalues --   -0.85213  -0.84288  -0.84085  -0.83859  -0.82697
 Alpha  occ. eigenvalues --   -0.82480  -0.78935  -0.76084  -0.74814  -0.73885
 Alpha  occ. eigenvalues --   -0.73815  -0.73446  -0.72967  -0.71112  -0.69380
 Alpha  occ. eigenvalues --   -0.67571  -0.66599  -0.66356  -0.65835  -0.64586
 Alpha  occ. eigenvalues --   -0.63964  -0.63216  -0.62811  -0.62722  -0.61932
 Alpha  occ. eigenvalues --   -0.60753  -0.60300  -0.59547  -0.59473  -0.58587
 Alpha  occ. eigenvalues --   -0.58562  -0.58525  -0.57148  -0.56614  -0.56395
 Alpha  occ. eigenvalues --   -0.56085  -0.55411  -0.55348  -0.54694  -0.54345
 Alpha  occ. eigenvalues --   -0.53876  -0.53690  -0.53139  -0.52836  -0.52588
 Alpha  occ. eigenvalues --   -0.52437  -0.51982  -0.51933  -0.50996  -0.50393
 Alpha  occ. eigenvalues --   -0.50343  -0.50195  -0.49575  -0.49371  -0.49051
 Alpha  occ. eigenvalues --   -0.48754  -0.48555  -0.47754  -0.47623  -0.47378
 Alpha  occ. eigenvalues --   -0.47037  -0.46042  -0.44992  -0.43777  -0.42442
 Alpha  occ. eigenvalues --   -0.41169  -0.39862  -0.39524  -0.37811  -0.37442
 Alpha  occ. eigenvalues --   -0.37372  -0.37105  -0.36592  -0.35637  -0.34502
 Alpha  occ. eigenvalues --   -0.33853  -0.33657  -0.33556  -0.33344  -0.33203
 Alpha  occ. eigenvalues --   -0.32780  -0.32437  -0.32007  -0.31657  -0.30957
 Alpha  occ. eigenvalues --   -0.30446  -0.27938  -0.26043  -0.25377
 Alpha virt. eigenvalues --    0.03040   0.04827   0.07682   0.08012   0.08292
 Alpha virt. eigenvalues --    0.09065   0.09558   0.10665   0.10973   0.12020
 Alpha virt. eigenvalues --    0.13091   0.13485   0.14257   0.14325   0.14841

 Mulliken charges:
               1
     1  N   -0.308530
     2  C    0.179982
     3  C    0.049383
     4  N   -0.238050
     5  C    0.118434
     6  H    0.024101
     7  N   -0.293365
     8  C    0.135904
     9  H    0.012211
    10  N   -0.291429
    11  C    0.235761
    12  C    0.090511
    13  N   -0.040362
    14  H    0.114308
    15  H    0.090368
    16  H    0.027581
    17  H    0.034602
    18  H    0.018959
    19  N   -0.306976
    20  C    0.259756
    21  C    0.182353
    22  N   -0.123951
    23  H    0.117126
    24  H    0.119253
    25  N   -0.311085
    26  C    0.248196
    27  N   -0.149478
    28  H    0.119786
    29  C    0.196103
    30  O   -0.328781
    31  C   -0.025639
    32  N   -0.214168
    33  C    0.127865
    34  H    0.019664
    35  H    0.025061
    36  H    0.030965
    37  H    0.023650
    38  H    0.049755
    39  H    0.061655
    40  H    0.076782
    41  H    0.023373
    42  C   -0.084894
    43  O   -0.291490
    44  C    0.134842
    45  H    0.134153
    46  N   -0.102068
    47  O   -0.347838
    48  C    0.345802
    49  H    0.043325
    50  C    0.186390
    51  C    0.043632
    52  N   -0.279888
    53  H    0.033421
    54  H    0.042101
    55  H    0.019496
    56  H    0.130192
    57  H    0.111923
    58  N   -0.018520
    59  C    0.066772
    60  C    0.240923
    61  N   -0.274289
    62  H    0.029240
    63  C    0.161022
    64  N   -0.300583
    65  H    0.031458
    66  C    0.114814
    67  N   -0.252481
    68  C    0.027624
    69  C    0.181031
    70  N   -0.307742
 Sum of Mulliken charges =  -0.00000

 Dipole moment (field-independent basis, Debye):
    X=              5.4624    Y=              4.8879    Z=              5.6641  Tot=              9.2635
 Quadrupole moment (field-independent basis, Debye-Ang):
   XX=           -145.1720   YY=           -230.6922   ZZ=           -251.6182
   XY=              6.1394   XZ=             10.8545   YZ=             12.4679

 Normal termination of Gaussian 16 at Fri Jan 19 02:35:57 2018.
