 Gaussian 16, Revision A.03,
 Gaussian 16:  EM64L-G16RevA.03 25-Dec-2016

 ---------------------------------------
 #p wb97xd/cc-pvdz sp scf=(maxcycles=20)
 ---------------------------------------

 ------------------
 Base pair stacking
 ------------------
 Symbolic Z-matrix:
 Charge =  0 Multiplicity = 1

                         Standard orientation:
 ---------------------------------------------------------------------
 Center     Atomic      Atomic             Coordinates (Angstroms)
 Number     Number       Type             X           Y           Z
 ---------------------------------------------------------------------
      1          7           0        4.572536   -0.667400   -1.831496
      2          6           0        5.871352    0.027068   -1.925320
      3          6           0        2.421152   -1.100978   -1.687122
      4          7           0        3.064121   -2.330138   -1.709347
      5          6           0        4.334520   -2.019729   -1.795442
      6          1           0        5.148383   -2.744219   -1.836382
      7          7           0        0.759911    0.571358   -1.606540
      8          6           0        1.757133    1.458555   -1.684031
      9          1           0        1.450939    2.503786   -1.680525
     10          7           0        3.069632    1.249444   -1.764811
     11          6           0        3.337875   -0.066787   -1.761718
     12          6           0        1.062568   -0.745261   -1.605638
     13          7           0        0.068497   -1.632403   -1.528357
     14          1           0        0.246130   -2.617109   -1.524567
     15          1           0       -0.887148   -1.343151   -1.471646
     16          1           0        6.335637   -0.243939   -2.768634
     17          1           0        5.722065    1.015407   -1.930986
     18          1           0        6.440164   -0.217914   -1.140188
     19          7           0        5.588625    0.686284    0.906662
     20          6           0        4.238074    0.933680    0.960106
     21          6           0        6.626158    1.681616    0.569705
     22          7           0        1.567721    3.130982    0.639405
     23          1           0        0.572817    3.101218    0.731697
     24          1           0        1.973772    4.009262    0.385529
     25          7           0        3.636782    2.118074    0.715749
     26          6           0        2.324224    2.042539    0.846568
     27          7           0        1.650151    0.895818    1.190310
     28          1           0        0.645257    0.930804    1.267291
     29          6           0        2.248338   -0.334022    1.446268
     30          8           0        1.548282   -1.308152    1.749140
     31          6           0        3.658283   -0.268598    1.309665
     32          7           0        4.625381   -1.251009    1.472402
     33          6           0        5.751991   -0.640135    1.223817
     34          1           0        6.734710   -1.111718    1.257710
     35          1           0        7.126281    1.382413   -0.242184
     36          1           0        6.192591    2.562970    0.386685
     37          1           0        7.260891    1.776311    1.335839
     38          1           0       -4.377504    1.605895    0.856308
     39          1           0       -4.290763    1.759442    2.609465
     40          1           0       -2.934566    2.283974    1.610982
     41          1           0       -4.023296   -3.020151    2.129394
     42          6           0       -3.385076   -2.143140    2.021013
     43          8           0       -1.363936   -3.384929    2.029774
     44          6           0       -1.965246   -2.312964    1.965629
     45          1           0       -0.244869   -1.219386    1.784735
     46          7           0       -1.251127   -1.139833    1.827561
     47          8           0       -1.043953    1.112104    1.620076
     48          6           0       -1.758347    0.132492    1.741216
     49          1           0       -4.982592   -0.731840    1.976436
     50          6           0       -3.909503   -0.914757    1.939367
     51          6           0       -3.723450    1.553767    1.713963
     52          7           0       -3.135589    0.214233    1.802200
     53          1           0       -6.603765    3.469468   -1.362500
     54          1           0       -5.250055    3.496166   -0.452092
     55          1           0       -6.692467    3.172348    0.239769
     56          1           0       -3.275228   -3.159373   -1.574307
     57          1           0       -4.970082   -2.974732   -1.633350
     58          7           0       -4.070080   -2.556248   -1.506483
     59          6           0       -3.936897   -1.251778   -1.257924
     60          6           0       -4.724628    0.963403   -0.891583
     61          7           0       -3.503526    1.498003   -0.725579
     62          1           0       -1.539526    0.912091   -0.725955
     63          6           0       -2.563907    0.562427   -0.846937
     64          7           0       -2.695280   -0.744607   -1.095870
     65          1           0       -7.951206    0.892377   -1.082109
     66          6           0       -6.887898    0.651259   -1.068241
     67          7           0       -6.392804   -0.546579   -1.262535
     68          6           0       -5.022049   -0.362732   -1.153174
     69          6           0       -6.136344    3.052839   -0.582799
     70          7           0       -5.934899    1.613281   -0.837937
 ---------------------------------------------------------------------

 SCF Done:  E(RwB97XD) =  -2048.69431551     A.U. after   15 cycles

 The electronic state is 1-A.
 Alpha  occ. eigenvalues --  -19.25001 -19.21197 -19.20710 -14.53144 -14.51463
 Alpha  occ. eigenvalues --  -14.49448 -14.48986 -14.48532 -14.47051 -14.46718
 Alpha  occ. eigenvalues --  -14.46685 -14.45817 -14.44652 -14.44585 -14.43046
 Alpha  occ. eigenvalues --  -14.41696 -14.41689 -14.41462 -14.41314 -14.40910
 Alpha  occ. eigenvalues --  -10.44617 -10.41051 -10.40430 -10.39299 -10.38376
 Alpha  occ. eigenvalues --  -10.38355 -10.37645 -10.36846 -10.36169 -10.36021
 Alpha  occ. eigenvalues --  -10.34623 -10.34528 -10.34295 -10.34017 -10.33783
 Alpha  occ. eigenvalues --  -10.33409 -10.33224 -10.32670 -10.31698 -10.31291
 Alpha  occ. eigenvalues --  -10.30183 -10.28912 -10.28494  -1.18684  -1.15891
 Alpha  occ. eigenvalues --   -1.13455  -1.12219  -1.11621  -1.11096  -1.09905
 Alpha  occ. eigenvalues --   -1.08729  -1.08336  -1.05664  -1.05537  -1.01619
 Alpha  occ. eigenvalues --   -1.01502  -1.01118  -0.99835  -0.98744  -0.97642
 Alpha  occ. eigenvalues --   -0.97346  -0.97027  -0.93359  -0.90064  -0.88213
 Alpha  occ. eigenvalues --   -0.86487  -0.85008  -0.84088  -0.83338  -0.82655
 Alpha  occ. eigenvalues --   -0.82392  -0.77999  -0.77537  -0.75629  -0.75021
 Alpha  occ. eigenvalues --   -0.73791  -0.73372  -0.72480  -0.71630  -0.70933
 Alpha  occ. eigenvalues --   -0.67621  -0.67437  -0.66825  -0.65693  -0.64770
 Alpha  occ. eigenvalues --   -0.64657  -0.63344  -0.63299  -0.62725  -0.61983
 Alpha  occ. eigenvalues --   -0.61719  -0.61212  -0.60986  -0.60118  -0.59419
 Alpha  occ. eigenvalues --   -0.59050  -0.58777  -0.58414  -0.57239  -0.56228
 Alpha  occ. eigenvalues --   -0.55964  -0.55586  -0.55298  -0.54690  -0.54526
 Alpha  occ. eigenvalues --   -0.54279  -0.54029  -0.53459  -0.53220  -0.52955
 Alpha  occ. eigenvalues --   -0.52427  -0.52115  -0.51172  -0.50983  -0.50598
 Alpha  occ. eigenvalues --   -0.50423  -0.49735  -0.49506  -0.49467  -0.49185
 Alpha  occ. eigenvalues --   -0.48929  -0.48596  -0.48005  -0.47522  -0.47416
 Alpha  occ. eigenvalues --   -0.47016  -0.45998  -0.45030  -0.44619  -0.42429
 Alpha  occ. eigenvalues --   -0.41029  -0.40871  -0.38860  -0.38692  -0.38074
 Alpha  occ. eigenvalues --   -0.37886  -0.37279  -0.36701  -0.35450  -0.35134
 Alpha  occ. eigenvalues --   -0.34548  -0.34237  -0.33839  -0.33569  -0.33149
 Alpha  occ. eigenvalues --   -0.33053  -0.32391  -0.31983  -0.31184  -0.31056
 Alpha  occ. eigenvalues --   -0.30444  -0.30271  -0.27314  -0.24622
 Alpha virt. eigenvalues --    0.03155   0.04425   0.06347   0.06885   0.08347
 Alpha virt. eigenvalues --    0.08989   0.09294   0.09921   0.11145   0.12731
 Alpha virt. eigenvalues --    0.13046   0.13141   0.14080   0.14457   0.14840

 Mulliken charges:
               1
     1  N   -0.293262
     2  C    0.194811
     3  C    0.059857
     4  N   -0.250777
     5  C    0.146216
     6  H    0.026855
     7  N   -0.276626
     8  C    0.127306
     9  H   -0.003052
    10  N   -0.263246
    11  C    0.216647
    12  C    0.071959
    13  N   -0.055578
    14  H    0.112550
    15  H    0.084348
    16  H    0.025336
    17  H    0.032700
    18  H    0.000396
    19  N   -0.297572
    20  C    0.218657
    21  C    0.176228
    22  N   -0.092608
    23  H    0.121797
    24  H    0.120458
    25  N   -0.252842
    26  C    0.148860
    27  N   -0.099132
    28  H    0.120284
    29  C    0.173796
    30  O   -0.318242
    31  C    0.008264
    32  N   -0.209002
    33  C    0.093481
    34  H    0.026046
    35  H    0.007924
    36  H    0.037755
    37  H    0.028613
    38  H    0.035057
    39  H    0.034928
    40  H    0.070095
    41  H    0.022237
    42  C   -0.100563
    43  O   -0.270896
    44  C    0.175999
    45  H    0.130578
    46  N   -0.117083
    47  O   -0.341853
    48  C    0.312156
    49  H    0.046162
    50  C    0.153872
    51  C    0.090821
    52  N   -0.271837
    53  H    0.037293
    54  H    0.044107
    55  H    0.031592
    56  H    0.123198
    57  H    0.120668
    58  N   -0.062813
    59  C    0.112229
    60  C    0.219295
    61  N   -0.289448
    62  H    0.033588
    63  C    0.165765
    64  N   -0.308634
    65  H    0.040363
    66  C    0.139319
    67  N   -0.255468
    68  C    0.041253
    69  C    0.181205
    70  N   -0.312393
 Sum of Mulliken charges =  -0.00000

 Dipole moment (field-independent basis, Debye):
    X=             -5.6365    Y=              7.7698    Z=             -2.3398  Tot=              9.8800
 Quadrupole moment (field-independent basis, Debye-Ang):
   XX=           -147.5756   YY=           -235.1128   ZZ=           -254.8275
   XY=             -2.6627   XZ=            -10.9641   YZ=             18.1980

 Normal termination of Gaussian 16 at Fri Jan 19 00:58:20 2018.
