 Gaussian 16, Revision A.03,
 Gaussian 16:  EM64L-G16RevA.03 25-Dec-2016

 ---------------------------------------
 #p wb97xd/cc-pvdz sp scf=(maxcycles=20)
 ---------------------------------------

 ------------------
 Base pair stacking
 ------------------
 Symbolic Z-matrix:
 Charge =  0 Multiplicity = 1

                         Standard orientation:
 ---------------------------------------------------------------------
 Center     Atomic      Atomic             Coordinates (Angstroms)
 Number     Number       Type             X           Y           Z
 ---------------------------------------------------------------------
      1          7           0       -4.251972   -0.726666    2.042531
      2          6           0       -5.538621   -0.044532    2.281730
      3          6           0       -2.113972   -1.146177    1.742046
      4          7           0       -2.765729   -2.367460    1.650369
      5          6           0       -4.027704   -2.065837    1.835067
      6          1           0       -4.844861   -2.787758    1.830056
      7          7           0       -0.444183    0.519191    1.778112
      8          6           0       -1.428745    1.393773    2.009052
      9          1           0       -1.114047    2.431160    2.114136
     10          7           0       -2.737530    1.180284    2.129101
     11          6           0       -3.016999   -0.125521    1.983545
     12          6           0       -0.757921   -0.787167    1.636379
     13          7           0        0.223495   -1.661710    1.405803
     14          1           0        0.037367   -2.638512    1.294310
     15          1           0        1.177721   -1.370490    1.336692
     16          1           0       -5.963713   -0.412303    3.108898
     17          1           0       -5.380683    0.935735    2.396902
     18          1           0       -6.147014   -0.193065    1.502111
     19          7           0       -5.880163    0.703319   -0.803863
     20          6           0       -4.534173    0.957384   -0.912566
     21          6           0       -6.915693    1.707588   -0.487880
     22          7           0       -1.875000    3.188107   -0.792504
     23          1           0       -0.883191    3.160753   -0.914161
     24          1           0       -2.280882    4.075677   -0.572990
     25          7           0       -3.936267    2.157470   -0.750286
     26          6           0       -2.627755    2.084679   -0.917901
     27          7           0       -1.954343    0.926230   -1.221258
     28          1           0       -0.952659    0.964407   -1.331376
     29          6           0       -2.549100   -0.319845   -1.392808
     30          8           0       -1.850023   -1.303591   -1.665346
     31          6           0       -3.954696   -0.257537   -1.215849
     32          7           0       -4.917511   -1.254266   -1.295931
     33          6           0       -6.041339   -0.639268   -1.044980
     34          1           0       -7.020372   -1.119152   -1.023064
     35          1           0       -7.387840    1.448421    0.353973
     36          1           0       -6.484607    2.600583   -0.365507
     37          1           0       -7.574573    1.756689   -1.237735
     38          1           0        4.074128    1.697124   -1.114060
     39          1           0        3.931996    1.756407   -2.869316
     40          1           0        2.602592    2.323458   -1.858128
     41          1           0        3.722306   -2.992654   -2.128339
     42          6           0        3.079891   -2.115798   -2.046698
     43          8           0        1.070655   -3.371028   -1.926385
     44          6           0        1.664023   -2.292800   -1.938020
     45          1           0       -0.059686   -1.203746   -1.761666
     46          7           0        0.944024   -1.119231   -1.840090
     47          8           0        0.723175    1.138989   -1.745937
     48          6           0        1.442243    0.159560   -1.837241
     49          1           0        4.665309   -0.692490   -2.127022
     50          6           0        3.595568   -0.881010   -2.046754
     51          6           0        3.394433    1.594597   -1.946863
     52          7           0        2.816163    0.247990   -1.945519
     53          1           0        6.923772    3.404844    1.516105
     54          1           0        5.527704    3.543154    0.683060
     55          1           0        6.931930    3.299559   -0.112480
     56          1           0        3.552152   -3.192853    1.105994
     57          1           0        5.249405   -3.021334    1.102884
     58          7           0        4.347961   -2.588204    1.070911
     59          6           0        4.214163   -1.263088    0.985278
     60          6           0        5.002323    0.977651    0.845190
     61          7           0        3.779285    1.531627    0.803968
     62          1           0        1.812614    0.955396    0.831794
     63          6           0        2.838602    0.590949    0.859947
     64          7           0        2.970586   -0.736752    0.945732
     65          1           0        8.233612    0.875359    0.866774
     66          6           0        7.168849    0.640612    0.876884
     67          7           0        6.673414   -0.570399    0.952270
     68          6           0        5.300609   -0.370993    0.933096
     69          6           0        6.415418    3.084943    0.716578
     70          7           0        6.214149    1.625858    0.809239
 ---------------------------------------------------------------------

 SCF Done:  E(RwB97XD) =  -2048.74225361     A.U. after   15 cycles

 The electronic state is 1-A.
 Alpha  occ. eigenvalues --  -19.25026 -19.21301 -19.20715 -14.52866 -14.51423
 Alpha  occ. eigenvalues --  -14.49626 -14.48773 -14.48538 -14.47053 -14.46894
 Alpha  occ. eigenvalues --  -14.46729 -14.45641 -14.44866 -14.44816 -14.43127
 Alpha  occ. eigenvalues --  -14.42102 -14.41839 -14.41505 -14.41249 -14.41068
 Alpha  occ. eigenvalues --  -10.44594 -10.41354 -10.40417 -10.39367 -10.38459
 Alpha  occ. eigenvalues --  -10.38225 -10.37672 -10.36787 -10.36393 -10.36116
 Alpha  occ. eigenvalues --  -10.34917 -10.34224 -10.34171 -10.34074 -10.33714
 Alpha  occ. eigenvalues --  -10.33683 -10.33166 -10.33035 -10.31857 -10.30962
 Alpha  occ. eigenvalues --  -10.30208 -10.28933 -10.28659  -1.18577  -1.15617
 Alpha  occ. eigenvalues --   -1.13490  -1.12289  -1.11446  -1.11220  -1.09882
 Alpha  occ. eigenvalues --   -1.08709  -1.08288  -1.05694  -1.05427  -1.01630
 Alpha  occ. eigenvalues --   -1.01285  -1.01083  -0.99843  -0.98890  -0.97542
 Alpha  occ. eigenvalues --   -0.97254  -0.97042  -0.93387  -0.90068  -0.88083
 Alpha  occ. eigenvalues --   -0.86253  -0.84814  -0.84156  -0.83244  -0.82555
 Alpha  occ. eigenvalues --   -0.82306  -0.77997  -0.77427  -0.75413  -0.75102
 Alpha  occ. eigenvalues --   -0.73812  -0.73304  -0.72466  -0.71537  -0.70826
 Alpha  occ. eigenvalues --   -0.67645  -0.67250  -0.66726  -0.65704  -0.64756
 Alpha  occ. eigenvalues --   -0.64616  -0.63224  -0.63179  -0.62797  -0.62010
 Alpha  occ. eigenvalues --   -0.60998  -0.60943  -0.60658  -0.59954  -0.58941
 Alpha  occ. eigenvalues --   -0.58795  -0.58720  -0.58403  -0.56977  -0.56103
 Alpha  occ. eigenvalues --   -0.55714  -0.55600  -0.55456  -0.54703  -0.54361
 Alpha  occ. eigenvalues --   -0.54222  -0.53969  -0.53322  -0.53249  -0.52979
 Alpha  occ. eigenvalues --   -0.52401  -0.51947  -0.51244  -0.50754  -0.50678
 Alpha  occ. eigenvalues --   -0.50540  -0.50315  -0.49662  -0.49405  -0.49259
 Alpha  occ. eigenvalues --   -0.48730  -0.48476  -0.48087  -0.47392  -0.47291
 Alpha  occ. eigenvalues --   -0.47094  -0.45792  -0.45513  -0.44880  -0.42741
 Alpha  occ. eigenvalues --   -0.41493  -0.41034  -0.38861  -0.38070  -0.38052
 Alpha  occ. eigenvalues --   -0.37969  -0.37422  -0.37267  -0.35355  -0.35122
 Alpha  occ. eigenvalues --   -0.34744  -0.34127  -0.33884  -0.33810  -0.33207
 Alpha  occ. eigenvalues --   -0.32974  -0.32481  -0.32046  -0.31279  -0.31052
 Alpha  occ. eigenvalues --   -0.30850  -0.30440  -0.26758  -0.25478
 Alpha virt. eigenvalues --    0.02769   0.04848   0.06316   0.07542   0.08487
 Alpha virt. eigenvalues --    0.09051   0.09426   0.10014   0.10386   0.12609
 Alpha virt. eigenvalues --    0.13216   0.13615   0.14034   0.14335   0.14726

 Mulliken charges:
               1
     1  N   -0.296597
     2  C    0.193196
     3  C    0.049514
     4  N   -0.247012
     5  C    0.149818
     6  H    0.028121
     7  N   -0.285712
     8  C    0.119798
     9  H    0.003120
    10  N   -0.271319
    11  C    0.226356
    12  C    0.078796
    13  N   -0.059246
    14  H    0.116447
    15  H    0.086775
    16  H    0.026212
    17  H    0.033558
    18  H    0.002276
    19  N   -0.300228
    20  C    0.229899
    21  C    0.181460
    22  N   -0.111045
    23  H    0.119667
    24  H    0.119023
    25  N   -0.293344
    26  C    0.227878
    27  N   -0.126424
    28  H    0.118790
    29  C    0.181555
    30  O   -0.317281
    31  C   -0.000265
    32  N   -0.213564
    33  C    0.094423
    34  H    0.024739
    35  H    0.013692
    36  H    0.035519
    37  H    0.029314
    38  H    0.063046
    39  H    0.044128
    40  H    0.070659
    41  H    0.018970
    42  C   -0.099191
    43  O   -0.272620
    44  C    0.173098
    45  H    0.131698
    46  N   -0.123777
    47  O   -0.345590
    48  C    0.331972
    49  H    0.045896
    50  C    0.155170
    51  C    0.049187
    52  N   -0.271141
    53  H    0.036775
    54  H    0.041983
    55  H    0.030794
    56  H    0.123644
    57  H    0.119963
    58  N   -0.060348
    59  C    0.097898
    60  C    0.226845
    61  N   -0.276915
    62  H    0.038635
    63  C    0.157734
    64  N   -0.304263
    65  H    0.040314
    66  C    0.141616
    67  N   -0.258037
    68  C    0.038566
    69  C    0.178794
    70  N   -0.313414
 Sum of Mulliken charges =  -0.00000

 Dipole moment (field-independent basis, Debye):
    X=              5.6899    Y=              7.8158    Z=              1.4470  Tot=              9.7752
 Quadrupole moment (field-independent basis, Debye-Ang):
   XX=           -147.3612   YY=           -234.4617   ZZ=           -252.6901
   XY=              0.4759   XZ=            -13.7776   YZ=            -16.9672

 Normal termination of Gaussian 16 at Fri Jan 19 10:38:31 2018.
