 Gaussian 16, Revision A.03,
 Gaussian 16:  EM64L-G16RevA.03 25-Dec-2016

 ---------------------------------------
 #p wb97xd/cc-pvdz sp scf=(maxcycles=20)
 ---------------------------------------

 ------------------
 Base pair stacking
 ------------------
 Symbolic Z-matrix:
 Charge =  0 Multiplicity = 1

                         Standard orientation:
 ---------------------------------------------------------------------
 Center     Atomic      Atomic             Coordinates (Angstroms)
 Number     Number       Type             X           Y           Z
 ---------------------------------------------------------------------
      1          7           0        4.286582    0.498257    1.956880
      2          6           0        5.582468   -0.204133    2.029797
      3          6           0        2.139377    0.946061    1.794671
      4          7           0        2.782324    2.168857    1.921687
      5          6           0        4.050198    1.850123    2.014335
      6          1           0        4.863269    2.567863    2.127055
      7          7           0        0.479563   -0.712181    1.553399
      8          6           0        1.474227   -1.604905    1.588925
      9          1           0        1.167647   -2.646386    1.501852
     10          7           0        2.784596   -1.405205    1.715264
     11          6           0        3.053561   -0.092874    1.814688
     12          6           0        0.782869    0.600296    1.655848
     13          7           0       -0.208638    1.492950    1.620599
     14          1           0       -0.030443    2.474899    1.692981
     15          1           0       -1.162864    1.210767    1.520694
     16          1           0        6.027099    0.003450    2.901231
     17          1           0        5.432559   -1.189893    1.959674
     18          1           0        6.169585    0.096324    1.278118
     19          7           0        5.856605   -0.606912   -0.799466
     20          6           0        4.507536   -0.846705   -0.902224
     21          6           0        6.885460   -1.626539   -0.512226
     22          7           0        1.829245   -3.055567   -0.805248
     23          1           0        0.836779   -3.016910   -0.918199
     24          1           0        2.228786   -3.950982   -0.606944
     25          7           0        3.900071   -2.044438   -0.759213
     26          6           0        2.590969   -1.956602   -0.914597
     27          7           0        1.925709   -0.786303   -1.189097
     28          1           0        0.922867   -0.813314   -1.291764
     29          6           0        2.530369    0.457612   -1.340445
     30          8           0        1.838109    1.452855   -1.587426
     31          6           0        3.936708    0.379210   -1.176278
     32          7           0        4.907869    1.368717   -1.244201
     33          6           0        6.028042    0.738774   -1.014866
     34          1           0        7.011539    1.209366   -0.991332
     35          1           0        7.366662   -1.388636    0.330777
     36          1           0        6.447263   -2.517950   -0.404289
     37          1           0        7.537842   -1.666392   -1.268279
     38          1           0       -4.108479   -1.505373   -1.048060
     39          1           0       -3.980940   -1.530510   -2.805263
     40          1           0       -2.648689   -2.129679   -1.816586
     41          1           0       -3.722166    3.200581   -1.970749
     42          6           0       -3.087125    2.316557   -1.912006
     43          8           0       -1.065661    3.551122   -1.782947
     44          6           0       -1.668882    2.478686   -1.811389
     45          1           0        0.046219    1.370959   -1.671067
     46          7           0       -0.958812    1.297003   -1.742949
     47          8           0       -0.757747   -0.964531   -1.696015
     48          6           0       -1.468595    0.022908   -1.761727
     49          1           0       -4.686007    0.909361   -2.007924
     50          6           0       -3.613977    1.086672   -1.932645
     51          6           0       -3.434565   -1.392140   -1.884177
     52          7           0       -2.844080   -0.051051   -1.860499
     53          1           0       -6.877977   -3.568152    0.927009
     54          1           0       -5.503404   -3.531238    0.048778
     55          1           0       -6.929107   -3.154459   -0.650861
     56          1           0       -3.551703    3.019965    1.700446
     57          1           0       -5.247573    2.835306    1.706435
     58          7           0       -4.345088    2.425211    1.570231
     59          6           0       -4.206836    1.142109    1.230072
     60          6           0       -4.986999   -1.038580    0.684463
     61          7           0       -3.762658   -1.562352    0.508218
     62          1           0       -1.798873   -0.982444    0.597068
     63          6           0       -2.825621   -0.640270    0.719478
     64          7           0       -2.962059    0.645363    1.060236
     65          1           0       -8.217106   -0.974434    0.804668
     66          6           0       -7.153646   -0.735340    0.833182
     67          7           0       -6.662565    0.443967    1.126033
     68          6           0       -5.289728    0.265541    1.035385
     69          6           0       -6.392256   -3.096678    0.190947
     70          7           0       -6.196052   -1.680083    0.555320
 ---------------------------------------------------------------------

 SCF Done:  E(RwB97XD) =  -2048.69082948     A.U. after   15 cycles

 The electronic state is 1-A.
 Alpha  occ. eigenvalues --  -19.24915 -19.21167 -19.20674 -14.53132 -14.51291
 Alpha  occ. eigenvalues --  -14.49564 -14.48870 -14.48602 -14.46975 -14.46753
 Alpha  occ. eigenvalues --  -14.46648 -14.45800 -14.44942 -14.44870 -14.43301
 Alpha  occ. eigenvalues --  -14.41909 -14.41872 -14.41447 -14.41409 -14.41158
 Alpha  occ. eigenvalues --  -10.44468 -10.41218 -10.40480 -10.39246 -10.38408
 Alpha  occ. eigenvalues --  -10.38357 -10.37763 -10.36691 -10.36373 -10.36243
 Alpha  occ. eigenvalues --  -10.34832 -10.34466 -10.34254 -10.34185 -10.33837
 Alpha  occ. eigenvalues --  -10.33620 -10.33318 -10.31953 -10.31651 -10.30842
 Alpha  occ. eigenvalues --  -10.30172 -10.29069 -10.28625  -1.18510  -1.15880
 Alpha  occ. eigenvalues --   -1.13541  -1.12163  -1.11570  -1.11267  -1.10131
 Alpha  occ. eigenvalues --   -1.08742  -1.08174  -1.05857  -1.05810  -1.01522
 Alpha  occ. eigenvalues --   -1.01461  -1.01251  -0.99871  -0.98884  -0.97935
 Alpha  occ. eigenvalues --   -0.97320  -0.97167  -0.93534  -0.89960  -0.88282
 Alpha  occ. eigenvalues --   -0.86458  -0.84946  -0.84256  -0.83319  -0.82676
 Alpha  occ. eigenvalues --   -0.82012  -0.77909  -0.77567  -0.75774  -0.75129
 Alpha  occ. eigenvalues --   -0.73805  -0.73473  -0.72370  -0.71732  -0.71009
 Alpha  occ. eigenvalues --   -0.67638  -0.67499  -0.66918  -0.65629  -0.64802
 Alpha  occ. eigenvalues --   -0.64763  -0.63406  -0.63232  -0.62782  -0.62021
 Alpha  occ. eigenvalues --   -0.61456  -0.61252  -0.61029  -0.60204  -0.59486
 Alpha  occ. eigenvalues --   -0.59204  -0.58706  -0.58384  -0.57255  -0.56282
 Alpha  occ. eigenvalues --   -0.56031  -0.55574  -0.55458  -0.54927  -0.54418
 Alpha  occ. eigenvalues --   -0.54296  -0.54120  -0.53517  -0.53264  -0.52818
 Alpha  occ. eigenvalues --   -0.52489  -0.52038  -0.51019  -0.50912  -0.50717
 Alpha  occ. eigenvalues --   -0.50529  -0.50190  -0.49660  -0.49500  -0.49339
 Alpha  occ. eigenvalues --   -0.48589  -0.48550  -0.47937  -0.47391  -0.47352
 Alpha  occ. eigenvalues --   -0.46965  -0.45861  -0.45531  -0.44116  -0.42851
 Alpha  occ. eigenvalues --   -0.41015  -0.40629  -0.38796  -0.38721  -0.38165
 Alpha  occ. eigenvalues --   -0.38027  -0.37340  -0.36983  -0.35485  -0.35149
 Alpha  occ. eigenvalues --   -0.34491  -0.34239  -0.34101  -0.33874  -0.33178
 Alpha  occ. eigenvalues --   -0.32639  -0.32385  -0.31985  -0.31420  -0.30951
 Alpha  occ. eigenvalues --   -0.30560  -0.30251  -0.27051  -0.25089
 Alpha virt. eigenvalues --    0.02717   0.04794   0.06234   0.07378   0.08341
 Alpha virt. eigenvalues --    0.08889   0.09285   0.09916   0.10450   0.12713
 Alpha virt. eigenvalues --    0.13129   0.13423   0.14053   0.14351   0.14627

 Mulliken charges:
               1
     1  N   -0.292894
     2  C    0.203081
     3  C    0.058698
     4  N   -0.250716
     5  C    0.148272
     6  H    0.028313
     7  N   -0.274587
     8  C    0.117345
     9  H   -0.003438
    10  N   -0.266750
    11  C    0.215121
    12  C    0.074976
    13  N   -0.059448
    14  H    0.113807
    15  H    0.084782
    16  H    0.023805
    17  H    0.031134
    18  H   -0.000573
    19  N   -0.296695
    20  C    0.200693
    21  C    0.175431
    22  N   -0.095702
    23  H    0.121710
    24  H    0.119154
    25  N   -0.264080
    26  C    0.180067
    27  N   -0.106059
    28  H    0.120975
    29  C    0.172566
    30  O   -0.317282
    31  C    0.015057
    32  N   -0.210428
    33  C    0.091482
    34  H    0.025127
    35  H    0.014168
    36  H    0.037445
    37  H    0.030990
    38  H    0.066579
    39  H    0.030549
    40  H    0.065275
    41  H    0.021720
    42  C   -0.098713
    43  O   -0.270223
    44  C    0.175260
    45  H    0.131753
    46  N   -0.123476
    47  O   -0.340852
    48  C    0.325241
    49  H    0.045617
    50  C    0.155530
    51  C    0.063305
    52  N   -0.271358
    53  H    0.037083
    54  H    0.043266
    55  H    0.031806
    56  H    0.121990
    57  H    0.120828
    58  N   -0.063967
    59  C    0.104673
    60  C    0.230838
    61  N   -0.285174
    62  H    0.043148
    63  C    0.147442
    64  N   -0.303810
    65  H    0.040889
    66  C    0.142009
    67  N   -0.256673
    68  C    0.038965
    69  C    0.179661
    70  N   -0.314726
 Sum of Mulliken charges =  -0.00000

 Dipole moment (field-independent basis, Debye):
    X=             -5.7963    Y=             -7.9528    Z=              1.6583  Tot=              9.9797
 Quadrupole moment (field-independent basis, Debye-Ang):
   XX=           -147.3574   YY=           -238.2017   ZZ=           -251.5780
   XY=             -1.1136   XZ=             13.5758   YZ=             19.1426

 Normal termination of Gaussian 16 at Fri Jan 19 01:47:28 2018.
