 Gaussian 16, Revision A.03,
 Gaussian 16:  EM64L-G16RevA.03 25-Dec-2016

 ---------------------------------------
 #p wb97xd/cc-pvdz sp scf=(maxcycles=20)
 ---------------------------------------

 ------------------
 Base pair stacking
 ------------------
 Symbolic Z-matrix:
 Charge =  0 Multiplicity = 1

                         Standard orientation:
 ---------------------------------------------------------------------
 Center     Atomic      Atomic             Coordinates (Angstroms)
 Number     Number       Type             X           Y           Z
 ---------------------------------------------------------------------
      1          7           0       -6.047562   -1.422112    0.502646
      2          6           0       -7.345395   -0.974610    1.044280
      3          6           0       -3.895269   -1.751653    0.192263
      4          7           0       -4.543307   -2.433651   -0.827358
      5          6           0       -5.814043   -2.207821   -0.599564
      6          1           0       -6.631391   -2.593542   -1.209578
      7          7           0       -2.226239   -0.853169    1.595842
      8          6           0       -3.221462   -0.306236    2.301519
      9          1           0       -2.911243    0.282720    3.163587
     10          7           0       -4.536183   -0.377250    2.103113
     11          6           0       -4.809389   -1.123283    1.019957
     12          6           0       -2.533893   -1.598136    0.511666
     13          7           0       -1.541828   -2.144923   -0.194035
     14          1           0       -1.723133   -2.703916   -1.003890
     15          1           0       -0.584076   -2.014519    0.062585
     16          1           0       -7.897925   -1.771064    1.290317
     17          1           0       -7.192450   -0.412472    1.856519
     18          1           0       -7.828952   -0.435896    0.354377
     19          7           0       -4.096640    1.969596   -0.809802
     20          6           0       -2.744196    2.075208   -0.591188
     21          6           0       -5.135399    2.777201   -0.139400
     22          7           0       -0.069784    3.564726    1.049122
     23          1           0        0.926472    3.483576    1.060243
     24          1           0       -0.476225    4.247230    1.657160
     25          7           0       -2.141860    2.927652    0.265894
     26          6           0       -0.827524    2.793404    0.254901
     27          7           0       -0.152740    1.893789   -0.534316
     28          1           0        0.853531    1.860583   -0.477103
     29          6           0       -0.751981    1.007085   -1.423433
     30          8           0       -0.051159    0.235326   -2.089747
     31          6           0       -2.163838    1.139515   -1.422731
     32          7           0       -3.132449    0.460143   -2.148785
     33          6           0       -4.260479    0.984774   -1.753163
     34          1           0       -5.244624    0.689314   -2.118447
     35          1           0       -5.755743    2.175323    0.362323
     36          1           0       -4.701079    3.412360    0.497941
     37          1           0       -5.651510    3.292869   -0.822438
     38          1           0        5.788297    1.746041    0.742624
     39          1           0        5.956140    2.734126   -0.706566
     40          1           0        4.491742    2.844875    0.270492
     41          1           0        5.453768   -1.629735   -2.668937
     42          6           0        4.838203   -0.854861   -2.211908
     43          8           0        2.795828   -1.728512   -3.044132
     44          6           0        3.419698   -0.886962   -2.398090
     45          1           0        1.730989    0.149905   -1.886730
     46          7           0        2.735363    0.138868   -1.777925
     47          8           0        2.581030    2.019135   -0.513808
     48          6           0        3.270126    1.153500   -1.024196
     49          1           0        6.462435    0.191502   -1.310363
     50          6           0        5.389086    0.122062   -1.482020
     51          6           0        5.260820    2.180036   -0.093729
     52          7           0        4.644160    1.115915   -0.890679
     53          1           0        5.136624    0.389103    4.227811
     54          1           0        3.887298    1.257867    3.639129
     55          1           0        5.393278    1.496406    3.056733
     56          1           0        1.770223   -3.375286   -1.209299
     57          1           0        3.450180   -3.465159   -0.926845
     58          7           0        2.570888   -3.037449   -0.714378
     59          6           0        2.471560   -2.060075    0.188976
     60          6           0        3.305138   -0.535389    1.814458
     61          7           0        2.111324    0.020506    2.079439
     62          1           0        0.155361   -0.148969    1.491116
     63          6           0        1.159313   -0.542611    1.338169
     64          7           0        1.256788   -1.521631    0.432855
     65          1           0        6.492878   -1.017323    2.055691
     66          6           0        5.435822   -1.053097    1.790577
     67          7           0        4.916730   -1.868350    0.905374
     68          6           0        3.566284   -1.550565    0.910716
     69          6           0        4.752421    0.813708    3.407992
     70          7           0        4.517616   -0.218470    2.379668
 ---------------------------------------------------------------------

 SCF Done:  E(RwB97XD) =  -2048.74900225     A.U. after   15 cycles

 The electronic state is 1-A.
 Alpha  occ. eigenvalues --  -19.25731 -19.21802 -19.20706 -14.52442 -14.51857
 Alpha  occ. eigenvalues --  -14.49307 -14.48744 -14.47694 -14.46957 -14.46661
 Alpha  occ. eigenvalues --  -14.46492 -14.44737 -14.43411 -14.43213 -14.42474
 Alpha  occ. eigenvalues --  -14.41991 -14.41789 -14.41355 -14.40798 -14.40593
 Alpha  occ. eigenvalues --  -10.45379 -10.41229 -10.39937 -10.38775 -10.38287
 Alpha  occ. eigenvalues --  -10.37476 -10.37295 -10.36446 -10.35783 -10.35581
 Alpha  occ. eigenvalues --  -10.35001 -10.34506 -10.34320 -10.33821 -10.33651
 Alpha  occ. eigenvalues --  -10.33465 -10.33288 -10.31768 -10.31647 -10.30753
 Alpha  occ. eigenvalues --  -10.30632 -10.28926 -10.28088  -1.19340  -1.14518
 Alpha  occ. eigenvalues --   -1.13225  -1.12991  -1.11836  -1.10574  -1.09252
 Alpha  occ. eigenvalues --   -1.08586  -1.08175  -1.05400  -1.03689  -1.02437
 Alpha  occ. eigenvalues --   -1.00789  -1.00219  -0.99743  -0.98527  -0.97407
 Alpha  occ. eigenvalues --   -0.96533  -0.95796  -0.93036  -0.90773  -0.86923
 Alpha  occ. eigenvalues --   -0.85349  -0.84433  -0.84062  -0.83782  -0.82822
 Alpha  occ. eigenvalues --   -0.82422  -0.78708  -0.76150  -0.74610  -0.73946
 Alpha  occ. eigenvalues --   -0.73621  -0.73311  -0.73250  -0.71454  -0.69493
 Alpha  occ. eigenvalues --   -0.67369  -0.66706  -0.66409  -0.65835  -0.64389
 Alpha  occ. eigenvalues --   -0.63739  -0.63356  -0.63035  -0.62627  -0.61734
 Alpha  occ. eigenvalues --   -0.60943  -0.60616  -0.59648  -0.59325  -0.58680
 Alpha  occ. eigenvalues --   -0.58369  -0.58265  -0.57320  -0.56935  -0.56328
 Alpha  occ. eigenvalues --   -0.55880  -0.55728  -0.55032  -0.54658  -0.54280
 Alpha  occ. eigenvalues --   -0.53649  -0.53536  -0.52929  -0.52905  -0.52515
 Alpha  occ. eigenvalues --   -0.52300  -0.52224  -0.52063  -0.51279  -0.50649
 Alpha  occ. eigenvalues --   -0.50155  -0.49652  -0.49522  -0.49306  -0.48977
 Alpha  occ. eigenvalues --   -0.48779  -0.48348  -0.47888  -0.47523  -0.47414
 Alpha  occ. eigenvalues --   -0.47344  -0.45799  -0.45307  -0.43641  -0.43124
 Alpha  occ. eigenvalues --   -0.41556  -0.39932  -0.39344  -0.37535  -0.37315
 Alpha  occ. eigenvalues --   -0.37231  -0.37193  -0.36717  -0.35924  -0.34256
 Alpha  occ. eigenvalues --   -0.34156  -0.33831  -0.33702  -0.33400  -0.33164
 Alpha  occ. eigenvalues --   -0.32661  -0.32329  -0.31888  -0.31412  -0.31334
 Alpha  occ. eigenvalues --   -0.30787  -0.28605  -0.26135  -0.25451
 Alpha virt. eigenvalues --    0.03228   0.04738   0.07501   0.07701   0.08717
 Alpha virt. eigenvalues --    0.08954   0.09782   0.10639   0.10859   0.11993
 Alpha virt. eigenvalues --    0.13445   0.13505   0.13920   0.14541   0.14899

 Mulliken charges:
               1
     1  N   -0.309293
     2  C    0.178992
     3  C    0.051036
     4  N   -0.243727
     5  C    0.120459
     6  H    0.026480
     7  N   -0.288814
     8  C    0.136823
     9  H    0.013546
    10  N   -0.291670
    11  C    0.232694
    12  C    0.091767
    13  N   -0.040695
    14  H    0.112600
    15  H    0.091996
    16  H    0.028905
    17  H    0.035558
    18  H    0.021313
    19  N   -0.302446
    20  C    0.255990
    21  C    0.183937
    22  N   -0.121477
    23  H    0.116583
    24  H    0.118291
    25  N   -0.308578
    26  C    0.241655
    27  N   -0.146634
    28  H    0.122320
    29  C    0.183780
    30  O   -0.326250
    31  C   -0.021671
    32  N   -0.218267
    33  C    0.128409
    34  H    0.021112
    35  H    0.022858
    36  H    0.030134
    37  H    0.021734
    38  H    0.042214
    39  H    0.062848
    40  H    0.076331
    41  H    0.022944
    42  C   -0.078799
    43  O   -0.278514
    44  C    0.149871
    45  H    0.135528
    46  N   -0.117400
    47  O   -0.344568
    48  C    0.342051
    49  H    0.041707
    50  C    0.175409
    51  C    0.044288
    52  N   -0.278793
    53  H    0.034229
    54  H    0.041697
    55  H    0.014026
    56  H    0.124370
    57  H    0.116049
    58  N   -0.028303
    59  C    0.088099
    60  C    0.234514
    61  N   -0.269637
    62  H    0.032020
    63  C    0.155531
    64  N   -0.301581
    65  H    0.030993
    66  C    0.111659
    67  N   -0.246678
    68  C    0.018267
    69  C    0.182704
    70  N   -0.302527
 Sum of Mulliken charges =  -0.00000

 Dipole moment (field-independent basis, Debye):
    X=              5.2711    Y=              5.1393    Z=              5.1879  Tot=              9.0061
 Quadrupole moment (field-independent basis, Debye-Ang):
   XX=           -144.7484   YY=           -226.0970   ZZ=           -257.3536
   XY=              8.4361   XZ=             13.0607   YZ=              6.8648

 Normal termination of Gaussian 16 at Thu Jan 18 18:11:29 2018.
