 Gaussian 16, Revision A.03,
 Gaussian 16:  EM64L-G16RevA.03 25-Dec-2016

 ---------------------------------------
 #p wb97xd/cc-pvdz sp scf=(maxcycles=20)
 ---------------------------------------

 ------------------
 Base pair stacking
 ------------------
 Symbolic Z-matrix:
 Charge =  0 Multiplicity = 1

                         Standard orientation:
 ---------------------------------------------------------------------
 Center     Atomic      Atomic             Coordinates (Angstroms)
 Number     Number       Type             X           Y           Z
 ---------------------------------------------------------------------
      1          7           0       -7.145360   -0.836077    0.087676
      2          6           0       -8.436829   -0.297677    0.556947
      3          6           0       -5.008546   -1.322630   -0.098341
      4          7           0       -5.642547   -1.945445   -1.163645
      5          6           0       -6.904526   -1.627388   -1.008935
      6          1           0       -7.709865   -1.945684   -1.671549
      7          7           0       -3.365362   -0.563504    1.413812
      8          6           0       -4.358156    0.050017    2.066146
      9          1           0       -4.057790    0.606630    2.952838
     10          7           0       -5.660150    0.079062    1.788910
     11          6           0       -5.921942   -0.635028    0.681673
     12          6           0       -3.661300   -1.273952    0.303519
     13          7           0       -2.671640   -1.887099   -0.349021
     14          1           0       -2.844609   -2.423915   -1.175529
     15          1           0       -1.724104   -1.830788   -0.034148
     16          1           0       -9.060615   -1.052796    0.759144
     17          1           0       -8.292007    0.244377    1.384193
     18          1           0       -8.836692    0.281617   -0.153344
     19          7           0       -2.833041    2.263983   -1.123358
     20          6           0       -1.488202    2.273427   -0.841624
     21          6           0       -3.811033    3.265032   -0.652043
     22          7           0        1.250318    3.745050    0.706463
     23          1           0        2.231149    3.571666    0.791007
     24          1           0        0.890308    4.552551    1.174492
     25          7           0       -0.839479    3.191386   -0.092926
     26          6           0        0.452827    2.931796   -0.002435
     27          7           0        1.064964    1.856080   -0.598775
     28          1           0        2.058671    1.736283   -0.475651
     29          6           0        0.417183    0.898997   -1.373522
     30          8           0        1.062984   -0.033789   -1.867071
     31          6           0       -0.971738    1.164478   -1.479841
     32          7           0       -1.972208    0.472762   -2.148783
     33          6           0       -3.056027    1.160049   -1.909638
     34          1           0       -4.048161    0.905166   -2.283806
     35          1           0       -4.512782    2.814321   -0.101389
     36          1           0       -3.341997    3.950189   -0.096329
     37          1           0       -4.239184    3.710679   -1.437473
     38          1           0        6.894477    1.347864    1.046440
     39          1           0        7.229694    2.068261   -0.526233
     40          1           0        5.742288    2.475138    0.330163
     41          1           0        6.363744   -2.486726   -1.810289
     42          6           0        5.812399   -1.592839   -1.518338
     43          8           0        3.729644   -2.389630   -2.327275
     44          6           0        4.408144   -1.518507   -1.783609
     45          1           0        2.815509   -0.255684   -1.544616
     46          7           0        3.807309   -0.345200   -1.374209
     47          8           0        3.793169    1.720541   -0.430961
     48          6           0        4.410484    0.721847   -0.756856
     49          1           0        7.494628   -0.575155   -0.693584
     50          6           0        6.428747   -0.568219   -0.917609
     51          6           0        6.453424    1.689623    0.121919
     52          7           0        5.765667    0.574835   -0.535334
     53          1           0        3.896965    0.102713    4.495548
     54          1           0        2.753151    1.067400    3.845046
     55          1           0        4.305044    1.197933    3.356517
     56          1           0        0.595521   -3.352357   -1.181461
     57          1           0        2.244100   -3.569833   -0.800716
     58          7           0        1.387658   -3.079563   -0.635343
     59          6           0        1.306578   -2.105409    0.273292
     60          6           0        2.151072   -0.661424    1.965474
     61          7           0        0.987855   -0.020294    2.166226
     62          1           0       -0.936212   -0.038161    1.460336
     63          6           0        0.043259   -0.504302    1.362241
     64          7           0        0.122481   -1.479937    0.451508
     65          1           0        5.274038   -1.382042    2.389659
     66          6           0        4.235164   -1.336503    2.061641
     67          7           0        3.711531   -2.102991    1.136446
     68          6           0        2.390443   -1.685344    1.065584
     69          6           0        3.595399    0.561942    3.659990
     70          7           0        3.347351   -0.440838    2.605981
 ---------------------------------------------------------------------

 SCF Done:  E(RwB97XD) =  -2048.75049429     A.U. after   15 cycles

 The electronic state is 1-A.
 Alpha  occ. eigenvalues --  -19.26081 -19.22197 -19.20858 -14.52603 -14.50768
 Alpha  occ. eigenvalues --  -14.49691 -14.48728 -14.47875 -14.47127 -14.46920
 Alpha  occ. eigenvalues --  -14.45040 -14.43644 -14.42508 -14.42415 -14.42202
 Alpha  occ. eigenvalues --  -14.42184 -14.41978 -14.41679 -14.40903 -14.40830
 Alpha  occ. eigenvalues --  -10.45642 -10.41409 -10.40289 -10.38471 -10.37657
 Alpha  occ. eigenvalues --  -10.37472 -10.36285 -10.36058 -10.35791 -10.35236
 Alpha  occ. eigenvalues --  -10.35033 -10.34461 -10.34270 -10.33819 -10.33794
 Alpha  occ. eigenvalues --  -10.33254 -10.32793 -10.31719 -10.31020 -10.30625
 Alpha  occ. eigenvalues --  -10.30537 -10.29443 -10.28254  -1.19624  -1.13473
 Alpha  occ. eigenvalues --   -1.13365  -1.13160  -1.12290  -1.10680  -1.09489
 Alpha  occ. eigenvalues --   -1.08794  -1.06845  -1.05709  -1.02611  -1.02339
 Alpha  occ. eigenvalues --   -1.01090  -0.99972  -0.99074  -0.98686  -0.97793
 Alpha  occ. eigenvalues --   -0.96594  -0.94513  -0.93289  -0.91024  -0.85815
 Alpha  occ. eigenvalues --   -0.84790  -0.84321  -0.84142  -0.83959  -0.83125
 Alpha  occ. eigenvalues --   -0.82425  -0.78931  -0.74989  -0.74684  -0.73829
 Alpha  occ. eigenvalues --   -0.73638  -0.73440  -0.72706  -0.71824  -0.68298
 Alpha  occ. eigenvalues --   -0.67533  -0.67022  -0.66643  -0.64633  -0.64499
 Alpha  occ. eigenvalues --   -0.63842  -0.63412  -0.62794  -0.62120  -0.61881
 Alpha  occ. eigenvalues --   -0.60812  -0.60081  -0.59606  -0.58577  -0.58535
 Alpha  occ. eigenvalues --   -0.58155  -0.57704  -0.57268  -0.56969  -0.56531
 Alpha  occ. eigenvalues --   -0.56149  -0.55862  -0.54508  -0.54325  -0.53752
 Alpha  occ. eigenvalues --   -0.53656  -0.53585  -0.53000  -0.52750  -0.52584
 Alpha  occ. eigenvalues --   -0.52095  -0.51833  -0.51602  -0.50991  -0.50848
 Alpha  occ. eigenvalues --   -0.50285  -0.49742  -0.49573  -0.48977  -0.48486
 Alpha  occ. eigenvalues --   -0.48350  -0.48149  -0.47923  -0.47763  -0.47648
 Alpha  occ. eigenvalues --   -0.47391  -0.45812  -0.44880  -0.44094  -0.42735
 Alpha  occ. eigenvalues --   -0.41950  -0.39662  -0.38823  -0.37970  -0.37444
 Alpha  occ. eigenvalues --   -0.37325  -0.36567  -0.35601  -0.35123  -0.34553
 Alpha  occ. eigenvalues --   -0.34420  -0.34268  -0.33424  -0.32941  -0.32612
 Alpha  occ. eigenvalues --   -0.32507  -0.32234  -0.32034  -0.31824  -0.31763
 Alpha  occ. eigenvalues --   -0.31000  -0.27654  -0.26390  -0.25594
 Alpha virt. eigenvalues --    0.03106   0.05827   0.07113   0.08157   0.08994
 Alpha virt. eigenvalues --    0.09267   0.09628   0.10309   0.10729   0.12672
 Alpha virt. eigenvalues --    0.13147   0.13291   0.14448   0.14820   0.15781

 Mulliken charges:
               1
     1  N   -0.309736
     2  C    0.180636
     3  C    0.026973
     4  N   -0.256376
     5  C    0.129388
     6  H    0.028883
     7  N   -0.282085
     8  C    0.131060
     9  H    0.017574
    10  N   -0.290590
    11  C    0.235810
    12  C    0.091508
    13  N   -0.031325
    14  H    0.107713
    15  H    0.091496
    16  H    0.028144
    17  H    0.036425
    18  H    0.024889
    19  N   -0.305820
    20  C    0.252863
    21  C    0.180298
    22  N   -0.123594
    23  H    0.112585
    24  H    0.118929
    25  N   -0.307735
    26  C    0.247630
    27  N   -0.133958
    28  H    0.118080
    29  C    0.171656
    30  O   -0.326611
    31  C   -0.009720
    32  N   -0.229404
    33  C    0.125612
    34  H    0.031876
    35  H    0.033346
    36  H    0.027888
    37  H    0.022528
    38  H    0.052813
    39  H    0.063471
    40  H    0.074627
    41  H    0.029886
    42  C   -0.081093
    43  O   -0.284484
    44  C    0.192994
    45  H    0.134780
    46  N   -0.127661
    47  O   -0.352610
    48  C    0.348270
    49  H    0.044899
    50  C    0.160483
    51  C    0.039924
    52  N   -0.291312
    53  H    0.030192
    54  H    0.039686
    55  H    0.017185
    56  H    0.114339
    57  H    0.119689
    58  N   -0.034345
    59  C    0.118771
    60  C    0.244079
    61  N   -0.275908
    62  H    0.033392
    63  C    0.155737
    64  N   -0.305153
    65  H    0.022204
    66  C    0.118433
    67  N   -0.251504
    68  C    0.007355
    69  C    0.181246
    70  N   -0.307223
 Sum of Mulliken charges =  -0.00000

 Dipole moment (field-independent basis, Debye):
    X=              5.3837    Y=              5.5958    Z=              4.1121  Tot=              8.7867
 Quadrupole moment (field-independent basis, Debye-Ang):
   XX=           -138.6913   YY=           -228.0908   ZZ=           -251.2248
   XY=              8.7249   XZ=             25.2574   YZ=              3.8311

 Normal termination of Gaussian 16 at Fri Jan 19 06:20:15 2018.
