 Gaussian 16, Revision A.03,
 Gaussian 16:  EM64L-G16RevA.03 25-Dec-2016

 ---------------------------------------
 #p wb97xd/cc-pvdz sp scf=(maxcycles=20)
 ---------------------------------------

 ------------------
 Base pair stacking
 ------------------
 Symbolic Z-matrix:
 Charge =  0 Multiplicity = 1

                         Standard orientation:
 ---------------------------------------------------------------------
 Center     Atomic      Atomic             Coordinates (Angstroms)
 Number     Number       Type             X           Y           Z
 ---------------------------------------------------------------------
      1          7           0        6.017922   -1.069030   -0.800299
      2          6           0        7.309066   -0.386037   -1.011209
      3          6           0        3.871978   -1.548129   -0.748272
      4          7           0        4.527093   -2.641357   -0.200183
      5          6           0        5.793720   -2.308965   -0.253463
      6          1           0        6.614529   -2.936254    0.095429
      7          7           0        2.194604   -0.091627   -1.540706
      8          6           0        3.182342    0.754888   -1.849482
      9          1           0        2.865714    1.693983   -2.301259
     10          7           0        4.496317    0.616186   -1.684756
     11          6           0        4.777779   -0.571005   -1.122812
     12          6           0        2.510453   -1.277824   -0.976557
     13          7           0        1.525864   -2.124165   -0.667610
     14          1           0        1.713392   -3.013252   -0.248574
     15          1           0        0.567752   -1.898517   -0.844385
     16          1           0        7.885121   -0.938057   -1.614209
     17          1           0        7.149834    0.507459   -1.430068
     18          1           0        7.770813   -0.262960   -0.132784
     19          7           0        4.137112    1.426602    1.224173
     20          6           0        2.788183    1.593235    1.022456
     21          6           0        5.193239    2.327965    0.721340
     22          7           0        0.149649    3.406016   -0.324285
     23          1           0       -0.847600    3.344670   -0.355236
     24          1           0        0.571160    4.183195   -0.792288
     25          7           0        2.205601    2.600281    0.336519
     26          6           0        0.889347    2.487840    0.315814
     27          7           0        0.194807    1.467986    0.919999
     28          1           0       -0.811368    1.462501    0.852633
     29          6           0        0.773530    0.421365    1.631005
     30          8           0        0.055865   -0.449534    2.138175
     31          6           0        2.187191    0.528505    1.661962
     32          7           0        3.139641   -0.290085    2.253264
     33          6           0        4.278574    0.280602    1.968027
     34          1           0        5.255222   -0.093838    2.276607
     35          1           0        5.808324    1.820139    0.119193
     36          1           0        4.773622    3.077841    0.211573
     37          1           0        5.711699    2.698710    1.491120
     38          1           0       -5.737529    1.658114   -0.391291
     39          1           0       -5.901807    2.361243    1.215964
     40          1           0       -4.428253    2.628271    0.283933
     41          1           0       -5.481076   -2.299631    2.332145
     42          6           0       -4.850256   -1.463297    2.030746
     43          8           0       -2.827971   -2.510080    2.695383
     44          6           0       -3.433919   -1.552733    2.214631
     45          1           0       -1.725716   -0.466447    1.914012
     46          7           0       -2.729255   -0.440580    1.800127
     47          8           0       -2.536505    1.639646    0.909790
     48          6           0       -3.242631    0.705405    1.246316
     49          1           0       -6.451297   -0.240750    1.332277
     50          6           0       -5.380514   -0.358521    1.493239
     51          6           0       -5.210147    1.919849    0.513931
     52          7           0       -4.615974    0.715851    1.101373
     53          1           0       -5.170434    2.183896   -3.346402
     54          1           0       -3.950931    2.656158   -2.370761
     55          1           0       -5.468789    2.540118   -1.781943
     56          1           0       -1.762876   -3.757281   -0.490432
     57          1           0       -3.436765   -3.721042   -0.817347
     58          7           0       -2.566960   -3.229309   -0.764002
     59          6           0       -2.484086   -1.927335   -1.045388
     60          6           0       -3.340650    0.195997   -1.693080
     61          7           0       -2.159296    0.830348   -1.612984
     62          1           0       -0.205849    0.420408   -1.147552
     63          6           0       -1.200545   -0.013999   -1.237758
     64          7           0       -1.281536   -1.318340   -0.955466
     65          1           0       -6.511733   -0.153020   -2.217073
     66          6           0       -5.456958   -0.299680   -1.982812
     67          7           0       -4.925771   -1.441875   -1.620994
     68          6           0       -3.584270   -1.141589   -1.434161
     69          6           0       -4.806338    2.141030   -2.416030
     70          7           0       -4.555078    0.734339   -2.047130
 ---------------------------------------------------------------------

 SCF Done:  E(RwB97XD) =  -2048.73554839     A.U. after   15 cycles

 The electronic state is 1-A.
 Alpha  occ. eigenvalues --  -19.25319 -19.21610 -19.20559 -14.52326 -14.52199
 Alpha  occ. eigenvalues --  -14.49705 -14.48438 -14.47477 -14.47439 -14.46746
 Alpha  occ. eigenvalues --  -14.46481 -14.45298 -14.43933 -14.43852 -14.43019
 Alpha  occ. eigenvalues --  -14.42156 -14.41790 -14.41580 -14.40825 -14.40595
 Alpha  occ. eigenvalues --  -10.45012 -10.41062 -10.39714 -10.39455 -10.38116
 Alpha  occ. eigenvalues --  -10.37840 -10.37362 -10.36948 -10.36190 -10.35331
 Alpha  occ. eigenvalues --  -10.35241 -10.34835 -10.34140 -10.34038 -10.34003
 Alpha  occ. eigenvalues --  -10.33662 -10.33086 -10.32379 -10.32069 -10.30555
 Alpha  occ. eigenvalues --  -10.30155 -10.29260 -10.27857  -1.19116  -1.15110
 Alpha  occ. eigenvalues --   -1.13083  -1.12625  -1.12204  -1.10359  -1.09116
 Alpha  occ. eigenvalues --   -1.08746  -1.08415  -1.05757  -1.04344  -1.02174
 Alpha  occ. eigenvalues --   -1.01229  -1.00865  -0.99558  -0.98363  -0.97814
 Alpha  occ. eigenvalues --   -0.96432  -0.96272  -0.93410  -0.90660  -0.87607
 Alpha  occ. eigenvalues --   -0.86043  -0.84807  -0.83818  -0.83632  -0.83210
 Alpha  occ. eigenvalues --   -0.82036  -0.78530  -0.76785  -0.74660  -0.74333
 Alpha  occ. eigenvalues --   -0.73688  -0.73450  -0.73070  -0.71795  -0.70161
 Alpha  occ. eigenvalues --   -0.67195  -0.67099  -0.66536  -0.66217  -0.64405
 Alpha  occ. eigenvalues --   -0.64024  -0.63644  -0.63473  -0.62541  -0.62272
 Alpha  occ. eigenvalues --   -0.61554  -0.61045  -0.60311  -0.59343  -0.59243
 Alpha  occ. eigenvalues --   -0.58248  -0.57987  -0.57687  -0.57344  -0.56358
 Alpha  occ. eigenvalues --   -0.56027  -0.55723  -0.55274  -0.54848  -0.54128
 Alpha  occ. eigenvalues --   -0.53924  -0.53333  -0.53311  -0.52780  -0.52688
 Alpha  occ. eigenvalues --   -0.52505  -0.52271  -0.51672  -0.51379  -0.50982
 Alpha  occ. eigenvalues --   -0.49982  -0.49805  -0.49369  -0.49193  -0.48941
 Alpha  occ. eigenvalues --   -0.48631  -0.48432  -0.48070  -0.47755  -0.47201
 Alpha  occ. eigenvalues --   -0.47045  -0.45817  -0.45510  -0.44279  -0.42832
 Alpha  occ. eigenvalues --   -0.41869  -0.40461  -0.39124  -0.37899  -0.37547
 Alpha  occ. eigenvalues --   -0.37314  -0.37090  -0.36983  -0.35988  -0.34600
 Alpha  occ. eigenvalues --   -0.34281  -0.34173  -0.33872  -0.33627  -0.32879
 Alpha  occ. eigenvalues --   -0.32456  -0.32306  -0.31674  -0.31577  -0.31211
 Alpha  occ. eigenvalues --   -0.31156  -0.29217  -0.26504  -0.25306
 Alpha virt. eigenvalues --    0.03337   0.04403   0.07088   0.07126   0.08646
 Alpha virt. eigenvalues --    0.08895   0.09824   0.10417   0.10875   0.12417
 Alpha virt. eigenvalues --    0.13282   0.13459   0.14085   0.14355   0.14807

 Mulliken charges:
               1
     1  N   -0.308572
     2  C    0.176066
     3  C    0.065030
     4  N   -0.247667
     5  C    0.124248
     6  H    0.028041
     7  N   -0.280756
     8  C    0.139022
     9  H    0.011998
    10  N   -0.288041
    11  C    0.224186
    12  C    0.084861
    13  N   -0.043385
    14  H    0.110449
    15  H    0.089262
    16  H    0.030305
    17  H    0.044233
    18  H    0.021944
    19  N   -0.284844
    20  C    0.228093
    21  C    0.198326
    22  N   -0.110245
    23  H    0.115712
    24  H    0.116338
    25  N   -0.297360
    26  C    0.220035
    27  N   -0.141470
    28  H    0.124928
    29  C    0.173433
    30  O   -0.323383
    31  C   -0.005310
    32  N   -0.216720
    33  C    0.121129
    34  H    0.017709
    35  H    0.000502
    36  H    0.029348
    37  H    0.018851
    38  H    0.040562
    39  H    0.059575
    40  H    0.073954
    41  H    0.026291
    42  C   -0.095180
    43  O   -0.268838
    44  C    0.166068
    45  H    0.133062
    46  N   -0.120010
    47  O   -0.333196
    48  C    0.328581
    49  H    0.041430
    50  C    0.170196
    51  C    0.044633
    52  N   -0.274194
    53  H    0.034213
    54  H    0.041790
    55  H    0.014219
    56  H    0.122924
    57  H    0.120002
    58  N   -0.054607
    59  C    0.110845
    60  C    0.208675
    61  N   -0.252844
    62  H    0.040514
    63  C    0.140541
    64  N   -0.300571
    65  H    0.035792
    66  C    0.111957
    67  N   -0.242634
    68  C    0.033387
    69  C    0.175803
    70  N   -0.299237
 Sum of Mulliken charges =  -0.00000

 Dipole moment (field-independent basis, Debye):
    X=             -4.9524    Y=              5.7917    Z=             -5.0276  Tot=              9.1294
 Quadrupole moment (field-independent basis, Debye-Ang):
   XX=           -145.8181   YY=           -225.0885   ZZ=           -262.8818
   XY=            -13.0084   XZ=              9.0361   YZ=              5.3495

 Normal termination of Gaussian 16 at Thu Jan 18 17:46:25 2018.
