 Gaussian 16, Revision A.03,
 Gaussian 16:  EM64L-G16RevA.03 25-Dec-2016

 ---------------------------------------
 #p wb97xd/cc-pvdz sp scf=(maxcycles=20)
 ---------------------------------------

 ------------------
 Base pair stacking
 ------------------
 Symbolic Z-matrix:
 Charge =  0 Multiplicity = 1

                         Standard orientation:
 ---------------------------------------------------------------------
 Center     Atomic      Atomic             Coordinates (Angstroms)
 Number     Number       Type             X           Y           Z
 ---------------------------------------------------------------------
      1          7           0        4.546025   -0.970369   -1.854718
      2          6           0        5.837938   -0.316071   -2.139049
      3          6           0        2.401407   -1.359483   -1.560565
      4          7           0        3.051158   -2.560067   -1.313289
      5          6           0        4.317200   -2.277587   -1.500407
      6          1           0        5.134254   -2.991535   -1.392506
      7          7           0        0.732394    0.285364   -1.828558
      8          6           0        1.722036    1.130816   -2.134184
      9          1           0        1.409642    2.148265   -2.365392
     10          7           0        3.033469    0.909161   -2.196809
     11          6           0        3.309745   -0.370397   -1.895449
     12          6           0        1.043023   -0.995075   -1.530101
     13          7           0        0.056535   -1.840518   -1.224755
     14          1           0        0.240218   -2.797459   -0.997291
     15          1           0       -0.899217   -1.546357   -1.212958
     16          1           0        6.283489   -0.774996   -2.907851
     17          1           0        5.682527    0.643980   -2.369873
     18          1           0        6.426925   -0.372179   -1.332861
     19          7           0        5.607207    0.838276    0.876081
     20          6           0        4.258849    1.098806    0.921861
     21          6           0        6.649858    1.802948    0.472352
     22          7           0        1.602618    3.292448    0.481275
     23          1           0        0.608114    3.276050    0.580905
     24          1           0        2.013466    4.150261    0.171305
     25          7           0        3.664683    2.270413    0.608233
     26          6           0        2.352454    2.213137    0.750957
     27          7           0        1.672187    1.095004    1.168746
     28          1           0        0.668072    1.142351    1.249160
     29          6           0        2.262989   -0.121225    1.496781
     30          8           0        1.557755   -1.069416    1.863258
     31          6           0        3.672504   -0.075121    1.348339
     32          7           0        4.633423   -1.052979    1.565933
     33          6           0        5.762877   -0.467236    1.273646
     34          1           0        6.742336   -0.943326    1.330994
     35          1           0        7.142769    1.450386   -0.322344
     36          1           0        6.221591    2.674613    0.237709
     37          1           0        7.289980    1.939916    1.227535
     38          1           0       -4.352093    1.829134    0.825965
     39          1           0       -4.253410    2.089958    2.565756
     40          1           0       -2.899625    2.541456    1.529040
     41          1           0       -4.023679   -2.712072    2.380385
     42          6           0       -3.379775   -1.848312    2.214374
     43          8           0       -1.367706   -3.102594    2.288295
     44          6           0       -1.961583   -2.032079    2.161489
     45          1           0       -0.234455   -0.964929    1.903543
     46          7           0       -1.239825   -0.875205    1.947114
     47          8           0       -1.017565    1.357981    1.599719
     48          6           0       -1.738301    0.393202    1.785232
     49          1           0       -4.967230   -0.430296    2.091821
     50          6           0       -3.895756   -0.623352    2.059995
     51          6           0       -3.693157    1.825064    1.681444
     52          7           0       -3.114514    0.489072    1.848920
     53          1           0       -6.640867    3.158327   -2.080359
     54          1           0       -5.265878    3.395840   -1.234735
     55          1           0       -6.689251    3.240662   -0.451163
     56          1           0       -3.277941   -3.337810   -0.832803
     57          1           0       -4.974816   -3.172519   -0.891013
     58          7           0       -4.074598   -2.735697   -0.886895
     59          6           0       -3.943459   -1.409078   -0.950743
     60          6           0       -4.735684    0.830383   -1.088268
     61          7           0       -3.514238    1.389357   -1.080962
     62          1           0       -1.547273    0.820059   -0.994208
     63          6           0       -2.572114    0.451499   -1.005459
     64          7           0       -2.701438   -0.877690   -0.941423
     65          1           0       -7.965413    0.715913   -1.177168
     66          6           0       -6.900628    0.484981   -1.134148
     67          7           0       -6.403035   -0.725083   -1.057800
     68          6           0       -5.031198   -0.520385   -1.028001
     69          6           0       -6.152319    2.933961   -1.237167
     70          7           0       -5.948273    1.474536   -1.156711
 ---------------------------------------------------------------------

 SCF Done:  E(RwB97XD) =  -2048.74377384     A.U. after   15 cycles

 The electronic state is 1-A.
 Alpha  occ. eigenvalues --  -19.25116 -19.21368 -19.20708 -14.52892 -14.51586
 Alpha  occ. eigenvalues --  -14.49446 -14.48884 -14.48389 -14.47106 -14.46821
 Alpha  occ. eigenvalues --  -14.46707 -14.45658 -14.44687 -14.44653 -14.42942
 Alpha  occ. eigenvalues --  -14.41946 -14.41609 -14.41415 -14.41283 -14.40926
 Alpha  occ. eigenvalues --  -10.44705 -10.41226 -10.40311 -10.39438 -10.38380
 Alpha  occ. eigenvalues --  -10.38238 -10.37576 -10.36899 -10.36237 -10.35985
 Alpha  occ. eigenvalues --  -10.34713 -10.34283 -10.34137 -10.33971 -10.33697
 Alpha  occ. eigenvalues --  -10.33636 -10.33580 -10.33079 -10.31679 -10.31283
 Alpha  occ. eigenvalues --  -10.30248 -10.28849 -10.28499  -1.18704  -1.15620
 Alpha  occ. eigenvalues --   -1.13382  -1.12362  -1.11494  -1.11055  -1.09732
 Alpha  occ. eigenvalues --   -1.08661  -1.08417  -1.05595  -1.05239  -1.01720
 Alpha  occ. eigenvalues --   -1.01291  -1.00973  -0.99779  -0.98741  -0.97385
 Alpha  occ. eigenvalues --   -0.97153  -0.97001  -0.93281  -0.90181  -0.88024
 Alpha  occ. eigenvalues --   -0.86270  -0.84718  -0.84130  -0.83137  -0.82630
 Alpha  occ. eigenvalues --   -0.82576  -0.78081  -0.77373  -0.75304  -0.74972
 Alpha  occ. eigenvalues --   -0.73733  -0.73266  -0.72574  -0.71481  -0.70744
 Alpha  occ. eigenvalues --   -0.67562  -0.67161  -0.66695  -0.65792  -0.64619
 Alpha  occ. eigenvalues --   -0.64561  -0.63310  -0.63155  -0.62718  -0.61935
 Alpha  occ. eigenvalues --   -0.61162  -0.60929  -0.60714  -0.59874  -0.58893
 Alpha  occ. eigenvalues --   -0.58824  -0.58700  -0.58380  -0.56980  -0.56032
 Alpha  occ. eigenvalues --   -0.55685  -0.55598  -0.55321  -0.54509  -0.54376
 Alpha  occ. eigenvalues --   -0.54234  -0.53922  -0.53309  -0.53190  -0.53046
 Alpha  occ. eigenvalues --   -0.52638  -0.52055  -0.51404  -0.50744  -0.50544
 Alpha  occ. eigenvalues --   -0.50408  -0.50240  -0.49474  -0.49342  -0.49163
 Alpha  occ. eigenvalues --   -0.48734  -0.48576  -0.48141  -0.47541  -0.47331
 Alpha  occ. eigenvalues --   -0.47116  -0.45911  -0.45240  -0.45111  -0.42622
 Alpha  occ. eigenvalues --   -0.41401  -0.40996  -0.38877  -0.38057  -0.37959
 Alpha  occ. eigenvalues --   -0.37851  -0.37338  -0.37108  -0.35597  -0.35020
 Alpha  occ. eigenvalues --   -0.34591  -0.34182  -0.33790  -0.33584  -0.33107
 Alpha  occ. eigenvalues --   -0.33042  -0.32502  -0.32005  -0.31190  -0.31113
 Alpha  occ. eigenvalues --   -0.30801  -0.30335  -0.26922  -0.25087
 Alpha virt. eigenvalues --    0.03141   0.04483   0.06476   0.07359   0.08560
 Alpha virt. eigenvalues --    0.09032   0.09514   0.10054   0.10724   0.12603
 Alpha virt. eigenvalues --    0.13132   0.13484   0.14003   0.14531   0.14673

 Mulliken charges:
               1
     1  N   -0.296725
     2  C    0.188471
     3  C    0.052074
     4  N   -0.247409
     5  C    0.148150
     6  H    0.026620
     7  N   -0.284853
     8  C    0.121926
     9  H    0.003503
    10  N   -0.271012
    11  C    0.228688
    12  C    0.077156
    13  N   -0.054452
    14  H    0.115261
    15  H    0.086178
    16  H    0.026906
    17  H    0.035006
    18  H    0.002330
    19  N   -0.300969
    20  C    0.240862
    21  C    0.182838
    22  N   -0.111004
    23  H    0.119753
    24  H    0.119329
    25  N   -0.288707
    26  C    0.214288
    27  N   -0.123195
    28  H    0.119748
    29  C    0.180779
    30  O   -0.318540
    31  C   -0.004939
    32  N   -0.211942
    33  C    0.097222
    34  H    0.024441
    35  H    0.007881
    36  H    0.035749
    37  H    0.028641
    38  H    0.046277
    39  H    0.047261
    40  H    0.073044
    41  H    0.019603
    42  C   -0.100731
    43  O   -0.273344
    44  C    0.174596
    45  H    0.130498
    46  N   -0.118285
    47  O   -0.345554
    48  C    0.322657
    49  H    0.046163
    50  C    0.154323
    51  C    0.062154
    52  N   -0.270863
    53  H    0.037632
    54  H    0.042324
    55  H    0.030563
    56  H    0.124777
    57  H    0.119436
    58  N   -0.059411
    59  C    0.103941
    60  C    0.209967
    61  N   -0.269516
    62  H    0.031609
    63  C    0.168214
    64  N   -0.307990
    65  H    0.039792
    66  C    0.139111
    67  N   -0.256902
    68  C    0.040265
    69  C    0.178296
    70  N   -0.309960
 Sum of Mulliken charges =  -0.00000

 Dipole moment (field-independent basis, Debye):
    X=             -5.6056    Y=              7.5279    Z=             -2.4741  Tot=              9.7064
 Quadrupole moment (field-independent basis, Debye-Ang):
   XX=           -147.5294   YY=           -230.3578   ZZ=           -256.9626
   XY=             -4.5632   XZ=            -10.6120   YZ=             14.4681

 Normal termination of Gaussian 16 at Fri Jan 19 09:50:15 2018.
