 Gaussian 16, Revision A.03,
 Gaussian 16:  EM64L-G16RevA.03 25-Dec-2016

 ---------------------------------------
 #p wb97xd/cc-pvdz sp scf=(maxcycles=20)
 ---------------------------------------

 ------------------
 Base pair stacking
 ------------------
 Symbolic Z-matrix:
 Charge =  0 Multiplicity = 1

                         Standard orientation:
 ---------------------------------------------------------------------
 Center     Atomic      Atomic             Coordinates (Angstroms)
 Number     Number       Type             X           Y           Z
 ---------------------------------------------------------------------
      1          7           0        4.203348   -2.266190   -0.966718
      2          6           0        5.461616   -2.151417   -1.729335
      3          6           0        2.092411   -2.164415   -0.357680
      4          7           0        2.773904   -2.748118    0.700427
      5          6           0        4.018386   -2.786066    0.291164
      6          1           0        4.850038   -3.186372    0.871719
      7          7           0        0.387649   -1.268516   -1.719344
      8          6           0        1.340565   -1.036257   -2.627963
      9          1           0        0.998905   -0.571023   -3.551590
     10          7           0        2.646024   -1.291205   -2.567229
     11          6           0        2.960264   -1.861881   -1.392496
     12          6           0        0.735931   -1.843805   -0.547661
     13          7           0       -0.213860   -2.076453    0.360600
     14          1           0       -0.001558   -2.500406    1.241736
     15          1           0       -1.169483   -1.835030    0.191339
     16          1           0        5.852795   -3.061252   -1.868506
     17          1           0        5.277206   -1.729657   -2.616598
     18          1           0        6.111080   -1.585357   -1.221633
     19          7           0        5.902207    1.206246    0.077939
     20          6           0        4.562795    1.503465    0.002445
     21          6           0        6.951876    1.768011   -0.795734
     22          7           0        1.944312    3.229677   -1.489353
     23          1           0        0.953911    3.307322   -1.378349
     24          1           0        2.363643    3.775296   -2.215421
     25          7           0        3.985222    2.351815   -0.875482
     26          6           0        2.677984    2.430082   -0.700518
     27          7           0        1.987288    1.731800    0.260139
     28          1           0        0.988086    1.853570    0.321144
     29          6           0        2.560979    0.853461    1.174057
     30          8           0        1.847458    0.272765    2.001347
     31          6           0        3.964938    0.758924    0.998450
     32          7           0        4.910001    0.009354    1.685416
     33          6           0        6.041578    0.306137    1.106063
     34          1           0        7.011096   -0.104472    1.390155
     35          1           0        7.407573    1.028479   -1.289946
     36          1           0        6.535890    2.397942   -1.450263
     37          1           0        7.621725    2.260050   -0.240757
     38          1           0       -4.026661    2.405246   -0.311896
     39          1           0       -3.859494    3.545931    1.020602
     40          1           0       -2.533673    3.325117   -0.121676
     41          1           0       -3.748568   -0.626419    3.413467
     42          6           0       -3.091097   -0.008388    2.801910
     43          8           0       -1.107454   -1.109067    3.495308
     44          6           0       -1.680389   -0.247111    2.829296
     45          1           0        0.060771    0.452212    2.012214
     46          7           0       -0.940018    0.590354    2.019501
     47          8           0       -0.678379    2.287704    0.533655
     48          6           0       -1.414282    1.597494    1.216830
     49          1           0       -4.648440    1.188590    1.972612
     50          6           0       -3.583586    0.966639    2.029015
     51          6           0       -3.337692    2.830419    0.402688
     52          7           0       -2.784714    1.765915    1.244578
     53          1           0       -7.018180    0.699096   -3.710448
     54          1           0       -5.585665    1.436722   -3.453706
     55          1           0       -6.943044    2.029048   -2.767580
     56          1           0       -3.489962   -2.521980    1.967756
     57          1           0       -5.188242   -2.376422    1.898690
     58          7           0       -4.295790   -2.149825    1.507012
     59          6           0       -4.186274   -1.385258    0.418604
     60          6           0       -5.014240   -0.064833   -1.379357
     61          7           0       -3.802800    0.223087   -1.883263
     62          1           0       -1.828077   -0.164416   -1.494788
     63          6           0       -2.846158   -0.347809   -1.154009
     64          7           0       -2.953815   -1.113924   -0.063575
     65          1           0       -8.239682   -0.036326   -1.160415
     66          6           0       -7.171949   -0.201348   -1.013200
     67          7           0       -6.655097   -0.916868   -0.044393
     68          6           0       -5.287611   -0.838563   -0.264847
     69          6           0       -6.463944    1.195208   -3.042094
     70          7           0       -6.236376    0.343875   -1.858268
 ---------------------------------------------------------------------

 SCF Done:  E(RwB97XD) =  -2048.74560192     A.U. after   15 cycles

 The electronic state is 1-A.
 Alpha  occ. eigenvalues --  -19.25296 -19.21870 -19.20855 -14.52549 -14.51773
 Alpha  occ. eigenvalues --  -14.49651 -14.48376 -14.48147 -14.47355 -14.47148
 Alpha  occ. eigenvalues --  -14.46946 -14.45432 -14.44716 -14.44613 -14.42500
 Alpha  occ. eigenvalues --  -14.42387 -14.41817 -14.41079 -14.40685 -14.40579
 Alpha  occ. eigenvalues --  -10.44883 -10.41617 -10.40086 -10.39814 -10.38596
 Alpha  occ. eigenvalues --  -10.38044 -10.37464 -10.36890 -10.36161 -10.35593
 Alpha  occ. eigenvalues --  -10.35024 -10.34415 -10.34189 -10.33917 -10.33562
 Alpha  occ. eigenvalues --  -10.33275 -10.33238 -10.32928 -10.31761 -10.30806
 Alpha  occ. eigenvalues --  -10.30338 -10.28760 -10.28440  -1.18853  -1.15330
 Alpha  occ. eigenvalues --   -1.13613  -1.12800  -1.11261  -1.11002  -1.09626
 Alpha  occ. eigenvalues --   -1.08912  -1.08604  -1.05203  -1.05079  -1.01995
 Alpha  occ. eigenvalues --   -1.01042  -1.00555  -1.00067  -0.99032  -0.97315
 Alpha  occ. eigenvalues --   -0.97181  -0.96589  -0.92884  -0.90407  -0.87811
 Alpha  occ. eigenvalues --   -0.85976  -0.84822  -0.83743  -0.83261  -0.82914
 Alpha  occ. eigenvalues --   -0.82164  -0.78319  -0.77177  -0.75196  -0.75062
 Alpha  occ. eigenvalues --   -0.74010  -0.72879  -0.72779  -0.71051  -0.70565
 Alpha  occ. eigenvalues --   -0.67823  -0.66985  -0.66245  -0.66041  -0.64826
 Alpha  occ. eigenvalues --   -0.64405  -0.63536  -0.62974  -0.62674  -0.62198
 Alpha  occ. eigenvalues --   -0.60658  -0.60542  -0.60118  -0.59581  -0.59013
 Alpha  occ. eigenvalues --   -0.58967  -0.58644  -0.57760  -0.56502  -0.55918
 Alpha  occ. eigenvalues --   -0.55872  -0.55591  -0.55294  -0.54637  -0.54357
 Alpha  occ. eigenvalues --   -0.53994  -0.53753  -0.53567  -0.53339  -0.52935
 Alpha  occ. eigenvalues --   -0.52795  -0.51866  -0.51568  -0.50714  -0.50634
 Alpha  occ. eigenvalues --   -0.50318  -0.50000  -0.49814  -0.49424  -0.49023
 Alpha  occ. eigenvalues --   -0.48830  -0.48545  -0.48467  -0.47628  -0.47391
 Alpha  occ. eigenvalues --   -0.46872  -0.45817  -0.45473  -0.45062  -0.42662
 Alpha  occ. eigenvalues --   -0.41211  -0.40870  -0.39136  -0.37990  -0.37877
 Alpha  occ. eigenvalues --   -0.37726  -0.37618  -0.36980  -0.35505  -0.34993
 Alpha  occ. eigenvalues --   -0.34642  -0.34317  -0.33389  -0.33373  -0.33255
 Alpha  occ. eigenvalues --   -0.33236  -0.32870  -0.32165  -0.31029  -0.30812
 Alpha  occ. eigenvalues --   -0.30496  -0.30321  -0.26362  -0.25517
 Alpha virt. eigenvalues --    0.02543   0.04801   0.06786   0.07991   0.08522
 Alpha virt. eigenvalues --    0.08984   0.09403   0.10317   0.10843   0.12360
 Alpha virt. eigenvalues --    0.13239   0.13299   0.14107   0.14376   0.15057

 Mulliken charges:
               1
     1  N   -0.304354
     2  C    0.186369
     3  C    0.037481
     4  N   -0.240815
     5  C    0.152190
     6  H    0.026429
     7  N   -0.297281
     8  C    0.128007
     9  H    0.009061
    10  N   -0.283816
    11  C    0.239282
    12  C    0.081849
    13  N   -0.060651
    14  H    0.120659
    15  H    0.091420
    16  H    0.024745
    17  H    0.032718
    18  H    0.011827
    19  N   -0.308823
    20  C    0.254869
    21  C    0.182302
    22  N   -0.123044
    23  H    0.119216
    24  H    0.119862
    25  N   -0.311882
    26  C    0.253517
    27  N   -0.145733
    28  H    0.120388
    29  C    0.193503
    30  O   -0.317045
    31  C   -0.013223
    32  N   -0.218118
    33  C    0.104822
    34  H    0.024402
    35  H    0.019755
    36  H    0.033501
    37  H    0.027712
    38  H    0.056563
    39  H    0.054749
    40  H    0.073726
    41  H    0.012272
    42  C   -0.098851
    43  O   -0.279862
    44  C    0.173631
    45  H    0.131246
    46  N   -0.123847
    47  O   -0.353398
    48  C    0.346876
    49  H    0.046076
    50  C    0.159853
    51  C    0.043997
    52  N   -0.275906
    53  H    0.035079
    54  H    0.041848
    55  H    0.029436
    56  H    0.128114
    57  H    0.118024
    58  N   -0.054055
    59  C    0.078897
    60  C    0.234931
    61  N   -0.267857
    62  H    0.035590
    63  C    0.162706
    64  N   -0.303761
    65  H    0.039565
    66  C    0.140401
    67  N   -0.260718
    68  C    0.037247
    69  C    0.179178
    70  N   -0.312850
 Sum of Mulliken charges =  -0.00000

 Dipole moment (field-independent basis, Debye):
    X=             -5.4338    Y=              5.8972    Z=             -5.5502  Tot=              9.7523
 Quadrupole moment (field-independent basis, Debye-Ang):
   XX=           -146.7752   YY=           -227.4411   ZZ=           -255.6292
   XY=            -10.6446   XZ=             -7.8957   YZ=             -8.4536

 Normal termination of Gaussian 16 at Fri Jan 19 02:10:48 2018.
