 Gaussian 16, Revision A.03,
 Gaussian 16:  EM64L-G16RevA.03 25-Dec-2016

 ---------------------------------------
 #p wb97xd/cc-pvdz sp scf=(maxcycles=20)
 ---------------------------------------

 ------------------
 Base pair stacking
 ------------------
 Symbolic Z-matrix:
 Charge =  0 Multiplicity = 1

                         Standard orientation:
 ---------------------------------------------------------------------
 Center     Atomic      Atomic             Coordinates (Angstroms)
 Number     Number       Type             X           Y           Z
 ---------------------------------------------------------------------
      1          7           0       -6.599705   -1.017052    0.406287
      2          6           0       -7.888395   -0.392968    0.763755
      3          6           0       -4.459684   -1.509799    0.284442
      4          7           0       -5.109451   -2.388078   -0.570629
      5          6           0       -6.372731   -2.056057   -0.463002
      6          1           0       -7.188952   -2.540288   -0.999879
      7          7           0       -2.792162   -0.375335    1.507271
      8          6           0       -3.778972    0.371009    2.013997
      9          1           0       -3.466097    1.136371    2.722929
     10          7           0       -5.088082    0.314145    1.777576
     11          6           0       -5.365195   -0.658690    0.893701
     12          6           0       -3.103557   -1.345804    0.620541
     13          7           0       -2.119905   -2.091873    0.113624
     14          1           0       -2.304251   -2.821447   -0.545896
     15          1           0       -1.165696   -1.947062    0.375641
     16          1           0       -8.492346   -1.080088    1.167852
     17          1           0       -7.732261    0.341528    1.423506
     18          1           0       -8.317522   -0.015829   -0.056984
     19          7           0       -3.482499    1.886109   -1.225855
     20          6           0       -2.135959    1.976191   -0.967414
     21          6           0       -4.510555    2.826182   -0.735900
     22          7           0        0.535637    3.608657    0.535710
     23          1           0        1.526441    3.494507    0.602954
     24          1           0        0.135925    4.392702    1.011335
     25          7           0       -1.530674    2.930931   -0.228405
     26          6           0       -0.223731    2.749467   -0.160756
     27          7           0        0.441500    1.712937   -0.769525
     28          1           0        1.442598    1.653018   -0.663821
     29          6           0       -0.160945    0.719219   -1.534665
     30          8           0        0.531086   -0.172677   -2.040979
     31          6           0       -1.564942    0.900790   -1.616455
     32          7           0       -2.533504    0.150665   -2.269233
     33          6           0       -3.652352    0.771349   -2.010147
     34          1           0       -4.633718    0.457552   -2.367543
     35          1           0       -5.174270    2.333680   -0.174000
     36          1           0       -4.073962    3.537892   -0.187155
     37          1           0       -4.978298    3.245870   -1.513007
     38          1           0        6.318733    1.554941    0.773688
     39          1           0        6.582663    2.295368   -0.803249
     40          1           0        5.088587    2.611434    0.079478
     41          1           0        5.969889   -2.302478   -2.080298
     42          6           0        5.370970   -1.443586   -1.777251
     43          8           0        3.326129   -2.363560   -2.551463
     44          6           0        3.960388   -1.453628   -2.018054
     45          1           0        2.299119   -0.289034   -1.749279
     46          7           0        3.297318   -0.318877   -1.596222
     47          8           0        3.175427    1.741566   -0.649171
     48          6           0        3.845905    0.782051   -0.987477
     49          1           0        7.003062   -0.327200   -0.979897
     50          6           0        5.934957   -0.384210   -1.185429
     51          6           0        5.841938    1.870248   -0.142454
     52          7           0        5.211117    0.716617   -0.789702
     53          1           0        4.534335    1.129901    4.103239
     54          1           0        3.355934    1.886360    3.265833
     55          1           0        4.891808    1.907803    2.713813
     56          1           0        1.151431   -3.681276   -0.421596
     57          1           0        2.813204   -3.776648   -0.048079
     58          7           0        1.952282   -3.270562    0.014404
     59          6           0        1.876626   -2.100065    0.651100
     60          6           0        2.737658   -0.266844    1.899970
     61          7           0        1.568203    0.390546    1.967993
     62          1           0       -0.372962    0.173114    1.347340
     63          6           0        0.612222   -0.291248    1.340171
     64          7           0        0.685999   -1.463730    0.701882
     65          1           0        5.883673   -0.820985    2.397683
     66          6           0        4.835904   -0.871610    2.100086
     67          7           0        4.302832   -1.852380    1.413343
     68          6           0        2.972701   -1.481460    1.279496
     69          6           0        4.202446    1.360447    3.188527
     70          7           0        3.945898    0.121818    2.428283
 ---------------------------------------------------------------------

 SCF Done:  E(RwB97XD) =  -2048.75341227     A.U. after   15 cycles

 The electronic state is 1-A.
 Alpha  occ. eigenvalues --  -19.25921 -19.22047 -19.20609 -14.52509 -14.51486
 Alpha  occ. eigenvalues --  -14.49717 -14.48509 -14.47808 -14.46804 -14.46528
 Alpha  occ. eigenvalues --  -14.46316 -14.44344 -14.43023 -14.42884 -14.42758
 Alpha  occ. eigenvalues --  -14.42319 -14.41904 -14.41832 -14.40935 -14.40670
 Alpha  occ. eigenvalues --  -10.45521 -10.41088 -10.40064 -10.38432 -10.38152
 Alpha  occ. eigenvalues --  -10.37510 -10.36952 -10.36163 -10.35976 -10.35870
 Alpha  occ. eigenvalues --  -10.34981 -10.34641 -10.34261 -10.34196 -10.33856
 Alpha  occ. eigenvalues --  -10.33420 -10.33153 -10.31840 -10.31344 -10.30834
 Alpha  occ. eigenvalues --  -10.30258 -10.29420 -10.27965  -1.19501  -1.14117
 Alpha  occ. eigenvalues --   -1.13135  -1.13043  -1.12290  -1.10433  -1.09369
 Alpha  occ. eigenvalues --   -1.08474  -1.07803  -1.05785  -1.03321  -1.02531
 Alpha  occ. eigenvalues --   -1.01193  -0.99855  -0.99619  -0.98417  -0.97819
 Alpha  occ. eigenvalues --   -0.96336  -0.95434  -0.93409  -0.90897  -0.86567
 Alpha  occ. eigenvalues --   -0.85046  -0.84817  -0.83997  -0.83856  -0.83169
 Alpha  occ. eigenvalues --   -0.82124  -0.78822  -0.75809  -0.74453  -0.73698
 Alpha  occ. eigenvalues --   -0.73598  -0.73509  -0.73340  -0.71872  -0.69165
 Alpha  occ. eigenvalues --   -0.67246  -0.67091  -0.66524  -0.65486  -0.64418
 Alpha  occ. eigenvalues --   -0.63619  -0.63518  -0.62968  -0.62551  -0.61596
 Alpha  occ. eigenvalues --   -0.60926  -0.60789  -0.59482  -0.59350  -0.58454
 Alpha  occ. eigenvalues --   -0.58238  -0.58056  -0.57450  -0.57238  -0.56325
 Alpha  occ. eigenvalues --   -0.56032  -0.55947  -0.54862  -0.54368  -0.54349
 Alpha  occ. eigenvalues --   -0.53577  -0.53486  -0.52829  -0.52724  -0.52671
 Alpha  occ. eigenvalues --   -0.52373  -0.52147  -0.51728  -0.51551  -0.50972
 Alpha  occ. eigenvalues --   -0.50006  -0.49848  -0.49449  -0.48894  -0.48724
 Alpha  occ. eigenvalues --   -0.48633  -0.48215  -0.47927  -0.47727  -0.47610
 Alpha  occ. eigenvalues --   -0.47355  -0.45717  -0.45310  -0.43923  -0.43283
 Alpha  occ. eigenvalues --   -0.41945  -0.39632  -0.39469  -0.38009  -0.37162
 Alpha  occ. eigenvalues --   -0.37135  -0.36898  -0.36426  -0.35686  -0.34434
 Alpha  occ. eigenvalues --   -0.34309  -0.34104  -0.33471  -0.33229  -0.33058
 Alpha  occ. eigenvalues --   -0.32627  -0.32108  -0.31844  -0.31744  -0.31608
 Alpha  occ. eigenvalues --   -0.31148  -0.28396  -0.26616  -0.25248
 Alpha virt. eigenvalues --    0.03013   0.05241   0.07112   0.08027   0.08894
 Alpha virt. eigenvalues --    0.09139   0.09813   0.10223   0.10841   0.11904
 Alpha virt. eigenvalues --    0.13178   0.13258   0.14423   0.14779   0.15099

 Mulliken charges:
               1
     1  N   -0.310306
     2  C    0.179817
     3  C    0.044173
     4  N   -0.250894
     5  C    0.126537
     6  H    0.028736
     7  N   -0.280015
     8  C    0.132488
     9  H    0.016936
    10  N   -0.292908
    11  C    0.234677
    12  C    0.097570
    13  N   -0.039097
    14  H    0.109769
    15  H    0.089705
    16  H    0.028916
    17  H    0.035495
    18  H    0.024327
    19  N   -0.300681
    20  C    0.254922
    21  C    0.183777
    22  N   -0.116161
    23  H    0.113420
    24  H    0.116975
    25  N   -0.304696
    26  C    0.234674
    27  N   -0.137369
    28  H    0.120917
    29  C    0.163590
    30  O   -0.324904
    31  C   -0.004620
    32  N   -0.227167
    33  C    0.124571
    34  H    0.024786
    35  H    0.021376
    36  H    0.027607
    37  H    0.020421
    38  H    0.046459
    39  H    0.065004
    40  H    0.077390
    41  H    0.027290
    42  C   -0.074788
    43  O   -0.273619
    44  C    0.170090
    45  H    0.135283
    46  N   -0.125824
    47  O   -0.345669
    48  C    0.340776
    49  H    0.042728
    50  C    0.164534
    51  C    0.037611
    52  N   -0.280780
    53  H    0.032951
    54  H    0.038820
    55  H    0.007743
    56  H    0.120021
    57  H    0.119024
    58  N   -0.043231
    59  C    0.112652
    60  C    0.225570
    61  N   -0.275348
    62  H    0.033277
    63  C    0.161410
    64  N   -0.304219
    65  H    0.028020
    66  C    0.116888
    67  N   -0.246049
    68  C    0.012553
    69  C    0.185495
    70  N   -0.299425
 Sum of Mulliken charges =  -0.00000

 Dipole moment (field-independent basis, Debye):
    X=              5.0230    Y=              5.4321    Z=              4.5546  Tot=              8.6881
 Quadrupole moment (field-independent basis, Debye-Ang):
   XX=           -142.1714   YY=           -225.5776   ZZ=           -257.8566
   XY=             12.0463   XZ=             17.8513   YZ=              1.0269

 Normal termination of Gaussian 16 at Fri Jan 19 09:13:34 2018.
