 Gaussian 16, Revision A.03,
 Gaussian 16:  EM64L-G16RevA.03 25-Dec-2016

 ---------------------------------------
 #p wb97xd/cc-pvdz sp scf=(maxcycles=20)
 ---------------------------------------

 ------------------
 Base pair stacking
 ------------------
 Symbolic Z-matrix:
 Charge =  0 Multiplicity = 1

                         Standard orientation:
 ---------------------------------------------------------------------
 Center     Atomic      Atomic             Coordinates (Angstroms)
 Number     Number       Type             X           Y           Z
 ---------------------------------------------------------------------
      1          7           0       -6.623497   -1.168674    0.191840
      2          6           0       -7.921483   -0.757811    0.761440
      3          6           0       -4.475421   -1.533538   -0.108071
      4          7           0       -5.113734   -2.022971   -1.238437
      5          6           0       -6.382315   -1.783562   -1.012515
      6          1           0       -7.192530   -2.036900   -1.696858
      7          7           0       -2.822153   -0.931193    1.462558
      8          6           0       -3.819700   -0.459821    2.217726
      9          1           0       -3.516969   -0.024179    3.168953
     10          7           0       -5.128889   -0.445838    1.975427
     11          6           0       -5.393034   -1.003919    0.782445
     12          6           0       -3.120628   -1.486658    0.267788
     13          7           0       -2.126231   -1.957760   -0.487472
     14          1           0       -2.300836   -2.377137   -1.379018
     15          1           0       -1.173359   -1.907589   -0.188042
     16          1           0       -8.510095   -1.559590    0.865613
     17          1           0       -7.775168   -0.334548    1.655059
     18          1           0       -8.362410   -0.099800    0.151021
     19          7           0       -3.439402    2.311969   -0.799205
     20          6           0       -2.088768    2.337200   -0.547803
     21          6           0       -4.441951    3.193116   -0.167406
     22          7           0        0.632259    3.684750    1.137993
     23          1           0        1.620955    3.542270    1.175656
     24          1           0        0.254343    4.400900    1.725392
     25          7           0       -1.455679    3.164529    0.311712
     26          6           0       -0.152382    2.949007    0.336157
     27          7           0        0.484182    1.996637   -0.422323
     28          1           0        1.484733    1.902150   -0.339020
     29          6           0       -0.147171    1.134404   -1.313283
     30          8           0        0.520330    0.310028   -1.950128
     31          6           0       -1.547628    1.353984   -1.350472
     32          7           0       -2.538595    0.724168   -2.090885
     33          6           0       -3.641110    1.323979   -1.731860
     34          1           0       -4.632504    1.084120   -2.117698
     35          1           0       -5.110678    2.639030    0.327158
     36          1           0       -3.984648    3.810447    0.471381
     37          1           0       -4.908045    3.728581   -0.870862
     38          1           0        6.371413    1.502163    1.007486
     39          1           0        6.635934    2.454288   -0.451328
     40          1           0        5.157786    2.671333    0.486402
     41          1           0        5.910923   -1.901408   -2.361515
     42          6           0        5.333806   -1.082594   -1.931751
     43          8           0        3.261979   -1.841537   -2.802757
     44          6           0        3.921045   -1.029833   -2.153487
     45          1           0        2.288185    0.117756   -1.700572
     46          7           0        3.286949    0.046333   -1.566079
     47          8           0        3.219131    1.952835   -0.334067
     48          6           0        3.865254    1.038021   -0.813979
     49          1           0        6.997488   -0.124272   -1.004614
     50          6           0        5.926436   -0.129918   -1.202500
     51          6           0        5.892644    1.954337    0.151691
     52          7           0        5.230602    0.917629   -0.644978
     53          1           0        4.490203   -0.410639    4.452669
     54          1           0        3.292964    0.588671    3.972972
     55          1           0        4.824882    0.852880    3.475474
     56          1           0        1.170958   -3.150162   -1.592431
     57          1           0        2.836402   -3.350794   -1.282347
     58          7           0        1.966571   -2.925643   -1.029630
     59          6           0        1.872855   -2.096295    0.011797
     60          6           0        2.706912   -0.876101    1.876521
     61          7           0        1.525816   -0.319742    2.192586
     62          1           0       -0.414595   -0.316678    1.532721
     63          6           0        0.579028   -0.722452    1.347422
     64          7           0        0.670896   -1.553049    0.303753
     65          1           0        5.865596   -1.518681    2.125418
     66          6           0        4.817221   -1.470086    1.829653
     67          7           0        4.298481   -2.117064    0.814752
     68          6           0        2.960900   -1.749286    0.833185
     69          6           0        4.148665    0.150738    3.698882
     70          7           0        3.910782   -0.699835    2.516541
 ---------------------------------------------------------------------

 SCF Done:  E(RwB97XD) =  -2048.74013045     A.U. after   15 cycles

 The electronic state is 1-A.
 Alpha  occ. eigenvalues --  -19.26012 -19.22447 -19.20837 -14.52508 -14.51085
 Alpha  occ. eigenvalues --  -14.49444 -14.48743 -14.47991 -14.47105 -14.46813
 Alpha  occ. eigenvalues --  -14.45254 -14.43993 -14.42471 -14.42288 -14.42246
 Alpha  occ. eigenvalues --  -14.42130 -14.42077 -14.41420 -14.40874 -14.40580
 Alpha  occ. eigenvalues --  -10.45609 -10.41356 -10.40268 -10.38394 -10.37699
 Alpha  occ. eigenvalues --  -10.37395 -10.36558 -10.35775 -10.35701 -10.35488
 Alpha  occ. eigenvalues --  -10.34737 -10.34425 -10.34113 -10.33958 -10.33523
 Alpha  occ. eigenvalues --  -10.33308 -10.33021 -10.31610 -10.30860 -10.30845
 Alpha  occ. eigenvalues --  -10.30710 -10.29102 -10.28191  -1.19576  -1.13775
 Alpha  occ. eigenvalues --   -1.13530  -1.13358  -1.12013  -1.10656  -1.09426
 Alpha  occ. eigenvalues --   -1.08728  -1.07175  -1.05427  -1.02823  -1.02640
 Alpha  occ. eigenvalues --   -1.00804  -0.99893  -0.99404  -0.98649  -0.97528
 Alpha  occ. eigenvalues --   -0.96592  -0.94818  -0.93025  -0.90868  -0.86104
 Alpha  occ. eigenvalues --   -0.84618  -0.84526  -0.84137  -0.83907  -0.82894
 Alpha  occ. eigenvalues --   -0.82449  -0.78863  -0.75295  -0.74677  -0.73776
 Alpha  occ. eigenvalues --   -0.73498  -0.73374  -0.73040  -0.71539  -0.68612
 Alpha  occ. eigenvalues --   -0.67480  -0.66761  -0.66620  -0.64976  -0.64526
 Alpha  occ. eigenvalues --   -0.63831  -0.63161  -0.62749  -0.62413  -0.61826
 Alpha  occ. eigenvalues --   -0.60593  -0.60297  -0.59526  -0.58835  -0.58493
 Alpha  occ. eigenvalues --   -0.58171  -0.57957  -0.57155  -0.56890  -0.56502
 Alpha  occ. eigenvalues --   -0.56094  -0.55650  -0.54668  -0.54476  -0.53940
 Alpha  occ. eigenvalues --   -0.53755  -0.53527  -0.52985  -0.52682  -0.52464
 Alpha  occ. eigenvalues --   -0.52130  -0.52004  -0.51388  -0.51249  -0.50669
 Alpha  occ. eigenvalues --   -0.50338  -0.49662  -0.49525  -0.49125  -0.48948
 Alpha  occ. eigenvalues --   -0.48419  -0.48289  -0.47830  -0.47716  -0.47443
 Alpha  occ. eigenvalues --   -0.47417  -0.45531  -0.45405  -0.43774  -0.42642
 Alpha  occ. eigenvalues --   -0.41662  -0.39598  -0.39209  -0.37675  -0.37402
 Alpha  occ. eigenvalues --   -0.37285  -0.37172  -0.36030  -0.35540  -0.34393
 Alpha  occ. eigenvalues --   -0.34120  -0.33995  -0.33658  -0.33146  -0.32778
 Alpha  occ. eigenvalues --   -0.32561  -0.32257  -0.31973  -0.31490  -0.31369
 Alpha  occ. eigenvalues --   -0.30766  -0.27392  -0.26259  -0.25456
 Alpha virt. eigenvalues --    0.03005   0.05574   0.07457   0.07967   0.08864
 Alpha virt. eigenvalues --    0.09474   0.09666   0.10530   0.10733   0.12430
 Alpha virt. eigenvalues --    0.13463   0.13530   0.14295   0.14710   0.15227

 Mulliken charges:
               1
     1  N   -0.310048
     2  C    0.180440
     3  C    0.035596
     4  N   -0.249958
     5  C    0.124149
     6  H    0.027412
     7  N   -0.286214
     8  C    0.133414
     9  H    0.015715
    10  N   -0.292870
    11  C    0.235557
    12  C    0.100335
    13  N   -0.037058
    14  H    0.110382
    15  H    0.090685
    16  H    0.028013
    17  H    0.035597
    18  H    0.023036
    19  N   -0.307258
    20  C    0.259879
    21  C    0.181255
    22  N   -0.122526
    23  H    0.114888
    24  H    0.118792
    25  N   -0.309681
    26  C    0.246829
    27  N   -0.143720
    28  H    0.118644
    29  C    0.181001
    30  O   -0.327243
    31  C   -0.011886
    32  N   -0.230182
    33  C    0.129697
    34  H    0.026621
    35  H    0.030061
    36  H    0.028754
    37  H    0.022154
    38  H    0.050223
    39  H    0.063093
    40  H    0.075014
    41  H    0.024400
    42  C   -0.054932
    43  O   -0.285351
    44  C    0.165211
    45  H    0.136707
    46  N   -0.125985
    47  O   -0.349404
    48  C    0.348347
    49  H    0.042145
    50  C    0.162537
    51  C    0.040956
    52  N   -0.285083
    53  H    0.031433
    54  H    0.040510
    55  H    0.017221
    56  H    0.118082
    57  H    0.116137
    58  N   -0.011198
    59  C    0.088923
    60  C    0.235961
    61  N   -0.278369
    62  H    0.030129
    63  C    0.159123
    64  N   -0.303950
    65  H    0.024935
    66  C    0.119139
    67  N   -0.249096
    68  C    0.006414
    69  C    0.181640
    70  N   -0.305172
 Sum of Mulliken charges =  -0.00000

 Dipole moment (field-independent basis, Debye):
    X=              5.3977    Y=              5.1374    Z=              4.6629  Tot=              8.7904
 Quadrupole moment (field-independent basis, Debye-Ang):
   XX=           -142.1985   YY=           -228.3343   ZZ=           -251.9639
   XY=              5.5576   XZ=             19.9140   YZ=              7.9414

 Normal termination of Gaussian 16 at Fri Jan 19 04:41:57 2018.
