 Gaussian 16, Revision A.03,
 Gaussian 16:  EM64L-G16RevA.03 25-Dec-2016

 ---------------------------------------
 #p wb97xd/cc-pvdz sp scf=(maxcycles=20)
 ---------------------------------------

 ------------------
 Base pair stacking
 ------------------
 Symbolic Z-matrix:
 Charge =  0 Multiplicity = 1

                         Standard orientation:
 ---------------------------------------------------------------------
 Center     Atomic      Atomic             Coordinates (Angstroms)
 Number     Number       Type             X           Y           Z
 ---------------------------------------------------------------------
      1          7           0        4.844434   -1.182534   -1.603529
      2          6           0        6.140451   -0.557928   -1.932503
      3          6           0        2.694503   -1.549723   -1.320165
      4          7           0        3.343059   -2.705174   -0.908995
      5          6           0        4.612350   -2.437708   -1.096167
      6          1           0        5.429593   -3.126139   -0.879103
      7          7           0        1.025503    0.035684   -1.833844
      8          6           0        2.019016    0.844854   -2.215617
      9          1           0        1.708133    1.823319   -2.579253
     10          7           0        3.332717    0.627858   -2.215642
     11          6           0        3.606846   -0.602301   -1.750906
     12          6           0        1.334055   -1.195424   -1.370963
     13          7           0        0.343705   -2.004606   -0.989390
     14          1           0        0.525733   -2.924532   -0.640367
     15          1           0       -0.613420   -1.719041   -1.039369
     16          1           0        6.608955   -1.104802   -2.626487
     17          1           0        5.986750    0.364894   -2.284505
     18          1           0        6.707535   -0.509074   -1.110302
     19          7           0        5.325741    1.013820    0.917363
     20          6           0        3.975397    1.267019    0.894892
     21          6           0        6.374336    1.929598    0.424913
     22          7           0        1.321608    3.367602    0.115949
     23          1           0        0.324855    3.355547    0.190550
     24          1           0        1.736608    4.183790   -0.286939
     25          7           0        3.384353    2.385948    0.422956
     26          6           0        2.069017    2.336081    0.536974
     27          7           0        1.383020    1.272721    1.071939
     28          1           0        0.376876    1.321466    1.119337
     29          6           0        1.970525    0.111274    1.563614
     30          8           0        1.260154   -0.790019    2.025985
     31          6           0        3.383322    0.150132    1.447882
     32          7           0        4.342656   -0.785427    1.810235
     33          6           0        5.476817   -0.231170    1.477569
     34          1           0        6.456629   -0.688504    1.619296
     35          1           0        6.890382    1.485460   -0.306689
     36          1           0        5.948422    2.762022    0.072865
     37          1           0        6.993000    2.164156    1.173945
     38          1           0       -4.633152    1.909701    0.481888
     39          1           0       -4.583117    2.384543    2.177961
     40          1           0       -3.203814    2.715346    1.129417
     41          1           0       -4.325317   -2.401488    2.595049
     42          6           0       -3.681305   -1.559695    2.340379
     43          8           0       -1.665969   -2.778762    2.622222
     44          6           0       -2.261324   -1.737022    2.348131
     45          1           0       -0.532970   -0.695954    2.005674
     46          7           0       -1.539574   -0.609722    2.011229
     47          8           0       -1.318695    1.565065    1.395836
     48          6           0       -2.039564    0.624821    1.680348
     49          1           0       -5.271635   -0.180708    2.001221
     50          6           0       -4.198776   -0.367484    2.021863
     51          6           0       -3.997738    2.016863    1.348392
     52          7           0       -3.417443    0.716605    1.695298
     53          1           0       -6.351920    2.795264   -2.634250
     54          1           0       -5.001608    3.146753   -1.788539
     55          1           0       -6.445017    3.078121   -1.029645
     56          1           0       -2.992954   -3.469031   -0.503156
     57          1           0       -4.688392   -3.326039   -0.626184
     58          7           0       -3.790735   -2.884736   -0.652446
     59          6           0       -3.664293   -1.575195   -0.876669
     60          6           0       -4.463256    0.623535   -1.311435
     61          7           0       -3.245166    1.189051   -1.341180
     62          1           0       -1.278573    0.650901   -1.132655
     63          6           0       -2.300942    0.275440   -1.125230
     64          7           0       -2.425558   -1.036636   -0.900456
     65          1           0       -7.688781    0.472636   -1.470736
     66          6           0       -6.624462    0.257482   -1.371335
     67          7           0       -6.123312   -0.929748   -1.132555
     68          6           0       -4.753795   -0.711768   -1.092127
     69          6           0       -5.885421    2.680911   -1.757149
     70          7           0       -5.676620    1.244373   -1.491149
 ---------------------------------------------------------------------

 SCF Done:  E(RwB97XD) =  -2048.74403697     A.U. after   15 cycles

 The electronic state is 1-A.
 Alpha  occ. eigenvalues --  -19.25185 -19.21451 -19.20670 -14.52818 -14.51693
 Alpha  occ. eigenvalues --  -14.49239 -14.49001 -14.48260 -14.47133 -14.46712
 Alpha  occ. eigenvalues --  -14.46635 -14.45606 -14.44586 -14.44568 -14.42856
 Alpha  occ. eigenvalues --  -14.41841 -14.41363 -14.41363 -14.41357 -14.40895
 Alpha  occ. eigenvalues --  -10.44772 -10.41098 -10.40189 -10.39514 -10.38287
 Alpha  occ. eigenvalues --  -10.38183 -10.37444 -10.37019 -10.36136 -10.35941
 Alpha  occ. eigenvalues --  -10.34522 -10.34309 -10.34187 -10.34084 -10.33796
 Alpha  occ. eigenvalues --  -10.33703 -10.33560 -10.32922 -10.31570 -10.31444
 Alpha  occ. eigenvalues --  -10.30324 -10.28816 -10.28345  -1.18800  -1.15567
 Alpha  occ. eigenvalues --   -1.13269  -1.12442  -1.11567  -1.10881  -1.09594
 Alpha  occ. eigenvalues --   -1.08637  -1.08500  -1.05573  -1.05068  -1.01812
 Alpha  occ. eigenvalues --   -1.01252  -1.00928  -0.99694  -0.98595  -0.97325
 Alpha  occ. eigenvalues --   -0.97100  -0.96858  -0.93253  -0.90294  -0.87942
 Alpha  occ. eigenvalues --   -0.86246  -0.84635  -0.84119  -0.83096  -0.82822
 Alpha  occ. eigenvalues --   -0.82613  -0.78168  -0.77300  -0.75164  -0.74830
 Alpha  occ. eigenvalues --   -0.73645  -0.73282  -0.72677  -0.71475  -0.70644
 Alpha  occ. eigenvalues --   -0.67465  -0.67047  -0.66715  -0.65893  -0.64482
 Alpha  occ. eigenvalues --   -0.64470  -0.63422  -0.63167  -0.62629  -0.61839
 Alpha  occ. eigenvalues --   -0.61441  -0.60903  -0.60668  -0.59804  -0.58894
 Alpha  occ. eigenvalues --   -0.58751  -0.58605  -0.58316  -0.57013  -0.56025
 Alpha  occ. eigenvalues --   -0.55644  -0.55573  -0.55371  -0.54428  -0.54243
 Alpha  occ. eigenvalues --   -0.54073  -0.53851  -0.53331  -0.53117  -0.53024
 Alpha  occ. eigenvalues --   -0.52958  -0.52176  -0.51591  -0.50838  -0.50512
 Alpha  occ. eigenvalues --   -0.50320  -0.50202  -0.49329  -0.49246  -0.49018
 Alpha  occ. eigenvalues --   -0.48692  -0.48419  -0.48183  -0.47910  -0.47375
 Alpha  occ. eigenvalues --   -0.47132  -0.46046  -0.45216  -0.44929  -0.42758
 Alpha  occ. eigenvalues --   -0.41386  -0.40933  -0.38895  -0.37978  -0.37784
 Alpha  occ. eigenvalues --   -0.37701  -0.37252  -0.37014  -0.35840  -0.34862
 Alpha  occ. eigenvalues --   -0.34522  -0.34206  -0.33858  -0.33674  -0.32992
 Alpha  occ. eigenvalues --   -0.32783  -0.32514  -0.31932  -0.31269  -0.31053
 Alpha  occ. eigenvalues --   -0.30734  -0.30255  -0.26955  -0.24823
 Alpha virt. eigenvalues --    0.03715   0.03808   0.06641   0.07110   0.08332
 Alpha virt. eigenvalues --    0.09160   0.09799   0.10171   0.11139   0.12575
 Alpha virt. eigenvalues --    0.13155   0.13228   0.14092   0.14644   0.14733

 Mulliken charges:
               1
     1  N   -0.296815
     2  C    0.182308
     3  C    0.062495
     4  N   -0.246565
     5  C    0.142819
     6  H    0.025455
     7  N   -0.284094
     8  C    0.126219
     9  H    0.005416
    10  N   -0.271022
    11  C    0.224924
    12  C    0.070251
    13  N   -0.048112
    14  H    0.114177
    15  H    0.085101
    16  H    0.027793
    17  H    0.037271
    18  H    0.008336
    19  N   -0.299223
    20  C    0.244547
    21  C    0.187416
    22  N   -0.114048
    23  H    0.119607
    24  H    0.118941
    25  N   -0.287174
    26  C    0.210192
    27  N   -0.123153
    28  H    0.120666
    29  C    0.175006
    30  O   -0.319731
    31  C   -0.004087
    32  N   -0.211684
    33  C    0.102049
    34  H    0.023175
    35  H    0.000623
    36  H    0.035462
    37  H    0.026738
    38  H    0.032691
    39  H    0.050849
    40  H    0.076451
    41  H    0.020455
    42  C   -0.102974
    43  O   -0.272841
    44  C    0.171955
    45  H    0.128804
    46  N   -0.111424
    47  O   -0.346407
    48  C    0.321605
    49  H    0.044912
    50  C    0.161765
    51  C    0.061357
    52  N   -0.271841
    53  H    0.037468
    54  H    0.042211
    55  H    0.030906
    56  H    0.125604
    57  H    0.118996
    58  N   -0.056962
    59  C    0.103384
    60  C    0.202089
    61  N   -0.263153
    62  H    0.024134
    63  C    0.171606
    64  N   -0.307026
    65  H    0.038355
    66  C    0.134062
    67  N   -0.254407
    68  C    0.045359
    69  C    0.178070
    70  N   -0.307334
 Sum of Mulliken charges =  -0.00000

 Dipole moment (field-independent basis, Debye):
    X=             -5.4742    Y=              7.0107    Z=             -3.5463  Tot=              9.5757
 Quadrupole moment (field-independent basis, Debye-Ang):
   XX=           -147.7071   YY=           -226.9348   ZZ=           -260.5478
   XY=             -7.7374   XZ=             -6.5534   YZ=             10.4628

 Normal termination of Gaussian 16 at Fri Jan 19 09:01:18 2018.
