 Gaussian 16, Revision A.03,
 Gaussian 16:  EM64L-G16RevA.03 25-Dec-2016

 ---------------------------------------
 #p wb97xd/cc-pvdz sp scf=(maxcycles=20)
 ---------------------------------------

 ------------------
 Base pair stacking
 ------------------
 Symbolic Z-matrix:
 Charge =  0 Multiplicity = 1

                         Standard orientation:
 ---------------------------------------------------------------------
 Center     Atomic      Atomic             Coordinates (Angstroms)
 Number     Number       Type             X           Y           Z
 ---------------------------------------------------------------------
      1          7           0       -6.577134   -0.921557    0.474186
      2          6           0       -7.858545   -0.219060    0.680343
      3          6           0       -4.443385   -1.454884    0.473953
      4          7           0       -5.102292   -2.490341   -0.172882
      5          6           0       -6.361431   -2.127587   -0.146855
      6          1           0       -7.182485   -2.707177   -0.569804
      7          7           0       -2.764440   -0.101658    1.429394
      8          6           0       -3.742780    0.749004    1.756217
      9          1           0       -3.421824    1.646524    2.283207
     10          7           0       -5.051904    0.657876    1.530858
     11          6           0       -5.339348   -0.480641    0.878480
     12          6           0       -3.086123   -1.238071    0.773537
     13          7           0       -2.110931   -2.088475    0.446440
     14          1           0       -2.303032   -2.941853   -0.039417
     15          1           0       -1.155594   -1.901638    0.675750
     16          1           0       -8.472397   -0.794350    1.221083
     17          1           0       -7.694580    0.639519    1.165202
     18          1           0       -8.280616   -0.024514   -0.205100
     19          7           0       -3.515936    1.634030   -1.349595
     20          6           0       -2.171649    1.754989   -1.092079
     21          6           0       -4.558281    2.582815   -0.909088
     22          7           0        0.472451    3.495225    0.336926
     23          1           0        1.464468    3.398019    0.412471
     24          1           0        0.060553    4.296042    0.772514
     25          7           0       -1.581860    2.752869   -0.398940
     26          6           0       -0.272831    2.592748   -0.318819
     27          7           0        0.408427    1.536896   -0.874298
     28          1           0        1.409866    1.495872   -0.762976
     29          6           0       -0.177898    0.498851   -1.591621
     30          8           0        0.527852   -0.407197   -2.051769
     31          6           0       -1.583935    0.657042   -1.686144
     32          7           0       -2.540003   -0.137219   -2.304177
     33          6           0       -3.668020    0.480071   -2.078912
     34          1           0       -4.643816    0.135835   -2.423291
     35          1           0       -5.217246    2.109348   -0.325649
     36          1           0       -4.133238    3.326366   -0.394579
     37          1           0       -5.028935    2.957618   -1.707102
     38          1           0        6.281848    1.534647    0.691320
     39          1           0        6.541261    2.200683   -0.919189
     40          1           0        5.039997    2.539087   -0.057183
     41          1           0        5.994979   -2.462002   -1.971586
     42          6           0        5.383487   -1.597584   -1.712590
     43          8           0        3.353935   -2.582082   -2.446635
     44          6           0        3.974006   -1.638602   -1.956579
     45          1           0        2.296264   -0.485038   -1.749753
     46          7           0        3.294239   -0.493748   -1.592608
     47          8           0        3.141285    1.608655   -0.747795
     48          6           0        3.825809    0.642982   -1.036892
     49          1           0        6.997589   -0.421413   -0.966190
     50          6           0        5.931074   -0.502957   -1.171700
     51          6           0        5.804043    1.798288   -0.240476
     52          7           0        5.191084    0.605916   -0.832322
     53          1           0        4.574253    1.843895    3.674540
     54          1           0        3.407934    2.414074    2.686262
     55          1           0        4.945379    2.296229    2.151025
     56          1           0        1.140876   -3.795755    0.287528
     57          1           0        2.800301   -3.827627    0.681724
     58          7           0        1.945858   -3.309688    0.627946
     59          6           0        1.883763   -2.027813    0.994156
     60          6           0        2.765296    0.022777    1.818594
     61          7           0        1.604295    0.693327    1.735631
     62          1           0       -0.337923    0.369486    1.166836
     63          6           0        0.641163   -0.097189    1.266188
     64          7           0        0.701363   -1.381323    0.898839
     65          1           0        5.902555   -0.447740    2.441792
     66          6           0        4.854989   -0.549251    2.156768
     67          7           0        4.310999   -1.649483    1.697150
     68          6           0        2.986148   -1.300541    1.478666
     69          6           0        4.247745    1.873745    2.729818
     70          7           0        3.977098    0.502502    2.256074
 ---------------------------------------------------------------------

 SCF Done:  E(RwB97XD) =  -2048.74740767     A.U. after   15 cycles

 The electronic state is 1-A.
 Alpha  occ. eigenvalues --  -19.25875 -19.21935 -19.20518 -14.52545 -14.51666
 Alpha  occ. eigenvalues --  -14.49914 -14.48327 -14.47785 -14.46814 -14.46569
 Alpha  occ. eigenvalues --  -14.46317 -14.44528 -14.43223 -14.43188 -14.43030
 Alpha  occ. eigenvalues --  -14.42488 -14.42030 -14.41790 -14.41113 -14.40548
 Alpha  occ. eigenvalues --  -10.45498 -10.40907 -10.40000 -10.38786 -10.38016
 Alpha  occ. eigenvalues --  -10.37582 -10.37145 -10.36384 -10.36213 -10.35998
 Alpha  occ. eigenvalues --  -10.35148 -10.34896 -10.34446 -10.34038 -10.34015
 Alpha  occ. eigenvalues --  -10.33556 -10.33059 -10.32010 -10.31570 -10.30877
 Alpha  occ. eigenvalues --  -10.29722 -10.29628 -10.27823  -1.19513  -1.14324
 Alpha  occ. eigenvalues --   -1.13033  -1.12940  -1.12480  -1.10307  -1.09397
 Alpha  occ. eigenvalues --   -1.08336  -1.08125  -1.06002  -1.03666  -1.02498
 Alpha  occ. eigenvalues --   -1.01451  -1.00087  -0.99444  -0.98294  -0.98015
 Alpha  occ. eigenvalues --   -0.96158  -0.95748  -0.93648  -0.90960  -0.86835
 Alpha  occ. eigenvalues --   -0.85311  -0.85014  -0.84062  -0.83701  -0.83349
 Alpha  occ. eigenvalues --   -0.81836  -0.78848  -0.76103  -0.74323  -0.73899
 Alpha  occ. eigenvalues --   -0.73864  -0.73450  -0.73295  -0.72086  -0.69482
 Alpha  occ. eigenvalues --   -0.67311  -0.67102  -0.66524  -0.65805  -0.64464
 Alpha  occ. eigenvalues --   -0.63752  -0.63463  -0.63282  -0.62479  -0.61451
 Alpha  occ. eigenvalues --   -0.61327  -0.61127  -0.59745  -0.59459  -0.58778
 Alpha  occ. eigenvalues --   -0.58072  -0.57764  -0.57707  -0.57463  -0.56414
 Alpha  occ. eigenvalues --   -0.56188  -0.55906  -0.55206  -0.54576  -0.54336
 Alpha  occ. eigenvalues --   -0.53899  -0.53323  -0.52989  -0.52882  -0.52529
 Alpha  occ. eigenvalues --   -0.52389  -0.52056  -0.51893  -0.51489  -0.51147
 Alpha  occ. eigenvalues --   -0.50044  -0.49836  -0.49412  -0.48964  -0.48719
 Alpha  occ. eigenvalues --   -0.48521  -0.48198  -0.47980  -0.47889  -0.47522
 Alpha  occ. eigenvalues --   -0.47244  -0.45788  -0.45317  -0.44152  -0.43284
 Alpha  occ. eigenvalues --   -0.41981  -0.39912  -0.39452  -0.38239  -0.37140
 Alpha  occ. eigenvalues --   -0.37038  -0.36987  -0.36642  -0.35672  -0.34645
 Alpha  occ. eigenvalues --   -0.34485  -0.33997  -0.33635  -0.33346  -0.33105
 Alpha  occ. eigenvalues --   -0.32528  -0.32032  -0.31858  -0.31704  -0.31630
 Alpha  occ. eigenvalues --   -0.31356  -0.28676  -0.26811  -0.25113
 Alpha virt. eigenvalues --    0.02983   0.05041   0.06875   0.07947   0.08675
 Alpha virt. eigenvalues --    0.09210   0.09762   0.10125   0.11063   0.11825
 Alpha virt. eigenvalues --    0.13022   0.13073   0.14595   0.14712   0.15007

 Mulliken charges:
               1
     1  N   -0.310667
     2  C    0.179096
     3  C    0.051325
     4  N   -0.251647
     5  C    0.128041
     6  H    0.029530
     7  N   -0.273463
     8  C    0.130236
     9  H    0.017896
    10  N   -0.292860
    11  C    0.233623
    12  C    0.094922
    13  N   -0.040473
    14  H    0.109111
    15  H    0.089101
    16  H    0.029763
    17  H    0.036309
    18  H    0.025184
    19  N   -0.294635
    20  C    0.247340
    21  C    0.184118
    22  N   -0.108044
    23  H    0.112849
    24  H    0.115077
    25  N   -0.297952
    26  C    0.219164
    27  N   -0.135689
    28  H    0.126983
    29  C    0.153994
    30  O   -0.324379
    31  C    0.003349
    32  N   -0.225313
    33  C    0.121025
    34  H    0.023115
    35  H    0.018016
    36  H    0.026058
    37  H    0.018406
    38  H    0.043563
    39  H    0.065595
    40  H    0.080487
    41  H    0.028833
    42  C   -0.085047
    43  O   -0.269022
    44  C    0.174862
    45  H    0.134103
    46  N   -0.124308
    47  O   -0.342158
    48  C    0.336089
    49  H    0.043121
    50  C    0.165485
    51  C    0.036951
    52  N   -0.277783
    53  H    0.032730
    54  H    0.036583
    55  H   -0.001933
    56  H    0.120275
    57  H    0.120219
    58  N   -0.055322
    59  C    0.122537
    60  C    0.218423
    61  N   -0.278171
    62  H    0.032453
    63  C    0.165884
    64  N   -0.305302
    65  H    0.030787
    66  C    0.114099
    67  N   -0.245393
    68  C    0.018144
    69  C    0.188270
    70  N   -0.293564
 Sum of Mulliken charges =  -0.00000

 Dipole moment (field-independent basis, Debye):
    X=              4.7861    Y=              5.5119    Z=              4.6707  Tot=              8.6662
 Quadrupole moment (field-independent basis, Debye-Ang):
   XX=           -142.1954   YY=           -225.8680   ZZ=           -260.0702
   XY=             14.8200   XZ=             15.5928   YZ=             -3.3858

 Normal termination of Gaussian 16 at Fri Jan 19 08:48:58 2018.
