 Gaussian 16, Revision A.03,
 Gaussian 16:  EM64L-G16RevA.03 25-Dec-2016

 ---------------------------------------
 #p wb97xd/cc-pvdz sp scf=(maxcycles=20)
 ---------------------------------------

 ------------------
 Base pair stacking
 ------------------
 Symbolic Z-matrix:
 Charge =  0 Multiplicity = 1

                         Standard orientation:
 ---------------------------------------------------------------------
 Center     Atomic      Atomic             Coordinates (Angstroms)
 Number     Number       Type             X           Y           Z
 ---------------------------------------------------------------------
      1          7           0       -5.751499   -1.603618    0.574465
      2          6           0       -7.049336   -1.218319    1.161968
      3          6           0       -3.598058   -1.858649    0.207115
      4          7           0       -4.248606   -2.508857   -0.831516
      5          6           0       -5.519940   -2.329186   -0.568621
      6          1           0       -6.339128   -2.707745   -1.180640
      7          7           0       -1.924943   -0.982485    1.619907
      8          6           0       -2.919605   -0.497396    2.370186
      9          1           0       -2.607462    0.058112    3.253489
     10          7           0       -4.235784   -0.595032    2.193977
     11          6           0       -4.511316   -1.295838    1.081604
     12          6           0       -2.234953   -1.683120    0.507222
     13          7           0       -1.243451   -2.168154   -0.243007
     14          1           0       -1.426476   -2.692689   -1.075223
     15          1           0       -0.284421   -2.023818    0.001071
     16          1           0       -7.575338   -2.040508    1.379948
     17          1           0       -6.894698   -0.691530    1.997257
     18          1           0       -7.561138   -0.660851    0.508296
     19          7           0       -4.414265    1.885600   -0.659816
     20          6           0       -3.060897    2.017859   -0.462484
     21          6           0       -5.460098    2.631451    0.068642
     22          7           0       -0.393797    3.500531    1.195816
     23          1           0        0.604291    3.446391    1.183786
     24          1           0       -0.805620    4.141840    1.843767
     25          7           0       -2.463904    2.844732    0.422904
     26          6           0       -1.146970    2.747378    0.380106
     27          7           0       -0.464919    1.905304   -0.464419
     28          1           0        0.542847    1.897120   -0.428287
     29          6           0       -1.058571    1.045827   -1.383516
     30          8           0       -0.351353    0.326274   -2.099646
     31          6           0       -2.473134    1.139174   -1.349202
     32          7           0       -3.438089    0.468776   -2.088340
     33          6           0       -4.571282    0.942721   -1.646208
     34          1           0       -5.554540    0.638045   -2.006253
     35          1           0       -6.053778    1.989504    0.552645
     36          1           0       -5.029774    3.247226    0.727359
     37          1           0       -6.003662    3.164692   -0.578665
     38          1           0        5.502976    1.860413    0.689098
     39          1           0        5.614656    2.920671   -0.713760
     40          1           0        4.168255    2.944394    0.295562
     41          1           0        5.188072   -1.356878   -2.874116
     42          6           0        4.561680   -0.621892   -2.368493
     43          8           0        2.526532   -1.510763   -3.202301
     44          6           0        3.141000   -0.684101   -2.528598
     45          1           0        1.436231    0.280357   -1.935385
     46          7           0        2.442567    0.291781   -1.846635
     47          8           0        2.264410    2.104706   -0.490626
     48          6           0        2.965594    1.283669   -1.055335
     49          1           0        6.175760    0.424610   -1.449051
     50          6           0        5.101338    0.333918   -1.603123
     51          6           0        4.947050    2.319085   -0.115042
     52          7           0        4.342601    1.277596   -0.950305
     53          1           0        5.454944    0.335077    4.166191
     54          1           0        4.171131    1.196196    3.644278
     55          1           0        5.657937    1.503574    3.045109
     56          1           0        2.078510   -3.257127   -1.380089
     57          1           0        3.765720   -3.314103   -1.134740
     58          7           0        2.879935   -2.921369   -0.884992
     59          6           0        2.773298   -1.991260    0.066165
     60          6           0        3.599371   -0.523399    1.746860
     61          7           0        2.396921   -0.013825    2.061300
     62          1           0        0.434453   -0.208832    1.503336
     63          6           0        1.445145   -0.566963    1.312260
     64          7           0        1.549933   -1.498673    0.359101
     65          1           0        6.803076   -0.928387    1.903066
     66          6           0        5.742110   -0.980555    1.656964
     67          7           0        5.226743   -1.766675    0.743683
     68          6           0        3.868730   -1.486787    0.790380
     69          6           0        5.042795    0.787533    3.375362
     70          7           0        4.814377   -0.200546    2.303200
 ---------------------------------------------------------------------

 SCF Done:  E(RwB97XD) =  -2048.74828655     A.U. after   15 cycles

 The electronic state is 1-A.
 Alpha  occ. eigenvalues --  -19.25667 -19.21674 -19.20703 -14.52367 -14.52074
 Alpha  occ. eigenvalues --  -14.49133 -14.48851 -14.47655 -14.46965 -14.46781
 Alpha  occ. eigenvalues --  -14.46702 -14.44953 -14.43679 -14.43511 -14.42416
 Alpha  occ. eigenvalues --  -14.42036 -14.41555 -14.41227 -14.40900 -14.40527
 Alpha  occ. eigenvalues --  -10.45294 -10.41273 -10.39939 -10.39032 -10.38323
 Alpha  occ. eigenvalues --  -10.37557 -10.37445 -10.36693 -10.35690 -10.35408
 Alpha  occ. eigenvalues --  -10.35219 -10.34406 -10.34288 -10.33801 -10.33674
 Alpha  occ. eigenvalues --  -10.33393 -10.33377 -10.32018 -10.31584 -10.30953
 Alpha  occ. eigenvalues --  -10.30629 -10.28769 -10.28162  -1.19276  -1.14765
 Alpha  occ. eigenvalues --   -1.13255  -1.12924  -1.11650  -1.10646  -1.09182
 Alpha  occ. eigenvalues --   -1.08616  -1.08470  -1.05306  -1.03975  -1.02373
 Alpha  occ. eigenvalues --   -1.00679  -1.00455  -0.99779  -0.98573  -0.97249
 Alpha  occ. eigenvalues --   -0.96628  -0.96078  -0.92951  -0.90750  -0.87146
 Alpha  occ. eigenvalues --   -0.85545  -0.84303  -0.84151  -0.83677  -0.82726
 Alpha  occ. eigenvalues --   -0.82533  -0.78660  -0.76395  -0.74684  -0.74196
 Alpha  occ. eigenvalues --   -0.73666  -0.73198  -0.73185  -0.71328  -0.69730
 Alpha  occ. eigenvalues --   -0.67426  -0.66589  -0.66356  -0.66089  -0.64409
 Alpha  occ. eigenvalues --   -0.63775  -0.63530  -0.62967  -0.62662  -0.61797
 Alpha  occ. eigenvalues --   -0.61038  -0.60547  -0.59852  -0.59284  -0.58892
 Alpha  occ. eigenvalues --   -0.58449  -0.58404  -0.57380  -0.56844  -0.56276
 Alpha  occ. eigenvalues --   -0.55862  -0.55663  -0.55011  -0.54818  -0.54249
 Alpha  occ. eigenvalues --   -0.53708  -0.53604  -0.53138  -0.52982  -0.52546
 Alpha  occ. eigenvalues --   -0.52384  -0.52285  -0.52156  -0.51150  -0.50556
 Alpha  occ. eigenvalues --   -0.50210  -0.49690  -0.49545  -0.49305  -0.49032
 Alpha  occ. eigenvalues --   -0.48823  -0.48388  -0.47859  -0.47555  -0.47409
 Alpha  occ. eigenvalues --   -0.47234  -0.46019  -0.45123  -0.43869  -0.43133
 Alpha  occ. eigenvalues --   -0.41385  -0.40161  -0.39294  -0.37524  -0.37396
 Alpha  occ. eigenvalues --   -0.37259  -0.37190  -0.36907  -0.35985  -0.34395
 Alpha  occ. eigenvalues --   -0.34147  -0.33834  -0.33570  -0.33518  -0.33096
 Alpha  occ. eigenvalues --   -0.32666  -0.32328  -0.31911  -0.31575  -0.31186
 Alpha  occ. eigenvalues --   -0.30686  -0.28932  -0.26167  -0.25371
 Alpha virt. eigenvalues --    0.03349   0.04513   0.07526   0.07690   0.08431
 Alpha virt. eigenvalues --    0.09117   0.09695   0.10650   0.10807   0.11982
 Alpha virt. eigenvalues --    0.13232   0.13522   0.14017   0.14399   0.14891

 Mulliken charges:
               1
     1  N   -0.307633
     2  C    0.178335
     3  C    0.054795
     4  N   -0.241019
     5  C    0.120963
     6  H    0.025224
     7  N   -0.291617
     8  C    0.137164
     9  H    0.012145
    10  N   -0.289980
    11  C    0.231481
    12  C    0.090018
    13  N   -0.041965
    14  H    0.113373
    15  H    0.088979
    16  H    0.028830
    17  H    0.035604
    18  H    0.019964
    19  N   -0.302217
    20  C    0.257190
    21  C    0.183806
    22  N   -0.122711
    23  H    0.117491
    24  H    0.118544
    25  N   -0.309479
    26  C    0.244566
    27  N   -0.146197
    28  H    0.119338
    29  C    0.189166
    30  O   -0.326534
    31  C   -0.022721
    32  N   -0.214535
    33  C    0.124730
    34  H    0.018567
    35  H    0.021329
    36  H    0.031326
    37  H    0.022785
    38  H    0.041736
    39  H    0.061860
    40  H    0.076984
    41  H    0.022372
    42  C   -0.090556
    43  O   -0.279917
    44  C    0.149504
    45  H    0.133009
    46  N   -0.107926
    47  O   -0.345624
    48  C    0.339385
    49  H    0.042289
    50  C    0.178398
    51  C    0.045244
    52  N   -0.277126
    53  H    0.034469
    54  H    0.042367
    55  H    0.018090
    56  H    0.126605
    57  H    0.115561
    58  N   -0.032062
    59  C    0.074245
    60  C    0.231854
    61  N   -0.267585
    62  H    0.029320
    63  C    0.158474
    64  N   -0.296936
    65  H    0.033096
    66  C    0.114122
    67  N   -0.249325
    68  C    0.032510
    69  C    0.180686
    70  N   -0.304227
 Sum of Mulliken charges =  -0.00000

 Dipole moment (field-independent basis, Debye):
    X=              5.3093    Y=              5.1293    Z=              5.4555  Tot=              9.1793
 Quadrupole moment (field-independent basis, Debye-Ang):
   XX=           -145.5501   YY=           -226.4773   ZZ=           -257.5014
   XY=              8.4590   XZ=              9.8708   YZ=              8.1425

 Normal termination of Gaussian 16 at Thu Jan 18 17:33:26 2018.
