 Gaussian 16, Revision A.03,
 Gaussian 16:  EM64L-G16RevA.03 25-Dec-2016

 ---------------------------------------
 #p wb97xd/cc-pvdz sp scf=(maxcycles=20)
 ---------------------------------------

 ------------------
 Base pair stacking
 ------------------
 Symbolic Z-matrix:
 Charge =  0 Multiplicity = 1

                         Standard orientation:
 ---------------------------------------------------------------------
 Center     Atomic      Atomic             Coordinates (Angstroms)
 Number     Number       Type             X           Y           Z
 ---------------------------------------------------------------------
      1          7           0        5.443079   -0.944546   -1.223355
      2          6           0        6.740294   -0.244626   -1.296538
      3          6           0        3.290511   -1.395833   -1.213905
      4          7           0        3.941078   -2.603211   -1.004834
      5          6           0        5.211890   -2.283003   -1.018887
      6          1           0        6.030936   -2.990023   -0.883896
      7          7           0        1.617646    0.238493   -1.519638
      8          6           0        2.611757    1.125573   -1.631030
      9          1           0        2.299494    2.154849   -1.802316
     10          7           0        3.927501    0.933006   -1.562926
     11          6           0        4.203213   -0.364392   -1.350403
     12          6           0        1.927816   -1.058924   -1.306115
     13          7           0        0.936870   -1.945925   -1.194642
     14          1           0        1.120042   -2.916796   -1.036273
     15          1           0       -0.021872   -1.670378   -1.265600
     16          1           0        7.282017   -0.621531   -2.047979
     17          1           0        6.585488    0.730123   -1.454705
     18          1           0        7.236095   -0.366435   -0.436693
     19          7           0        4.740658    1.007671    1.135890
     20          6           0        3.388961    1.227625    1.023685
     21          6           0        5.796978    1.927436    0.668011
     22          7           0        0.742169    3.231417    0.003384
     23          1           0       -0.256788    3.198737    0.019816
     24          1           0        1.162948    4.040285   -0.408185
     25          7           0        2.803398    2.312222    0.471585
     26          6           0        1.484960    2.235789    0.510226
     27          7           0        0.791115    1.178936    1.047953
     28          1           0       -0.216885    1.205661    1.034150
     29          6           0        1.372885    0.052580    1.621298
     30          8           0        0.655588   -0.845904    2.078413
     31          6           0        2.788920    0.120261    1.587129
     32          7           0        3.744669   -0.776857    2.043883
     33          6           0        4.884577   -0.209725    1.755486
     34          1           0        5.863721   -0.637576    1.973414
     35          1           0        6.365062    1.466464   -0.012876
     36          1           0        5.375166    2.734601    0.257138
     37          1           0        6.364771    2.206682    1.441607
     38          1           0       -5.191411    1.648551    0.079879
     39          1           0       -5.252667    2.192608    1.754665
     40          1           0       -3.820685    2.513403    0.775947
     41          1           0       -4.918258   -2.565194    2.385579
     42          6           0       -4.278302   -1.719329    2.134212
     43          8           0       -2.257831   -2.877829    2.584453
     44          6           0       -2.857854   -1.862446    2.232655
     45          1           0       -1.134740   -0.795328    1.949027
     46          7           0       -2.141494   -0.732861    1.891916
     47          8           0       -1.930715    1.419913    1.200298
     48          6           0       -2.647063    0.475082    1.481022
     49          1           0       -5.874612   -0.393321    1.645067
     50          6           0       -4.801154   -0.553586    1.736389
     51          6           0       -4.611182    1.805695    0.976931
     52          7           0       -4.025022    0.534665    1.411272
     53          1           0       -5.756653    2.997337   -2.350801
     54          1           0       -4.492654    3.177373   -1.334930
     55          1           0       -5.990384    2.925059   -0.737241
     56          1           0       -2.378060   -3.529623   -1.326417
     57          1           0       -4.061506   -3.388298   -1.563397
     58          7           0       -3.179837   -2.938641   -1.416092
     59          6           0       -3.078900   -1.609888   -1.342664
     60          6           0       -3.911926    0.618855   -1.364322
     61          7           0       -2.714920    1.195239   -1.165843
     62          1           0       -0.755303    0.653629   -0.906684
     63          6           0       -1.761825    0.270497   -1.069083
     64          7           0       -1.860915   -1.060820   -1.142357
     65          1           0       -7.106739    0.458678   -1.833036
     66          6           0       -6.047614    0.242754   -1.689565
     67          7           0       -5.528669   -0.960531   -1.667873
     68          6           0       -4.175063   -0.736380   -1.462362
     69          6           0       -5.360142    2.702855   -1.481285
     70          7           0       -5.126366    1.246002   -1.512022
 ---------------------------------------------------------------------

 SCF Done:  E(RwB97XD) =  -2048.65769297     A.U. after   15 cycles

 The electronic state is 1-A.
 Alpha  occ. eigenvalues --  -19.24856 -19.21340 -19.20626 -14.52844 -14.51674
 Alpha  occ. eigenvalues --  -14.49259 -14.48758 -14.48181 -14.47208 -14.46847
 Alpha  occ. eigenvalues --  -14.46567 -14.45825 -14.44681 -14.44389 -14.43168
 Alpha  occ. eigenvalues --  -14.41772 -14.41710 -14.41023 -14.40874 -14.40752
 Alpha  occ. eigenvalues --  -10.44547 -10.41013 -10.40110 -10.39455 -10.38386
 Alpha  occ. eigenvalues --  -10.38222 -10.37472 -10.37047 -10.36204 -10.36142
 Alpha  occ. eigenvalues --  -10.34746 -10.34351 -10.34248 -10.33768 -10.33589
 Alpha  occ. eigenvalues --  -10.33581 -10.32935 -10.32881 -10.32036 -10.30453
 Alpha  occ. eigenvalues --  -10.30436 -10.28777 -10.28238  -1.18920  -1.16140
 Alpha  occ. eigenvalues --   -1.13313  -1.12382  -1.11848  -1.10585  -1.09632
 Alpha  occ. eigenvalues --   -1.08726  -1.08573  -1.05719  -1.05096  -1.02068
 Alpha  occ. eigenvalues --   -1.01696  -1.01209  -0.99790  -0.98521  -0.97688
 Alpha  occ. eigenvalues --   -0.97199  -0.96573  -0.93411  -0.90336  -0.88294
 Alpha  occ. eigenvalues --   -0.86860  -0.85028  -0.83992  -0.83444  -0.82937
 Alpha  occ. eigenvalues --   -0.82159  -0.78242  -0.77469  -0.75315  -0.74666
 Alpha  occ. eigenvalues --   -0.73805  -0.73442  -0.72812  -0.71714  -0.70921
 Alpha  occ. eigenvalues --   -0.67579  -0.67259  -0.66939  -0.66409  -0.64922
 Alpha  occ. eigenvalues --   -0.64549  -0.64196  -0.63426  -0.62758  -0.62590
 Alpha  occ. eigenvalues --   -0.61838  -0.61359  -0.60926  -0.60037  -0.59244
 Alpha  occ. eigenvalues --   -0.59152  -0.58521  -0.58286  -0.57329  -0.56809
 Alpha  occ. eigenvalues --   -0.56141  -0.55740  -0.55431  -0.54782  -0.54239
 Alpha  occ. eigenvalues --   -0.53934  -0.53856  -0.53383  -0.53338  -0.52892
 Alpha  occ. eigenvalues --   -0.52177  -0.52060  -0.51257  -0.51177  -0.50757
 Alpha  occ. eigenvalues --   -0.50296  -0.49742  -0.49496  -0.49122  -0.48858
 Alpha  occ. eigenvalues --   -0.48486  -0.48089  -0.48034  -0.47890  -0.47011
 Alpha  occ. eigenvalues --   -0.46879  -0.46041  -0.45145  -0.44689  -0.42647
 Alpha  occ. eigenvalues --   -0.41472  -0.41219  -0.38887  -0.37835  -0.37701
 Alpha  occ. eigenvalues --   -0.37526  -0.37101  -0.36361  -0.36073  -0.35101
 Alpha  occ. eigenvalues --   -0.34884  -0.34538  -0.34027  -0.33477  -0.32871
 Alpha  occ. eigenvalues --   -0.32412  -0.31913  -0.31718  -0.31431  -0.31055
 Alpha  occ. eigenvalues --   -0.30736  -0.29617  -0.26877  -0.24662
 Alpha virt. eigenvalues --    0.02978   0.04185   0.06736   0.07384   0.08453
 Alpha virt. eigenvalues --    0.09012   0.09673   0.09890   0.11076   0.12788
 Alpha virt. eigenvalues --    0.13082   0.13439   0.13983   0.14534   0.14791

 Mulliken charges:
               1
     1  N   -0.301152
     2  C    0.194197
     3  C    0.084663
     4  N   -0.250409
     5  C    0.127382
     6  H    0.024367
     7  N   -0.276932
     8  C    0.139044
     9  H   -0.000048
    10  N   -0.277340
    11  C    0.207043
    12  C    0.068079
    13  N   -0.046789
    14  H    0.109947
    15  H    0.084991
    16  H    0.024103
    17  H    0.048941
    18  H    0.014755
    19  N   -0.274643
    20  C    0.206055
    21  C    0.213041
    22  N   -0.099838
    23  H    0.119312
    24  H    0.119179
    25  N   -0.269546
    26  C    0.184118
    27  N   -0.106417
    28  H    0.114921
    29  C    0.164097
    30  O   -0.319905
    31  C    0.019525
    32  N   -0.213622
    33  C    0.109257
    34  H    0.018029
    35  H   -0.043570
    36  H    0.034325
    37  H    0.022268
    38  H    0.068689
    39  H    0.044250
    40  H    0.074729
    41  H    0.025681
    42  C   -0.101697
    43  O   -0.268399
    44  C    0.170267
    45  H    0.128848
    46  N   -0.110323
    47  O   -0.332216
    48  C    0.320890
    49  H    0.043042
    50  C    0.167559
    51  C    0.023445
    52  N   -0.268413
    53  H    0.030963
    54  H    0.043252
    55  H    0.022721
    56  H    0.123067
    57  H    0.120725
    58  N   -0.062393
    59  C    0.105841
    60  C    0.168353
    61  N   -0.246636
    62  H    0.005435
    63  C    0.170907
    64  N   -0.294715
    65  H    0.036974
    66  C    0.117848
    67  N   -0.246972
    68  C    0.061080
    69  C    0.188027
    70  N   -0.302258
 Sum of Mulliken charges =  -0.00000

 Dipole moment (field-independent basis, Debye):
    X=             -5.1862    Y=              6.7603    Z=             -4.6169  Tot=              9.6909
 Quadrupole moment (field-independent basis, Debye-Ang):
   XX=           -148.5403   YY=           -228.6705   ZZ=           -262.7521
   XY=             -9.8983   XZ=              0.7286   YZ=             12.5744

 Normal termination of Gaussian 16 at Fri Jan 19 03:02:32 2018.
