 Gaussian 16, Revision A.03,
 Gaussian 16:  EM64L-G16RevA.03 25-Dec-2016

 ---------------------------------------
 #p wb97xd/cc-pvdz sp scf=(maxcycles=20)
 ---------------------------------------

 ------------------
 Base pair stacking
 ------------------
 Symbolic Z-matrix:
 Charge =  0 Multiplicity = 1

                         Standard orientation:
 ---------------------------------------------------------------------
 Center     Atomic      Atomic             Coordinates (Angstroms)
 Number     Number       Type             X           Y           Z
 ---------------------------------------------------------------------
      1          7           0        6.305794   -1.036282   -0.613340
      2          6           0        7.593802   -0.361154   -0.864847
      3          6           0        4.164199   -1.533766   -0.555046
      4          7           0        4.819617   -2.561955    0.106756
      5          6           0        6.083622   -2.221083    0.045153
      6          1           0        6.903831   -2.802481    0.467262
      7          7           0        2.487809   -0.179415   -1.513398
      8          6           0        3.472737    0.645540   -1.883457
      9          1           0        3.155418    1.533512   -2.428514
     10          7           0        4.784615    0.538811   -1.682258
     11          6           0        5.067150   -0.586033   -1.004530
     12          6           0        2.804684   -1.302647   -0.832936
     13          7           0        1.822912   -2.127384   -0.462667
     14          1           0        2.011280   -2.970222    0.042664
     15          1           0        0.866162   -1.931014   -0.677647
     16          1           0        8.186967   -0.961199   -1.401775
     17          1           0        7.433667    0.486429   -1.369911
     18          1           0        8.037221   -0.149492    0.006108
     19          7           0        3.819853    1.603936    1.264587
     20          6           0        2.472640    1.740178    1.031141
     21          6           0        4.867987    2.522783    0.776893
     22          7           0       -0.172158    3.484456   -0.391651
     23          1           0       -1.166963    3.401764   -0.444321
     24          1           0        0.243462    4.266063   -0.857543
     25          7           0        1.884751    2.728389    0.322703
     26          6           0        0.571939    2.587992    0.273623
     27          7           0       -0.114577    1.559247    0.871865
     28          1           0       -1.118637    1.531880    0.782064
     29          6           0        0.469704    0.531613    1.605656
     30          8           0       -0.240852   -0.349599    2.104973
     31          6           0        1.879764    0.668875    1.667218
     32          7           0        2.835535   -0.123976    2.287526
     33          6           0        3.968424    0.468015    2.022388
     34          1           0        4.945480    0.117129    2.356326
     35          1           0        5.506999    2.022601    0.193556
     36          1           0        4.444392    3.258951    0.250685
     37          1           0        5.361058    2.911417    1.554491
     38          1           0       -6.018474    1.612015   -0.573633
     39          1           0       -6.233674    2.326144    1.022724
     40          1           0       -4.745355    2.615742    0.121385
     41          1           0       -5.740847   -2.314413    2.192711
     42          6           0       -5.121016   -1.467727    1.897494
     43          8           0       -3.092797   -2.465441    2.617239
     44          6           0       -3.707622   -1.525535    2.113887
     45          1           0       -2.016171   -0.406191    1.841172
     46          7           0       -3.017199   -0.402574    1.704610
     47          8           0       -2.847957    1.673050    0.798884
     48          6           0       -3.541804    0.727211    1.128468
     49          1           0       -6.731096   -0.285704    1.151672
     50          6           0       -5.661999   -0.379360    1.337681
     51          6           0       -5.517266    1.893082    0.340611
     52          7           0       -4.911448    0.707318    0.952739
     53          1           0       -4.863575    1.825954   -3.662309
     54          1           0       -3.667984    2.403478   -2.714075
     55          1           0       -5.195697    2.325978   -2.144709
     56          1           0       -1.451972   -3.775234   -0.190554
     57          1           0       -3.119513   -3.790222   -0.549966
     58          7           0       -2.255906   -3.285326   -0.527909
     59          6           0       -2.180781   -2.015184   -0.930718
     60          6           0       -3.046088    0.026475   -1.793648
     61          7           0       -1.872964    0.679587   -1.752881
     62          1           0        0.075163    0.339119   -1.214837
     63          6           0       -0.913163   -0.113709   -1.281336
     64          7           0       -0.986412   -1.386127   -0.877366
     65          1           0       -6.202764   -0.408583   -2.339804
     66          6           0       -5.151280   -0.519703   -2.073376
     67          7           0       -4.615675   -1.615849   -1.594554
     68          6           0       -3.281121   -1.283183   -1.412748
     69          6           0       -4.517109    1.876227   -2.725596
     70          7           0       -4.258824    0.514152   -2.219596
 ---------------------------------------------------------------------

 SCF Done:  E(RwB97XD) =  -2048.74836371     A.U. after   15 cycles

 The electronic state is 1-A.
 Alpha  occ. eigenvalues --  -19.25629 -19.21814 -19.20536 -14.52402 -14.51972
 Alpha  occ. eigenvalues --  -14.49781 -14.48414 -14.47613 -14.47085 -14.46676
 Alpha  occ. eigenvalues --  -14.46376 -14.44855 -14.43570 -14.43453 -14.42980
 Alpha  occ. eigenvalues --  -14.42294 -14.41813 -14.41778 -14.40980 -14.40559
 Alpha  occ. eigenvalues --  -10.45301 -10.40977 -10.39884 -10.39085 -10.38052
 Alpha  occ. eigenvalues --  -10.37488 -10.37405 -10.36529 -10.36251 -10.35760
 Alpha  occ. eigenvalues --  -10.35075 -10.34972 -10.34258 -10.34032 -10.33829
 Alpha  occ. eigenvalues --  -10.33730 -10.33083 -10.31989 -10.31935 -10.30699
 Alpha  occ. eigenvalues --  -10.29998 -10.29418 -10.27814  -1.19318  -1.14640
 Alpha  occ. eigenvalues --   -1.13043  -1.12817  -1.12314  -1.10335  -1.09246
 Alpha  occ. eigenvalues --   -1.08405  -1.08366  -1.05848  -1.03944  -1.02355
 Alpha  occ. eigenvalues --   -1.01297  -1.00393  -0.99487  -0.98316  -0.97878
 Alpha  occ. eigenvalues --   -0.96217  -0.96026  -0.93500  -0.90813  -0.87135
 Alpha  occ. eigenvalues --   -0.85575  -0.84870  -0.83907  -0.83733  -0.83238
 Alpha  occ. eigenvalues --   -0.81955  -0.78705  -0.76370  -0.74396  -0.74123
 Alpha  occ. eigenvalues --   -0.73754  -0.73422  -0.73206  -0.71910  -0.69754
 Alpha  occ. eigenvalues --   -0.67185  -0.67113  -0.66406  -0.66063  -0.64376
 Alpha  occ. eigenvalues --   -0.63712  -0.63527  -0.63424  -0.62472  -0.61664
 Alpha  occ. eigenvalues --   -0.61489  -0.61037  -0.59965  -0.59341  -0.58991
 Alpha  occ. eigenvalues --   -0.58121  -0.57738  -0.57652  -0.57370  -0.56350
 Alpha  occ. eigenvalues --   -0.56093  -0.55792  -0.55259  -0.54789  -0.54226
 Alpha  occ. eigenvalues --   -0.53843  -0.53332  -0.52995  -0.52807  -0.52549
 Alpha  occ. eigenvalues --   -0.52488  -0.52175  -0.51918  -0.51451  -0.51042
 Alpha  occ. eigenvalues --   -0.49959  -0.49836  -0.49321  -0.49158  -0.48946
 Alpha  occ. eigenvalues --   -0.48498  -0.48351  -0.48030  -0.47776  -0.47370
 Alpha  occ. eigenvalues --   -0.47226  -0.45748  -0.45347  -0.44149  -0.43154
 Alpha  occ. eigenvalues --   -0.41958  -0.40109  -0.39280  -0.38031  -0.37211
 Alpha  occ. eigenvalues --   -0.37130  -0.37028  -0.36935  -0.35825  -0.34490
 Alpha  occ. eigenvalues --   -0.34364  -0.34051  -0.33730  -0.33596  -0.33015
 Alpha  occ. eigenvalues --   -0.32504  -0.32100  -0.31667  -0.31622  -0.31552
 Alpha  occ. eigenvalues --   -0.31230  -0.29004  -0.26658  -0.25155
 Alpha virt. eigenvalues --    0.03042   0.04857   0.07039   0.07515   0.08755
 Alpha virt. eigenvalues --    0.08988   0.09942   0.10269   0.11022   0.12037
 Alpha virt. eigenvalues --    0.13185   0.13273   0.14253   0.14617   0.14965

 Mulliken charges:
               1
     1  N   -0.310480
     2  C    0.177624
     3  C    0.054807
     4  N   -0.248819
     5  C    0.125086
     6  H    0.028753
     7  N   -0.278390
     8  C    0.134283
     9  H    0.015128
    10  N   -0.290777
    11  C    0.231123
    12  C    0.092126
    13  N   -0.041049
    14  H    0.110283
    15  H    0.090539
    16  H    0.030394
    17  H    0.038069
    18  H    0.023743
    19  N   -0.292421
    20  C    0.242499
    21  C    0.187282
    22  N   -0.111794
    23  H    0.114413
    24  H    0.116031
    25  N   -0.299398
    26  C    0.221096
    27  N   -0.142003
    28  H    0.128966
    29  C    0.164267
    30  O   -0.324394
    31  C   -0.003528
    32  N   -0.221945
    33  C    0.124237
    34  H    0.021284
    35  H    0.015704
    36  H    0.027805
    37  H    0.018444
    38  H    0.039310
    39  H    0.064142
    40  H    0.077377
    41  H    0.027045
    42  C   -0.086903
    43  O   -0.269798
    44  C    0.168509
    45  H    0.134135
    46  N   -0.123516
    47  O   -0.338852
    48  C    0.333251
    49  H    0.042268
    50  C    0.168342
    51  C    0.042077
    52  N   -0.276115
    53  H    0.033978
    54  H    0.039189
    55  H    0.004674
    56  H    0.121870
    57  H    0.119765
    58  N   -0.051054
    59  C    0.115544
    60  C    0.217363
    61  N   -0.267302
    62  H    0.038040
    63  C    0.150101
    64  N   -0.304353
    65  H    0.033136
    66  C    0.112132
    67  N   -0.243026
    68  C    0.020842
    69  C    0.183465
    70  N   -0.294627
 Sum of Mulliken charges =  -0.00000

 Dipole moment (field-independent basis, Debye):
    X=             -4.8877    Y=              5.5285    Z=             -4.8550  Tot=              8.8332
 Quadrupole moment (field-independent basis, Debye-Ang):
   XX=           -144.1265   YY=           -225.0871   ZZ=           -261.2210
   XY=            -13.4349   XZ=             12.9161   YZ=              2.9414

 Normal termination of Gaussian 16 at Fri Jan 19 07:59:15 2018.
