 Gaussian 16, Revision A.03,
 Gaussian 16:  EM64L-G16RevA.03 25-Dec-2016

 ---------------------------------------
 #p wb97xd/cc-pvdz sp scf=(maxcycles=20)
 ---------------------------------------

 ------------------
 Base pair stacking
 ------------------
 Symbolic Z-matrix:
 Charge =  0 Multiplicity = 1

                         Standard orientation:
 ---------------------------------------------------------------------
 Center     Atomic      Atomic             Coordinates (Angstroms)
 Number     Number       Type             X           Y           Z
 ---------------------------------------------------------------------
      1          7           0       -6.263463   -1.701792    0.698047
      2          6           0       -7.671858   -1.262016    0.730330
      3          6           0       -4.070426   -1.759329    0.854758
      4          7           0       -4.460732   -3.013965    0.409476
      5          6           0       -5.766340   -2.929086    0.332887
      6          1           0       -6.422598   -3.739007    0.013045
      7          7           0       -2.768639    0.074995    1.564357
      8          6           0       -3.919071    0.744005    1.692954
      9          1           0       -3.822928    1.771949    2.039855
     10          7           0       -5.164560    0.335777    1.458454
     11          6           0       -5.170646   -0.939697    1.037082
     12          6           0       -2.808367   -1.206409    1.138330
     13          7           0       -1.661048   -1.875873    1.009345
     14          1           0       -1.642993   -2.826356    0.697141
     15          1           0       -0.780907   -1.450402    1.220258
     16          1           0       -8.189418   -1.842529    1.359067
     17          1           0       -7.718391   -0.312720    1.039855
     18          1           0       -8.066087   -1.331748   -0.186029
     19          7           0       -2.417820    3.446740   -1.781190
     20          6           0       -1.183521    2.854274   -1.664821
     21          6           0       -2.676426    4.899441   -1.722234
     22          7           0        2.250723    3.120300   -1.220989
     23          1           0        3.036644    2.505442   -1.161794
     24          1           0        2.433848    4.100144   -1.136757
     25          7           0       -0.009016    3.494523   -1.478585
     26          6           0        1.006739    2.652825   -1.405037
     27          7           0        0.883825    1.288188   -1.505912
     28          1           0        1.715479    0.721885   -1.437986
     29          6           0       -0.314607    0.607855   -1.697643
     30          8           0       -0.316141   -0.626935   -1.775280
     31          6           0       -1.414865    1.498787   -1.778615
     32          7           0       -2.767193    1.245379   -1.962704
     33          6           0       -3.321376    2.427359   -1.957503
     34          1           0       -4.389132    2.613091   -2.078660
     35          1           0       -3.294543    5.099097   -0.962718
     36          1           0       -1.813631    5.384102   -1.584527
     37          1           0       -3.093501    5.200485   -2.579111
     38          1           0        6.131346   -1.564494   -0.377171
     39          1           0        6.236513   -1.714146   -2.129646
     40          1           0        5.410848   -0.330683   -1.411552
     41          1           0        3.161178   -5.274804   -1.124331
     42          6           0        3.164001   -4.188682   -1.216916
     43          8           0        0.803645   -4.011844   -1.373660
     44          6           0        1.920011   -3.494148   -1.350874
     45          1           0        1.178670   -1.597807   -1.557304
     46          7           0        2.036252   -2.123161   -1.460977
     47          8           0        3.196868   -0.173592   -1.557820
     48          6           0        3.194928   -1.387659   -1.454256
     49          1           0        5.282996   -3.979558   -1.107622
     50          6           0        4.310641   -3.498947   -1.207006
     51          6           0        5.615948   -1.385940   -1.309128
     52          7           0        4.352675   -2.128726   -1.321500
     53          1           0        3.856793    3.923707    3.557680
     54          1           0        2.665688    4.036505    2.448333
     55          1           0        4.226413    4.149899    1.984259
     56          1           0        1.873861   -2.851072    1.269487
     57          1           0        3.475608   -2.454520    1.702200
     58          7           0        2.538871   -2.149762    1.526528
     59          6           0        2.192943   -0.864986    1.630691
     60          6           0        2.582137    1.443768    2.054867
     61          7           0        1.316734    1.824149    1.813046
     62          1           0       -0.477336    0.993541    1.272639
     63          6           0        0.567735    0.773021    1.485864
     64          7           0        0.912355   -0.514535    1.380992
     65          1           0        5.701971    1.777130    2.834395
     66          6           0        4.717978    1.403363    2.549797
     67          7           0        4.440932    0.146267    2.303561
     68          6           0        3.089883    0.157953    1.988493
     69          6           0        3.593366    3.705240    2.618063
     70          7           0        3.639503    2.243766    2.418133
 ---------------------------------------------------------------------

 SCF Done:  E(RwB97XD) =  -2048.74281500     A.U. after   15 cycles

 The electronic state is 1-A.
 Alpha  occ. eigenvalues --  -19.26271 -19.22705 -19.20807 -14.52899 -14.51831
 Alpha  occ. eigenvalues --  -14.48928 -14.48177 -14.48159 -14.47763 -14.47158
 Alpha  occ. eigenvalues --  -14.47107 -14.44885 -14.43594 -14.43531 -14.42256
 Alpha  occ. eigenvalues --  -14.41542 -14.40935 -14.40804 -14.40225 -14.39538
 Alpha  occ. eigenvalues --  -10.45888 -10.41492 -10.40713 -10.39303 -10.38412
 Alpha  occ. eigenvalues --  -10.38409 -10.37420 -10.36487 -10.35421 -10.34980
 Alpha  occ. eigenvalues --  -10.34757 -10.34526 -10.33483 -10.33421 -10.33381
 Alpha  occ. eigenvalues --  -10.32715 -10.32443 -10.32027 -10.31720 -10.31072
 Alpha  occ. eigenvalues --  -10.30455 -10.28279 -10.27877  -1.19838  -1.14551
 Alpha  occ. eigenvalues --   -1.13660  -1.13415  -1.10747  -1.10723  -1.09798
 Alpha  occ. eigenvalues --   -1.08809  -1.08656  -1.04337  -1.04222  -1.02922
 Alpha  occ. eigenvalues --   -1.00388  -1.00083  -0.99765  -0.98740  -0.96738
 Alpha  occ. eigenvalues --   -0.96405  -0.96102  -0.91978  -0.91610  -0.86983
 Alpha  occ. eigenvalues --   -0.85340  -0.84291  -0.83964  -0.83333  -0.82675
 Alpha  occ. eigenvalues --   -0.81732  -0.79390  -0.76432  -0.74826  -0.74131
 Alpha  occ. eigenvalues --   -0.73946  -0.73774  -0.72281  -0.70419  -0.69845
 Alpha  occ. eigenvalues --   -0.67646  -0.66963  -0.66243  -0.65684  -0.64824
 Alpha  occ. eigenvalues --   -0.64038  -0.63713  -0.62921  -0.62073  -0.62009
 Alpha  occ. eigenvalues --   -0.60183  -0.59976  -0.59939  -0.59809  -0.59164
 Alpha  occ. eigenvalues --   -0.58890  -0.58703  -0.56795  -0.56316  -0.55987
 Alpha  occ. eigenvalues --   -0.55827  -0.54891  -0.54796  -0.54718  -0.54489
 Alpha  occ. eigenvalues --   -0.53920  -0.53738  -0.53205  -0.53135  -0.52947
 Alpha  occ. eigenvalues --   -0.52745  -0.52181  -0.51211  -0.50422  -0.50108
 Alpha  occ. eigenvalues --   -0.49828  -0.49624  -0.49217  -0.49213  -0.48871
 Alpha  occ. eigenvalues --   -0.48503  -0.48485  -0.48230  -0.47947  -0.47621
 Alpha  occ. eigenvalues --   -0.46337  -0.45763  -0.44497  -0.44413  -0.44237
 Alpha  occ. eigenvalues --   -0.40471  -0.40031  -0.39786  -0.37581  -0.37458
 Alpha  occ. eigenvalues --   -0.37388  -0.36850  -0.36526  -0.36065  -0.34520
 Alpha  occ. eigenvalues --   -0.34028  -0.33788  -0.33576  -0.33001  -0.32869
 Alpha  occ. eigenvalues --   -0.32698  -0.32582  -0.32469  -0.31969  -0.30264
 Alpha  occ. eigenvalues --   -0.29781  -0.29424  -0.25750  -0.25018
 Alpha virt. eigenvalues --    0.02362   0.04650   0.07660   0.08091   0.08673
 Alpha virt. eigenvalues --    0.09018   0.09505   0.11133   0.11595   0.11743
 Alpha virt. eigenvalues --    0.12325   0.14104   0.14344   0.14932   0.15082

 Mulliken charges:
               1
     1  N   -0.311699
     2  C    0.181443
     3  C    0.036117
     4  N   -0.257835
     5  C    0.133092
     6  H    0.024430
     7  N   -0.298179
     8  C    0.141708
     9  H    0.006994
    10  N   -0.293010
    11  C    0.248009
    12  C    0.123519
    13  N   -0.054968
    14  H    0.112780
    15  H    0.087134
    16  H    0.023629
    17  H    0.033474
    18  H    0.025471
    19  N   -0.312544
    20  C    0.248942
    21  C    0.181269
    22  N   -0.119651
    23  H    0.115639
    24  H    0.115461
    25  N   -0.306890
    26  C    0.239715
    27  N   -0.138371
    28  H    0.113071
    29  C    0.173303
    30  O   -0.317917
    31  C   -0.001315
    32  N   -0.223474
    33  C    0.129163
    34  H    0.028402
    35  H    0.028716
    36  H    0.028294
    37  H    0.025214
    38  H    0.063653
    39  H    0.059402
    40  H    0.076750
    41  H    0.033629
    42  C   -0.107461
    43  O   -0.262255
    44  C    0.143281
    45  H    0.134866
    46  N   -0.118526
    47  O   -0.344771
    48  C    0.346639
    49  H    0.049887
    50  C    0.158276
    51  C    0.042593
    52  N   -0.285688
    53  H    0.033064
    54  H    0.044998
    55  H    0.021931
    56  H    0.129325
    57  H    0.114452
    58  N   -0.071845
    59  C    0.086515
    60  C    0.234746
    61  N   -0.261714
    62  H    0.043786
    63  C    0.167846
    64  N   -0.305591
    65  H    0.033737
    66  C    0.135283
    67  N   -0.270263
    68  C    0.038111
    69  C    0.178737
    70  N   -0.312526
 Sum of Mulliken charges =  -0.00000

 Dipole moment (field-independent basis, Debye):
    X=              9.8267    Y=              4.8001    Z=              0.9828  Tot=             10.9805
 Quadrupole moment (field-independent basis, Debye-Ang):
   XX=           -162.1023   YY=           -207.9240   ZZ=           -250.0088
   XY=             -6.9563   XZ=              3.2069   YZ=             -3.7520

 Normal termination of Gaussian 16 at Sat Jan 27 01:08:46 2018.
