 Gaussian 16, Revision A.03,
 Gaussian 16:  EM64L-G16RevA.03 25-Dec-2016

 ---------------------------------------
 #p wb97xd/cc-pvdz sp scf=(maxcycles=20)
 ---------------------------------------

 ------------------
 Base pair stacking
 ------------------
 Symbolic Z-matrix:
 Charge =  0 Multiplicity = 1

                         Standard orientation:
 ---------------------------------------------------------------------
 Center     Atomic      Atomic             Coordinates (Angstroms)
 Number     Number       Type             X           Y           Z
 ---------------------------------------------------------------------
      1          7           0       -7.233506   -1.604790   -0.003493
      2          6           0       -8.641123   -1.178233   -0.124553
      3          6           0       -5.063108   -1.630193    0.351542
      4          7           0       -5.406132   -2.913874   -0.047493
      5          6           0       -6.699986   -2.847189   -0.245417
      6          1           0       -7.321176   -3.681982   -0.571283
      7          7           0       -3.838680    0.257679    1.058409
      8          6           0       -4.999072    0.921602    1.041776
      9          1           0       -4.939175    1.969961    1.330950
     10          7           0       -6.216627    0.486991    0.723076
     11          6           0       -6.179011   -0.812097    0.383390
     12          6           0       -3.834136   -1.047956    0.711464
     13          7           0       -2.676789   -1.712395    0.727442
     14          1           0       -2.626437   -2.680130    0.478125
     15          1           0       -1.821090   -1.265751    0.989031
     16          1           0       -9.210311   -1.723996    0.490551
     17          1           0       -8.719602   -0.212137    0.119645
     18          1           0       -8.951270   -1.308511   -1.066273
     19          7           0       -1.298858    3.187882   -1.950342
     20          6           0       -0.077251    2.616349   -1.687523
     21          6           0       -1.568402    4.638737   -2.005618
     22          7           0        3.302082    2.944296   -0.956565
     23          1           0        4.082363    2.342313   -0.789174
     24          1           0        3.472406    3.929279   -0.917729
     25          7           0        1.072848    3.278825   -1.437616
     26          6           0        2.081782    2.453678   -1.221273
     27          7           0        1.974711    1.084232   -1.247220
     28          1           0        2.799526    0.531723   -1.070115
     29          6           0        0.801442    0.381173   -1.502208
     30          8           0        0.812568   -0.856007   -1.502342
     31          6           0       -0.291217    1.254137   -1.736547
     32          7           0       -1.620404    0.976065   -2.024364
     33          6           0       -2.178264    2.150398   -2.142514
     34          1           0       -3.231696    2.317395   -2.369823
     35          1           0       -2.253066    4.878673   -1.318248
     36          1           0       -0.723685    5.139763   -1.822038
     37          1           0       -1.908336    4.881951   -2.913423
     38          1           0        7.112949   -1.639572    0.521277
     39          1           0        7.375540   -1.896242   -1.202041
     40          1           0        6.482435   -0.479504   -0.648354
     41          1           0        4.238888   -5.419052   -0.254532
     42          6           0        4.244995   -4.340772   -0.414198
     43          8           0        1.907426   -4.198019   -0.791639
     44          6           0        3.014842   -3.668559   -0.701757
     45          1           0        2.286268   -1.796264   -1.091627
     46          7           0        3.134168   -2.305892   -0.886524
     47          8           0        4.289793   -0.354321   -1.001098
     48          6           0        4.284171   -1.559607   -0.822442
     49          1           0        6.344664   -4.103711   -0.129564
     50          6           0        5.382934   -3.640098   -0.345157
     51          6           0        6.682396   -1.524264   -0.462285
     52          7           0        5.428760   -2.279224   -0.540863
     53          1           0        2.563494    4.289583    3.390410
     54          1           0        1.476157    4.321427    2.174356
     55          1           0        3.071671    4.421798    1.845191
     56          1           0        0.824995   -2.633576    1.362376
     57          1           0        2.379646   -2.194739    1.910634
     58          7           0        1.461043   -1.910986    1.633385
     59          6           0        1.101241   -0.625808    1.625762
     60          6           0        1.440179    1.708594    1.937833
     61          7           0        0.199822    2.060390    1.560768
     62          1           0       -1.534697    1.179720    0.915440
     63          6           0       -0.511954    0.983466    1.234418
     64          7           0       -0.153398   -0.304542    1.241394
     65          1           0        4.475966    2.121299    2.970230
     66          6           0        3.523203    1.720641    2.622897
     67          7           0        3.275144    0.447968    2.431981
     68          6           0        1.957754    0.426385    1.997520
     69          6           0        2.386393    4.010759    2.446546
     70          7           0        2.457019    2.540264    2.343270
 ---------------------------------------------------------------------

 SCF Done:  E(RwB97XD) =  -2048.74207171     A.U. after   15 cycles

 The electronic state is 1-A.
 Alpha  occ. eigenvalues --  -19.26309 -19.22809 -19.21156 -14.52989 -14.50785
 Alpha  occ. eigenvalues --  -14.49121 -14.48750 -14.48493 -14.47693 -14.47577
 Alpha  occ. eigenvalues --  -14.46166 -14.43890 -14.42661 -14.42326 -14.42226
 Alpha  occ. eigenvalues --  -14.41969 -14.41449 -14.41110 -14.40779 -14.40009
 Alpha  occ. eigenvalues --  -10.45995 -10.41898 -10.40854 -10.38765 -10.38380
 Alpha  occ. eigenvalues --  -10.37965 -10.36415 -10.35679 -10.35367 -10.35297
 Alpha  occ. eigenvalues --  -10.34732 -10.34100 -10.33853 -10.33581 -10.33327
 Alpha  occ. eigenvalues --  -10.32960 -10.32560 -10.31663 -10.31166 -10.30898
 Alpha  occ. eigenvalues --  -10.30820 -10.28516 -10.28509  -1.19933  -1.13856
 Alpha  occ. eigenvalues --   -1.13785  -1.13425  -1.11337  -1.10998  -1.09879
 Alpha  occ. eigenvalues --   -1.09251  -1.07297  -1.04869  -1.03196  -1.02858
 Alpha  occ. eigenvalues --   -1.00572  -1.00300  -0.99294  -0.99052  -0.96960
 Alpha  occ. eigenvalues --   -0.96920  -0.94877  -0.92499  -0.91619  -0.85926
 Alpha  occ. eigenvalues --   -0.84539  -0.84324  -0.84154  -0.83895  -0.82867
 Alpha  occ. eigenvalues --   -0.82266  -0.79454  -0.75270  -0.75100  -0.74307
 Alpha  occ. eigenvalues --   -0.73950  -0.72946  -0.72819  -0.70969  -0.68656
 Alpha  occ. eigenvalues --   -0.68010  -0.67115  -0.66213  -0.65035  -0.64955
 Alpha  occ. eigenvalues --   -0.64222  -0.63178  -0.62680  -0.62396  -0.62364
 Alpha  occ. eigenvalues --   -0.60100  -0.60064  -0.60049  -0.59170  -0.58811
 Alpha  occ. eigenvalues --   -0.58544  -0.57942  -0.56922  -0.56447  -0.56383
 Alpha  occ. eigenvalues --   -0.56350  -0.55247  -0.54923  -0.54680  -0.54130
 Alpha  occ. eigenvalues --   -0.53852  -0.53641  -0.53408  -0.52909  -0.52184
 Alpha  occ. eigenvalues --   -0.51937  -0.51624  -0.51155  -0.50670  -0.50641
 Alpha  occ. eigenvalues --   -0.50089  -0.49949  -0.49386  -0.49095  -0.48971
 Alpha  occ. eigenvalues --   -0.48694  -0.48636  -0.48075  -0.47933  -0.47475
 Alpha  occ. eigenvalues --   -0.46862  -0.45250  -0.45030  -0.44595  -0.43145
 Alpha  occ. eigenvalues --   -0.41073  -0.39915  -0.39126  -0.37784  -0.37757
 Alpha  occ. eigenvalues --   -0.37098  -0.36845  -0.35846  -0.35626  -0.35181
 Alpha  occ. eigenvalues --   -0.33926  -0.33485  -0.33438  -0.33208  -0.32945
 Alpha  occ. eigenvalues --   -0.32604  -0.32437  -0.32272  -0.32101  -0.30885
 Alpha  occ. eigenvalues --   -0.30215  -0.28193  -0.25910  -0.25681
 Alpha virt. eigenvalues --    0.02454   0.05631   0.07853   0.08072   0.08546
 Alpha virt. eigenvalues --    0.08940   0.09561   0.11109   0.11543   0.12343
 Alpha virt. eigenvalues --    0.12809   0.14017   0.14349   0.14712   0.15350

 Mulliken charges:
               1
     1  N   -0.310723
     2  C    0.181105
     3  C    0.027372
     4  N   -0.258681
     5  C    0.132935
     6  H    0.026309
     7  N   -0.291892
     8  C    0.132837
     9  H    0.010190
    10  N   -0.289337
    11  C    0.242087
    12  C    0.121992
    13  N   -0.054872
    14  H    0.109375
    15  H    0.090747
    16  H    0.025286
    17  H    0.035327
    18  H    0.025686
    19  N   -0.309556
    20  C    0.266224
    21  C    0.182808
    22  N   -0.118064
    23  H    0.117496
    24  H    0.118302
    25  N   -0.298469
    26  C    0.214354
    27  N   -0.124702
    28  H    0.121293
    29  C    0.173196
    30  O   -0.322810
    31  C   -0.024476
    32  N   -0.214920
    33  C    0.128030
    34  H    0.031610
    35  H    0.030529
    36  H    0.026768
    37  H    0.025419
    38  H    0.062678
    39  H    0.061167
    40  H    0.076340
    41  H    0.034096
    42  C   -0.108134
    43  O   -0.270278
    44  C    0.161412
    45  H    0.135144
    46  N   -0.135000
    47  O   -0.348085
    48  C    0.359728
    49  H    0.050857
    50  C    0.172888
    51  C    0.042288
    52  N   -0.298119
    53  H    0.029552
    54  H    0.043556
    55  H    0.008833
    56  H    0.126944
    57  H    0.110547
    58  N   -0.058547
    59  C    0.090554
    60  C    0.231629
    61  N   -0.262807
    62  H    0.036806
    63  C    0.169862
    64  N   -0.296565
    65  H    0.025598
    66  C    0.122563
    67  N   -0.265711
    68  C    0.028976
    69  C    0.185229
    70  N   -0.302776
 Sum of Mulliken charges =  -0.00000

 Dipole moment (field-independent basis, Debye):
    X=              9.5518    Y=              4.5837    Z=              1.2647  Tot=             10.6699
 Quadrupole moment (field-independent basis, Debye-Ang):
   XX=           -150.7644   YY=           -210.2101   ZZ=           -248.2173
   XY=             -2.2927   XZ=             13.2090   YZ=             -6.8767

 Normal termination of Gaussian 16 at Sat Jan 27 03:59:17 2018.
