 Gaussian 16, Revision A.03,
 Gaussian 16:  EM64L-G16RevA.03 25-Dec-2016

 ---------------------------------------
 #p wb97xd/cc-pvdz sp scf=(maxcycles=20)
 ---------------------------------------

 ------------------
 Base pair stacking
 ------------------
 Symbolic Z-matrix:
 Charge =  0 Multiplicity = 1

                         Standard orientation:
 ---------------------------------------------------------------------
 Center     Atomic      Atomic             Coordinates (Angstroms)
 Number     Number       Type             X           Y           Z
 ---------------------------------------------------------------------
      1          7           0        5.610500   -1.840074   -1.206893
      2          6           0        7.019411   -1.400887   -1.215951
      3          6           0        3.412465   -1.868989   -1.278182
      4          7           0        3.812093   -3.184609   -1.093328
      5          6           0        5.120342   -3.114533   -1.057781
      6          1           0        5.783613   -3.969563   -0.923868
      7          7           0        2.095243    0.064896   -1.574813
      8          6           0        3.244034    0.747109   -1.624372
      9          1           0        3.140803    1.821838   -1.767754
     10          7           0        4.495313    0.303135   -1.523872
     11          6           0        4.509912   -1.028775   -1.350049
     12          6           0        2.143620   -1.273686   -1.398968
     13          7           0        0.997948   -1.956428   -1.349236
     14          1           0        0.986191   -2.948653   -1.220512
     15          1           0        0.112818   -1.499654   -1.438898
     16          1           0        7.505971   -1.852534   -1.963910
     17          1           0        7.059733   -0.410314   -1.343476
     18          1           0        7.451223   -1.641175   -0.346579
     19          7           0        3.214622    3.358582    1.407640
     20          6           0        1.960097    2.799906    1.361719
     21          6           0        3.521801    4.786401    1.189291
     22          7           0       -1.466528    3.134319    0.905453
     23          1           0       -2.273261    2.544162    0.916983
     24          1           0       -1.617022    4.104864    0.715424
     25          7           0        0.806529    3.456185    1.111424
     26          6           0       -0.237683    2.647049    1.134406
     27          7           0       -0.160272    1.298119    1.383254
     28          1           0       -1.011131    0.756838    1.380988
     29          6           0        1.015906    0.601802    1.643277
     30          8           0        0.976232   -0.616476    1.855335
     31          6           0        2.146303    1.457748    1.621962
     32          7           0        3.490670    1.179407    1.827135
     33          6           0        4.084493    2.333926    1.690581
     34          1           0        5.158838    2.494815    1.786381
     35          1           0        4.140374    4.880600    0.409996
     36          1           0        2.674867    5.282648    1.002968
     37          1           0        3.955507    5.164503    2.006451
     38          1           0       -5.510029   -1.477815    0.594262
     39          1           0       -5.606511   -1.431772    2.353016
     40          1           0       -4.740106   -0.164184    1.484726
     41          1           0       -2.661454   -5.184810    1.730190
     42          6           0       -2.626775   -4.095627    1.703583
     43          8           0       -0.260631   -3.984311    1.830464
     44          6           0       -1.358973   -3.433982    1.755800
     45          1           0       -0.552254   -1.553157    1.750811
     46          7           0       -1.427861   -2.055965    1.715948
     47          8           0       -2.520994   -0.068587    1.603958
     48          6           0       -2.560981   -1.286034    1.633633
     49          1           0       -4.738263   -3.826674    1.580715
     50          6           0       -3.749437   -3.371931    1.623048
     51          6           0       -4.981622   -1.216604    1.499035
     52          7           0       -3.744168   -1.996769    1.587337
     53          1           0       -4.580201    4.213975   -2.526567
     54          1           0       -3.342829    4.117386   -1.467467
     55          1           0       -4.881853    4.140285   -0.924378
     56          1           0       -2.551665   -2.868363   -1.637171
     57          1           0       -4.167271   -2.398928   -1.919212
     58          7           0       -3.221827   -2.131811   -1.729472
     59          6           0       -2.871360   -0.850051   -1.605254
     60          6           0       -3.261442    1.496961   -1.571574
     61          7           0       -1.984317    1.826208   -1.316710
     62          1           0       -0.175163    0.910371   -1.018652
     63          6           0       -1.229807    0.732964   -1.224820
     64          7           0       -1.578951   -0.551674   -1.348918
     65          1           0       -6.408756    1.968211   -2.141219
     66          6           0       -5.416400    1.548460   -1.973966
     67          7           0       -5.138284    0.267714   -1.980089
     68          6           0       -3.775162    0.221139   -1.726194
     69          6           0       -4.279161    3.823121   -1.656726
     70          7           0       -4.327353    2.350074   -1.732903
 ---------------------------------------------------------------------

 SCF Done:  E(RwB97XD) =  -2048.73429838     A.U. after   15 cycles

 The electronic state is 1-A.
 Alpha  occ. eigenvalues --  -19.25674 -19.21856 -19.20457 -14.52544 -14.52335
 Alpha  occ. eigenvalues --  -14.48668 -14.48578 -14.48204 -14.47691 -14.46712
 Alpha  occ. eigenvalues --  -14.46020 -14.45485 -14.44343 -14.44114 -14.42187
 Alpha  occ. eigenvalues --  -14.41792 -14.40889 -14.40671 -14.40394 -14.39902
 Alpha  occ. eigenvalues --  -10.45332 -10.40867 -10.40013 -10.39991 -10.38049
 Alpha  occ. eigenvalues --  -10.38034 -10.37844 -10.37190 -10.35598 -10.35127
 Alpha  occ. eigenvalues --  -10.34990 -10.34231 -10.34160 -10.33582 -10.33132
 Alpha  occ. eigenvalues --  -10.32835 -10.32686 -10.32628 -10.31168 -10.30892
 Alpha  occ. eigenvalues --  -10.30423 -10.28055 -10.27901  -1.19289  -1.15252
 Alpha  occ. eigenvalues --   -1.13038  -1.12873  -1.10800  -1.10451  -1.09402
 Alpha  occ. eigenvalues --   -1.09225  -1.08318  -1.04997  -1.04624  -1.02329
 Alpha  occ. eigenvalues --   -1.01089  -1.00105  -0.99427  -0.98382  -0.96939
 Alpha  occ. eigenvalues --   -0.96472  -0.96444  -0.92311  -0.91047  -0.87696
 Alpha  occ. eigenvalues --   -0.86097  -0.83943  -0.83472  -0.83425  -0.82397
 Alpha  occ. eigenvalues --   -0.81837  -0.78827  -0.77122  -0.74984  -0.74418
 Alpha  occ. eigenvalues --   -0.73427  -0.73210  -0.72529  -0.70658  -0.70521
 Alpha  occ. eigenvalues --   -0.67156  -0.66993  -0.66426  -0.65938  -0.64469
 Alpha  occ. eigenvalues --   -0.64318  -0.63657  -0.62610  -0.62355  -0.61489
 Alpha  occ. eigenvalues --   -0.60725  -0.60299  -0.60114  -0.59510  -0.59425
 Alpha  occ. eigenvalues --   -0.59417  -0.58112  -0.56664  -0.56217  -0.55875
 Alpha  occ. eigenvalues --   -0.55806  -0.55549  -0.55170  -0.54692  -0.54269
 Alpha  occ. eigenvalues --   -0.54033  -0.53539  -0.53333  -0.53125  -0.52829
 Alpha  occ. eigenvalues --   -0.52694  -0.52267  -0.51306  -0.50258  -0.50042
 Alpha  occ. eigenvalues --   -0.49836  -0.49703  -0.49534  -0.49205  -0.48677
 Alpha  occ. eigenvalues --   -0.48556  -0.48166  -0.47880  -0.47562  -0.47203
 Alpha  occ. eigenvalues --   -0.46447  -0.45728  -0.45067  -0.44369  -0.43852
 Alpha  occ. eigenvalues --   -0.40946  -0.40716  -0.39304  -0.37930  -0.37783
 Alpha  occ. eigenvalues --   -0.37102  -0.36960  -0.36661  -0.35613  -0.35062
 Alpha  occ. eigenvalues --   -0.34519  -0.33248  -0.33155  -0.32973  -0.32519
 Alpha  occ. eigenvalues --   -0.32500  -0.32226  -0.31906  -0.31691  -0.30460
 Alpha  occ. eigenvalues --   -0.30095  -0.29991  -0.25534  -0.24942
 Alpha virt. eigenvalues --    0.02879   0.04165   0.06879   0.08409   0.08582
 Alpha virt. eigenvalues --    0.09360   0.09881   0.10620   0.11298   0.11532
 Alpha virt. eigenvalues --    0.12199   0.13998   0.14630   0.14833   0.15013

 Mulliken charges:
               1
     1  N   -0.313137
     2  C    0.182308
     3  C    0.041501
     4  N   -0.259930
     5  C    0.136480
     6  H    0.025427
     7  N   -0.298588
     8  C    0.144795
     9  H    0.008378
    10  N   -0.286807
    11  C    0.258512
    12  C    0.117609
    13  N   -0.063395
    14  H    0.109453
    15  H    0.081187
    16  H    0.022679
    17  H    0.032945
    18  H    0.027770
    19  N   -0.311593
    20  C    0.244554
    21  C    0.180942
    22  N   -0.081841
    23  H    0.110761
    24  H    0.111713
    25  N   -0.306328
    26  C    0.217607
    27  N   -0.147175
    28  H    0.126127
    29  C    0.185409
    30  O   -0.322339
    31  C   -0.007962
    32  N   -0.223173
    33  C    0.128853
    34  H    0.023743
    35  H    0.027893
    36  H    0.028146
    37  H    0.024432
    38  H    0.055824
    39  H    0.060096
    40  H    0.076228
    41  H    0.031354
    42  C   -0.114269
    43  O   -0.260765
    44  C    0.173601
    45  H    0.132889
    46  N   -0.126287
    47  O   -0.344641
    48  C    0.343697
    49  H    0.045504
    50  C    0.160649
    51  C    0.041118
    52  N   -0.283867
    53  H    0.037252
    54  H    0.035633
    55  H    0.029418
    56  H    0.118482
    57  H    0.116250
    58  N   -0.063952
    59  C    0.087050
    60  C    0.236893
    61  N   -0.273762
    62  H    0.046491
    63  C    0.158917
    64  N   -0.303802
    65  H    0.037855
    66  C    0.138393
    67  N   -0.266591
    68  C    0.036374
    69  C    0.175584
    70  N   -0.314572
 Sum of Mulliken charges =  -0.00000

 Dipole moment (field-independent basis, Debye):
    X=             -9.4451    Y=              4.9132    Z=             -1.9255  Tot=             10.8193
 Quadrupole moment (field-independent basis, Debye-Ang):
   XX=           -166.2692   YY=           -208.2891   ZZ=           -253.8998
   XY=              7.1590   XZ=             -5.4002   YZ=              6.2505

 Normal termination of Gaussian 16 at Sat Jan 27 09:09:20 2018.
