 Gaussian 16, Revision A.03,
 Gaussian 16:  EM64L-G16RevA.03 25-Dec-2016

 ---------------------------------------
 #p wb97xd/cc-pvdz sp scf=(maxcycles=20)
 ---------------------------------------

 ------------------
 Base pair stacking
 ------------------
 Symbolic Z-matrix:
 Charge =  0 Multiplicity = 1

                         Standard orientation:
 ---------------------------------------------------------------------
 Center     Atomic      Atomic             Coordinates (Angstroms)
 Number     Number       Type             X           Y           Z
 ---------------------------------------------------------------------
      1          7           0        4.957911   -2.051711   -1.591257
      2          6           0        6.371679   -1.649521   -1.723559
      3          6           0        2.761211   -2.025169   -1.485754
      4          7           0        3.142645   -3.346317   -1.301868
      5          6           0        4.450812   -3.309430   -1.372787
      6          1           0        5.101922   -4.178215   -1.271828
      7          7           0        1.471338   -0.064782   -1.722519
      8          6           0        2.628496    0.586146   -1.880220
      9          1           0        2.539960    1.659768   -2.040704
     10          7           0        3.872748    0.112191   -1.869487
     11          6           0        3.869225   -1.215493   -1.665390
     12          6           0        1.501467   -1.399976   -1.518948
     13          7           0        0.347417   -2.051500   -1.361312
     14          1           0        0.322189   -3.040005   -1.208221
     15          1           0       -0.530801   -1.574010   -1.390844
     16          1           0        6.785371   -2.130020   -2.496959
     17          1           0        6.425428   -0.663381   -1.877701
     18          1           0        6.866224   -1.881699   -0.885987
     19          7           0        3.901618    3.345933    1.048352
     20          6           0        2.634383    2.819107    1.116394
     21          6           0        4.224500    4.760143    0.771846
     22          7           0       -0.808804    3.232143    0.927796
     23          1           0       -1.625963    2.663507    1.018023
     24          1           0       -0.950714    4.201839    0.727126
     25          7           0        1.480548    3.499409    0.943474
     26          6           0        0.422392    2.718331    1.069369
     27          7           0        0.487103    1.373663    1.343614
     28          1           0       -0.373969    0.854714    1.422446
     29          6           0        1.663296    0.652978    1.525403
     30          8           0        1.611500   -0.558889    1.769209
     31          6           0        2.808575    1.478636    1.393128
     32          7           0        4.158008    1.170113    1.496745
     33          6           0        4.766539    2.305551    1.285384
     34          1           0        5.848672    2.440591    1.291023
     35          1           0        4.780359    4.821060   -0.056476
     36          1           0        3.377514    5.273962    0.641986
     37          1           0        4.731629    5.144796    1.542346
     38          1           0       -4.974137   -1.279303    1.052142
     39          1           0       -4.927448   -1.192001    2.811359
     40          1           0       -4.103548    0.033235    1.846302
     41          1           0       -2.133391   -5.032983    2.045432
     42          6           0       -2.074758   -3.945919    1.989925
     43          8           0        0.295909   -3.893241    1.924399
     44          6           0       -0.791295   -3.316387    1.924628
     45          1           0        0.057459   -1.457687    1.809864
     46          7           0       -0.829963   -1.938262    1.857257
     47          8           0       -1.880397    0.073846    1.785284
     48          6           0       -1.947171   -1.141202    1.847360
     49          1           0       -4.182179   -3.625065    2.029928
     50          6           0       -3.182503   -3.195300    1.982067
     51          6           0       -4.368399   -1.011996    1.905195
     52          7           0       -3.147004   -1.821856    1.912979
     53          1           0       -5.157227    4.234049   -2.236759
     54          1           0       -3.841226    4.128775   -1.278033
     55          1           0       -5.330498    4.203553   -0.614276
     56          1           0       -3.234774   -2.877188   -1.342338
     57          1           0       -4.856076   -2.372339   -1.505445
     58          7           0       -3.892261   -2.125716   -1.398429
     59          6           0       -3.502168   -0.851051   -1.333524
     60          6           0       -3.831632    1.505461   -1.325232
     61          7           0       -2.530557    1.807013   -1.181348
     62          1           0       -0.725852    0.851355   -1.007020
     63          6           0       -1.797654    0.696860   -1.123821
     64          7           0       -2.186487   -0.580715   -1.188653
     65          1           0       -7.002348    2.045509   -1.652450
     66          6           0       -6.010129    1.603952   -1.555067
     67          7           0       -5.764346    0.316601   -1.552588
     68          6           0       -4.386716    0.240293   -1.407516
     69          6           0       -4.796578    3.854793   -1.384645
     70          7           0       -4.886212    2.382170   -1.421256
 ---------------------------------------------------------------------

 SCF Done:  E(RwB97XD) =  -2048.74630465     A.U. after   15 cycles

 The electronic state is 1-A.
 Alpha  occ. eigenvalues --  -19.25333 -19.21561 -19.20361 -14.52667 -14.52106
 Alpha  occ. eigenvalues --  -14.49052 -14.48683 -14.48080 -14.47378 -14.46589
 Alpha  occ. eigenvalues --  -14.46036 -14.45603 -14.44836 -14.44811 -14.42610
 Alpha  occ. eigenvalues --  -14.41761 -14.40779 -14.40727 -14.40442 -14.40092
 Alpha  occ. eigenvalues --  -10.45038 -10.40904 -10.40485 -10.39688 -10.38184
 Alpha  occ. eigenvalues --  -10.37995 -10.37652 -10.37539 -10.36222 -10.35318
 Alpha  occ. eigenvalues --  -10.34783 -10.34180 -10.34137 -10.33494 -10.33188
 Alpha  occ. eigenvalues --  -10.33031 -10.32814 -10.32676 -10.30971 -10.30910
 Alpha  occ. eigenvalues --  -10.30199 -10.28072 -10.27904  -1.18986  -1.15433
 Alpha  occ. eigenvalues --   -1.12942  -1.12568  -1.10713  -1.10423  -1.09826
 Alpha  occ. eigenvalues --   -1.08973  -1.08242  -1.05402  -1.04794  -1.02032
 Alpha  occ. eigenvalues --   -1.01241  -1.00293  -0.99293  -0.98314  -0.97367
 Alpha  occ. eigenvalues --   -0.96449  -0.96423  -0.92480  -0.90837  -0.87943
 Alpha  occ. eigenvalues --   -0.86178  -0.83939  -0.83368  -0.83255  -0.82387
 Alpha  occ. eigenvalues --   -0.81751  -0.78592  -0.77427  -0.75273  -0.74414
 Alpha  occ. eigenvalues --   -0.73296  -0.72953  -0.72604  -0.70873  -0.70630
 Alpha  occ. eigenvalues --   -0.67336  -0.67025  -0.66186  -0.66013  -0.64688
 Alpha  occ. eigenvalues --   -0.64216  -0.63547  -0.62469  -0.62443  -0.61419
 Alpha  occ. eigenvalues --   -0.60927  -0.60557  -0.60125  -0.59619  -0.59340
 Alpha  occ. eigenvalues --   -0.59226  -0.57930  -0.56613  -0.56292  -0.55687
 Alpha  occ. eigenvalues --   -0.55621  -0.55613  -0.55339  -0.54664  -0.54073
 Alpha  occ. eigenvalues --   -0.54026  -0.53460  -0.53426  -0.53087  -0.52864
 Alpha  occ. eigenvalues --   -0.52705  -0.52084  -0.51237  -0.50277  -0.50205
 Alpha  occ. eigenvalues --   -0.49935  -0.49734  -0.49637  -0.49080  -0.48607
 Alpha  occ. eigenvalues --   -0.48573  -0.48066  -0.47869  -0.47493  -0.47064
 Alpha  occ. eigenvalues --   -0.46461  -0.45670  -0.45372  -0.44246  -0.43674
 Alpha  occ. eigenvalues --   -0.41101  -0.40845  -0.39018  -0.38124  -0.37940
 Alpha  occ. eigenvalues --   -0.37103  -0.37062  -0.36573  -0.35497  -0.35011
 Alpha  occ. eigenvalues --   -0.34898  -0.33494  -0.33179  -0.33077  -0.32740
 Alpha  occ. eigenvalues --   -0.32412  -0.32300  -0.31719  -0.31679  -0.30600
 Alpha  occ. eigenvalues --   -0.30431  -0.30057  -0.25614  -0.25114
 Alpha virt. eigenvalues --    0.02861   0.04070   0.06418   0.08309   0.08981
 Alpha virt. eigenvalues --    0.09490   0.10001   0.10359   0.11208   0.11332
 Alpha virt. eigenvalues --    0.12844   0.14244   0.14704   0.14980   0.15132

 Mulliken charges:
               1
     1  N   -0.313742
     2  C    0.183502
     3  C    0.050434
     4  N   -0.259928
     5  C    0.139826
     6  H    0.026074
     7  N   -0.297320
     8  C    0.135799
     9  H    0.011889
    10  N   -0.280530
    11  C    0.263079
    12  C    0.104902
    13  N   -0.069840
    14  H    0.110343
    15  H    0.079951
    16  H    0.021161
    17  H    0.033464
    18  H    0.029827
    19  N   -0.311104
    20  C    0.247845
    21  C    0.180666
    22  N   -0.099980
    23  H    0.111004
    24  H    0.113123
    25  N   -0.310583
    26  C    0.230614
    27  N   -0.142811
    28  H    0.116369
    29  C    0.191237
    30  O   -0.323134
    31  C   -0.017750
    32  N   -0.224681
    33  C    0.128275
    34  H    0.022292
    35  H    0.027568
    36  H    0.028685
    37  H    0.024424
    38  H    0.048884
    39  H    0.060898
    40  H    0.075438
    41  H    0.030369
    42  C   -0.115032
    43  O   -0.257638
    44  C    0.173132
    45  H    0.134523
    46  N   -0.128275
    47  O   -0.345504
    48  C    0.350519
    49  H    0.043201
    50  C    0.159284
    51  C    0.041837
    52  N   -0.283410
    53  H    0.035793
    54  H    0.036948
    55  H    0.030807
    56  H    0.118287
    57  H    0.119690
    58  N   -0.062269
    59  C    0.082847
    60  C    0.251596
    61  N   -0.278954
    62  H    0.040558
    63  C    0.174057
    64  N   -0.310331
    65  H    0.039639
    66  C    0.141331
    67  N   -0.262743
    68  C    0.028301
    69  C    0.179617
    70  N   -0.314345
 Sum of Mulliken charges =  -0.00000

 Dipole moment (field-independent basis, Debye):
    X=             -9.4541    Y=              5.1023    Z=             -1.4079  Tot=             10.8349
 Quadrupole moment (field-independent basis, Debye-Ang):
   XX=           -171.7479   YY=           -207.5827   ZZ=           -252.4603
   XY=              7.8323   XZ=            -12.8696   YZ=              4.8875

 Normal termination of Gaussian 16 at Sat Jan 27 10:39:25 2018.
