 Gaussian 16, Revision A.03,
 Gaussian 16:  EM64L-G16RevA.03 25-Dec-2016

 ---------------------------------------
 #p wb97xd/cc-pvdz sp scf=(maxcycles=20)
 ---------------------------------------

 ------------------
 Base pair stacking
 ------------------
 Symbolic Z-matrix:
 Charge =  0 Multiplicity = 1

                         Standard orientation:
 ---------------------------------------------------------------------
 Center     Atomic      Atomic             Coordinates (Angstroms)
 Number     Number       Type             X           Y           Z
 ---------------------------------------------------------------------
      1          7           0       -7.224682   -1.610711    0.021434
      2          6           0       -8.627824   -1.179663   -0.131498
      3          6           0       -5.057224   -1.635457    0.394019
      4          7           0       -5.407852   -2.934653    0.056574
      5          6           0       -6.699636   -2.867751   -0.154386
      6          1           0       -7.325260   -3.712808   -0.443185
      7          7           0       -3.822514    0.275559    1.015698
      8          6           0       -4.977267    0.946912    0.957184
      9          1           0       -4.910865    2.007848    1.194400
     10          7           0       -6.195978    0.506560    0.651072
     11          6           0       -6.166563   -0.808068    0.376604
     12          6           0       -3.826161   -1.045710    0.734053
     13          7           0       -2.674470   -1.717587    0.791932
     14          1           0       -2.630256   -2.696897    0.591353
     15          1           0       -1.817067   -1.265226    1.037611
     16          1           0       -9.205957   -1.689694    0.505532
     17          1           0       -8.700144   -0.202046    0.063821
     18          1           0       -8.932132   -1.354158   -1.067952
     19          7           0       -1.333174    3.160347   -1.917618
     20          6           0       -0.109855    2.595570   -1.648198
     21          6           0       -1.617385    4.609223   -1.943773
     22          7           0        3.253595    2.941509   -0.854960
     23          1           0        4.037527    2.343932   -0.688823
     24          1           0        3.412667    3.927043   -0.790645
     25          7           0        1.028890    3.263968   -1.364391
     26          6           0        2.043045    2.444536   -1.150750
     27          7           0        1.951141    1.075027   -1.210039
     28          1           0        2.778909    0.527140   -1.032316
     29          6           0        0.789753    0.365937   -1.500239
     30          8           0        0.814188   -0.870717   -1.528747
     31          6           0       -0.308337    1.232719   -1.732133
     32          7           0       -1.629669    0.947631   -2.047883
     33          6           0       -2.198165    2.118533   -2.147965
     34          1           0       -3.249557    2.279819   -2.388476
     35          1           0       -2.315521    4.825987   -1.262282
     36          1           0       -0.781163    5.114576   -1.734962
     37          1           0       -1.945322    4.869920   -2.851133
     38          1           0        7.089387   -1.635650    0.578550
     39          1           0        7.382311   -1.849445   -1.145735
     40          1           0        6.465250   -0.455310   -0.574109
     41          1           0        4.268956   -5.425722   -0.330946
     42          6           0        4.266027   -4.344010   -0.465569
     43          8           0        1.933400   -4.216803   -0.877625
     44          6           0        3.033474   -3.678104   -0.757523
     45          1           0        2.291143   -1.804919   -1.115891
     46          7           0        3.141087   -2.310340   -0.908832
     47          8           0        4.277324   -0.344745   -0.959517
     48          6           0        4.281818   -1.553847   -0.808837
     49          1           0        6.358181   -4.091841   -0.141403
     50          6           0        5.395103   -3.633348   -0.361864
     51          6           0        6.673435   -1.501986   -0.408968
     52          7           0        5.429411   -2.267888   -0.525347
     53          1           0        2.595355    4.368047    3.193952
     54          1           0        1.517237    4.347925    1.969456
     55          1           0        3.115884    4.419300    1.648033
     56          1           0        0.814894   -2.633514    1.498797
     57          1           0        2.369040   -2.180175    2.036562
     58          7           0        1.454855   -1.903355    1.738485
     59          6           0        1.105694   -0.617373    1.664295
     60          6           0        1.461527    1.726935    1.862679
     61          7           0        0.226882    2.069274    1.459072
     62          1           0       -1.510055    1.171244    0.844905
     63          6           0       -0.491319    0.983071    1.181101
     64          7           0       -0.143413   -0.305763    1.254787
     65          1           0        4.492967    2.166619    2.896690
     66          6           0        3.539502    1.756673    2.562346
     67          7           0        3.282397    0.478067    2.432952
     68          6           0        1.968087    0.445253    1.989948
     69          6           0        2.422874    4.044050    2.263747
     70          7           0        2.482166    2.569723    2.234157
 ---------------------------------------------------------------------

 SCF Done:  E(RwB97XD) =  -2048.74057573     A.U. after   15 cycles

 The electronic state is 1-A.
 Alpha  occ. eigenvalues --  -19.26243 -19.22637 -19.21135 -14.52901 -14.50844
 Alpha  occ. eigenvalues --  -14.49116 -14.48804 -14.48394 -14.47720 -14.47545
 Alpha  occ. eigenvalues --  -14.46370 -14.43972 -14.42641 -14.42385 -14.42345
 Alpha  occ. eigenvalues --  -14.42073 -14.41507 -14.41098 -14.40850 -14.40086
 Alpha  occ. eigenvalues --  -10.45918 -10.41875 -10.40710 -10.38748 -10.38282
 Alpha  occ. eigenvalues --  -10.38100 -10.36480 -10.35621 -10.35444 -10.35376
 Alpha  occ. eigenvalues --  -10.34697 -10.34158 -10.33954 -10.33576 -10.33390
 Alpha  occ. eigenvalues --  -10.33033 -10.32649 -10.31570 -10.31157 -10.30939
 Alpha  occ. eigenvalues --  -10.30901 -10.28576 -10.28506  -1.19856  -1.13894
 Alpha  occ. eigenvalues --   -1.13625  -1.13459  -1.11395  -1.10981  -1.09791
 Alpha  occ. eigenvalues --   -1.09248  -1.07427  -1.04944  -1.03123  -1.02947
 Alpha  occ. eigenvalues --   -1.00604  -1.00381  -0.99375  -0.99033  -0.96985
 Alpha  occ. eigenvalues --   -0.96949  -0.94996  -0.92577  -0.91526  -0.86032
 Alpha  occ. eigenvalues --   -0.84537  -0.84410  -0.84080  -0.83953  -0.82861
 Alpha  occ. eigenvalues --   -0.82323  -0.79361  -0.75380  -0.75093  -0.74306
 Alpha  occ. eigenvalues --   -0.73854  -0.73053  -0.72890  -0.71038  -0.68768
 Alpha  occ. eigenvalues --   -0.68011  -0.67028  -0.66285  -0.65138  -0.64895
 Alpha  occ. eigenvalues --   -0.64187  -0.63163  -0.62766  -0.62473  -0.62418
 Alpha  occ. eigenvalues --   -0.60155  -0.59997  -0.59974  -0.59246  -0.58956
 Alpha  occ. eigenvalues --   -0.58739  -0.58052  -0.56907  -0.56456  -0.56397
 Alpha  occ. eigenvalues --   -0.56389  -0.55334  -0.54848  -0.54715  -0.54092
 Alpha  occ. eigenvalues --   -0.53799  -0.53705  -0.53385  -0.52837  -0.52255
 Alpha  occ. eigenvalues --   -0.51922  -0.51684  -0.51246  -0.50724  -0.50602
 Alpha  occ. eigenvalues --   -0.50153  -0.49863  -0.49300  -0.49119  -0.48967
 Alpha  occ. eigenvalues --   -0.48694  -0.48621  -0.48163  -0.47889  -0.47428
 Alpha  occ. eigenvalues --   -0.46931  -0.45314  -0.45096  -0.44508  -0.43217
 Alpha  occ. eigenvalues --   -0.41147  -0.39854  -0.39269  -0.37771  -0.37740
 Alpha  occ. eigenvalues --   -0.37163  -0.36767  -0.35924  -0.35676  -0.35238
 Alpha  occ. eigenvalues --   -0.33777  -0.33552  -0.33500  -0.33167  -0.32957
 Alpha  occ. eigenvalues --   -0.32515  -0.32445  -0.32253  -0.32166  -0.30946
 Alpha  occ. eigenvalues --   -0.30289  -0.28282  -0.25892  -0.25757
 Alpha virt. eigenvalues --    0.02579   0.05497   0.07955   0.07995   0.08423
 Alpha virt. eigenvalues --    0.08938   0.09571   0.11036   0.11430   0.12377
 Alpha virt. eigenvalues --    0.12828   0.13967   0.14313   0.14707   0.15117

 Mulliken charges:
               1
     1  N   -0.310752
     2  C    0.181104
     3  C    0.027619
     4  N   -0.258919
     5  C    0.133253
     6  H    0.026550
     7  N   -0.291775
     8  C    0.133166
     9  H    0.009624
    10  N   -0.289172
    11  C    0.242546
    12  C    0.122588
    13  N   -0.055801
    14  H    0.109027
    15  H    0.090183
    16  H    0.025345
    17  H    0.035351
    18  H    0.025917
    19  N   -0.308962
    20  C    0.267058
    21  C    0.183106
    22  N   -0.113530
    23  H    0.117696
    24  H    0.118960
    25  N   -0.292387
    26  C    0.202365
    27  N   -0.120012
    28  H    0.121674
    29  C    0.171295
    30  O   -0.321524
    31  C   -0.026499
    32  N   -0.214145
    33  C    0.127304
    34  H    0.031401
    35  H    0.030447
    36  H    0.026550
    37  H    0.025335
    38  H    0.062338
    39  H    0.060900
    40  H    0.076120
    41  H    0.033700
    42  C   -0.110036
    43  O   -0.269050
    44  C    0.165897
    45  H    0.134544
    46  N   -0.136364
    47  O   -0.348204
    48  C    0.360283
    49  H    0.050308
    50  C    0.172395
    51  C    0.042456
    52  N   -0.298428
    53  H    0.030501
    54  H    0.044561
    55  H    0.000990
    56  H    0.126208
    57  H    0.111114
    58  N   -0.060909
    59  C    0.091808
    60  C    0.225733
    61  N   -0.259546
    62  H    0.037882
    63  C    0.169251
    64  N   -0.296353
    65  H    0.025394
    66  C    0.119314
    67  N   -0.263893
    68  C    0.030685
    69  C    0.185924
    70  N   -0.297508
 Sum of Mulliken charges =  -0.00000

 Dipole moment (field-independent basis, Debye):
    X=              9.3175    Y=              4.6060    Z=              1.6001  Tot=             10.5162
 Quadrupole moment (field-independent basis, Debye-Ang):
   XX=           -150.9973   YY=           -210.6235   ZZ=           -249.0925
   XY=             -1.9483   XZ=             13.1946   YZ=             -7.9664

 Normal termination of Gaussian 16 at Sat Jan 27 00:00:56 2018.
