 Gaussian 16, Revision A.03,
 Gaussian 16:  EM64L-G16RevA.03 25-Dec-2016

 ---------------------------------------
 #p wb97xd/cc-pvdz sp scf=(maxcycles=20)
 ---------------------------------------

 ------------------
 Base pair stacking
 ------------------
 Symbolic Z-matrix:
 Charge =  0 Multiplicity = 1

                         Standard orientation:
 ---------------------------------------------------------------------
 Center     Atomic      Atomic             Coordinates (Angstroms)
 Number     Number       Type             X           Y           Z
 ---------------------------------------------------------------------
      1          7           0        4.291291   -2.167927   -1.825481
      2          6           0        5.712284   -1.797424   -1.972183
      3          6           0        2.101940   -2.085683   -1.632364
      4          7           0        2.444579   -3.429554   -1.595526
      5          6           0        3.749864   -3.425313   -1.713350
      6          1           0        4.374274   -4.319148   -1.724570
      7          7           0        0.871805   -0.073314   -1.622920
      8          6           0        2.044038    0.554857   -1.760190
      9          1           0        1.986365    1.641352   -1.809736
     10          7           0        3.271045    0.044808   -1.845044
     11          6           0        3.229701   -1.295954   -1.773768
     12          6           0        0.863797   -1.422496   -1.554220
     13          7           0       -0.305358   -2.051369   -1.417193
     14          1           0       -0.358689   -3.049036   -1.362125
     15          1           0       -1.167342   -1.546976   -1.364942
     16          1           0        6.081490   -2.210087   -2.804998
     17          1           0        5.793971   -0.802873   -2.029652
     18          1           0        6.228269   -2.127435   -1.181711
     19          7           0        4.563084    3.215081    0.655825
     20          6           0        3.287426    2.720892    0.784342
     21          6           0        4.907858    4.605972    0.299081
     22          7           0       -0.150219    3.200964    0.666653
     23          1           0       -0.976343    2.656052    0.807467
     24          1           0       -0.277215    4.162248    0.420645
     25          7           0        2.143798    3.417296    0.607734
     26          6           0        1.073351    2.667469    0.801407
     27          7           0        1.117337    1.337229    1.142035
     28          1           0        0.248067    0.842331    1.270119
     29          6           0        2.282700    0.600430    1.328955
     30          8           0        2.212209   -0.596138    1.635519
     31          6           0        3.440988    1.392501    1.124325
     32          7           0        4.785988    1.059420    1.207574
     33          6           0        5.412170    2.168847    0.922483
     34          1           0        6.496638    2.279709    0.892431
     35          1           0        5.441703    4.612599   -0.545770
     36          1           0        4.068581    5.131447    0.165779
     37          1           0        5.444123    5.017497    1.035198
     38          1           0       -4.404468   -1.204002    1.131666
     39          1           0       -4.307212   -1.029229    2.882285
     40          1           0       -3.484800    0.127054    1.834414
     41          1           0       -1.616870   -4.965586    2.239070
     42          6           0       -1.536937   -3.884283    2.126686
     43          8           0        0.831578   -3.888116    1.995475
     44          6           0       -0.242827   -3.287757    1.995228
     45          1           0        0.641320   -1.456699    1.763297
     46          7           0       -0.254356   -1.914265    1.858747
     47          8           0       -1.263825    0.114702    1.712264
     48          6           0       -1.354386   -1.093876    1.837949
     49          1           0       -3.635236   -3.514664    2.206355
     50          6           0       -2.628450   -3.110367    2.110046
     51          6           0       -3.769836   -0.907688    1.953564
     52          7           0       -2.566003   -1.743301    1.970106
     53          1           0       -5.620954    4.453952   -1.449249
     54          1           0       -4.275876    4.213127   -0.557711
     55          1           0       -5.737057    4.265854    0.167713
     56          1           0       -3.910582   -2.766051   -1.340728
     57          1           0       -5.518590   -2.198562   -1.389637
     58          7           0       -4.543735   -1.993201   -1.296299
     59          6           0       -4.108463   -0.743890   -1.120420
     60          6           0       -4.357129    1.608738   -0.865426
     61          7           0       -3.042256    1.854821   -0.743111
     62          1           0       -1.266002    0.832337   -0.734957
     63          6           0       -2.345922    0.722841   -0.824676
     64          7           0       -2.780025   -0.529400   -1.000810
     65          1           0       -7.517326    2.274596   -1.013637
     66          6           0       -6.537856    1.795673   -0.999291
     67          7           0       -6.336027    0.507745   -1.134196
     68          6           0       -4.957483    0.375618   -1.051193
     69          6           0       -5.243179    3.980271   -0.653700
     70          7           0       -5.384068    2.522160   -0.832778
 ---------------------------------------------------------------------

 SCF Done:  E(RwB97XD) =  -2048.74578631     A.U. after   15 cycles

 The electronic state is 1-A.
 Alpha  occ. eigenvalues --  -19.25041 -19.21092 -19.20405 -14.52748 -14.51679
 Alpha  occ. eigenvalues --  -14.49397 -14.48709 -14.48264 -14.46986 -14.46426
 Alpha  occ. eigenvalues --  -14.46086 -14.45646 -14.45205 -14.45132 -14.43297
 Alpha  occ. eigenvalues --  -14.41831 -14.41054 -14.40890 -14.40830 -14.40594
 Alpha  occ. eigenvalues --  -10.44652 -10.40871 -10.40776 -10.39221 -10.38221
 Alpha  occ. eigenvalues --  -10.37952 -10.37789 -10.37205 -10.36587 -10.35825
 Alpha  occ. eigenvalues --  -10.34255 -10.34141 -10.34116 -10.33759 -10.33290
 Alpha  occ. eigenvalues --  -10.33200 -10.33144 -10.33013 -10.30949 -10.30525
 Alpha  occ. eigenvalues --  -10.30075 -10.28491 -10.27914  -1.18655  -1.15553
 Alpha  occ. eigenvalues --   -1.12934  -1.12116  -1.10966  -1.10442  -1.10172
 Alpha  occ. eigenvalues --   -1.08563  -1.08239  -1.05720  -1.05304  -1.01626
 Alpha  occ. eigenvalues --   -1.01336  -1.00828  -0.99289  -0.98303  -0.97683
 Alpha  occ. eigenvalues --   -0.96681  -0.96468  -0.92973  -0.90392  -0.88132
 Alpha  occ. eigenvalues --   -0.86241  -0.83976  -0.83643  -0.82863  -0.82392
 Alpha  occ. eigenvalues --   -0.81880  -0.78174  -0.77655  -0.75515  -0.74411
 Alpha  occ. eigenvalues --   -0.73245  -0.73007  -0.72562  -0.71142  -0.70990
 Alpha  occ. eigenvalues --   -0.67558  -0.67014  -0.66397  -0.65825  -0.64871
 Alpha  occ. eigenvalues --   -0.64097  -0.63312  -0.62878  -0.62348  -0.61411
 Alpha  occ. eigenvalues --   -0.61119  -0.60823  -0.60158  -0.59952  -0.59107
 Alpha  occ. eigenvalues --   -0.58895  -0.57892  -0.56858  -0.56471  -0.55908
 Alpha  occ. eigenvalues --   -0.55659  -0.55647  -0.55496  -0.55106  -0.54092
 Alpha  occ. eigenvalues --   -0.53857  -0.53558  -0.53224  -0.53157  -0.52713
 Alpha  occ. eigenvalues --   -0.52480  -0.51761  -0.51387  -0.50488  -0.50443
 Alpha  occ. eigenvalues --   -0.49950  -0.49890  -0.49394  -0.48884  -0.48852
 Alpha  occ. eigenvalues --   -0.48518  -0.47829  -0.47602  -0.47545  -0.46940
 Alpha  occ. eigenvalues --   -0.46739  -0.45711  -0.45436  -0.44585  -0.43165
 Alpha  occ. eigenvalues --   -0.41297  -0.41154  -0.38844  -0.38300  -0.38161
 Alpha  occ. eigenvalues --   -0.37336  -0.37068  -0.36710  -0.35536  -0.35221
 Alpha  occ. eigenvalues --   -0.34979  -0.33944  -0.33493  -0.33264  -0.32679
 Alpha  occ. eigenvalues --   -0.32454  -0.32168  -0.31675  -0.31164  -0.30809
 Alpha  occ. eigenvalues --   -0.30610  -0.30292  -0.26345  -0.24946
 Alpha virt. eigenvalues --    0.03444   0.03707   0.06442   0.07879   0.09125
 Alpha virt. eigenvalues --    0.09393   0.09912   0.10266   0.11027   0.11302
 Alpha virt. eigenvalues --    0.13520   0.14425   0.14556   0.14752   0.15153

 Mulliken charges:
               1
     1  N   -0.313859
     2  C    0.184868
     3  C    0.061008
     4  N   -0.263680
     5  C    0.145115
     6  H    0.028231
     7  N   -0.286321
     8  C    0.117298
     9  H    0.020282
    10  N   -0.267096
    11  C    0.263972
    12  C    0.078700
    13  N   -0.072851
    14  H    0.107161
    15  H    0.083939
    16  H    0.019428
    17  H    0.035450
    18  H    0.033823
    19  N   -0.310992
    20  C    0.241150
    21  C    0.180920
    22  N   -0.109371
    23  H    0.115580
    24  H    0.115069
    25  N   -0.306455
    26  C    0.220993
    27  N   -0.119328
    28  H    0.114755
    29  C    0.159185
    30  O   -0.320005
    31  C    0.013866
    32  N   -0.230490
    33  C    0.123782
    34  H    0.021930
    35  H    0.026698
    36  H    0.028982
    37  H    0.024565
    38  H    0.051770
    39  H    0.056398
    40  H    0.075279
    41  H    0.028853
    42  C   -0.112926
    43  O   -0.258241
    44  C    0.175319
    45  H    0.136707
    46  N   -0.129315
    47  O   -0.345778
    48  C    0.355048
    49  H    0.042213
    50  C    0.160461
    51  C    0.042750
    52  N   -0.283855
    53  H    0.034909
    54  H    0.036773
    55  H    0.032406
    56  H    0.117064
    57  H    0.122019
    58  N   -0.060100
    59  C    0.056268
    60  C    0.249271
    61  N   -0.282944
    62  H    0.012229
    63  C    0.200102
    64  N   -0.305657
    65  H    0.040460
    66  C    0.143616
    67  N   -0.259818
    68  C    0.035263
    69  C    0.181411
    70  N   -0.314256
 Sum of Mulliken charges =  -0.00000

 Dipole moment (field-independent basis, Debye):
    X=             -9.3214    Y=              5.1988    Z=             -1.6090  Tot=             10.7938
 Quadrupole moment (field-independent basis, Debye-Ang):
   XX=           -177.5973   YY=           -207.9851   ZZ=           -251.5910
   XY=              9.3633   XZ=            -19.4657   YZ=              6.8835

 Normal termination of Gaussian 16 at Sat Jan 27 03:48:31 2018.
