 Gaussian 16, Revision A.03,
 Gaussian 16:  EM64L-G16RevA.03 25-Dec-2016

 ---------------------------------------
 #p wb97xd/cc-pvdz sp scf=(maxcycles=20)
 ---------------------------------------

 ------------------
 Base pair stacking
 ------------------
 Symbolic Z-matrix:
 Charge =  0 Multiplicity = 1

                         Standard orientation:
 ---------------------------------------------------------------------
 Center     Atomic      Atomic             Coordinates (Angstroms)
 Number     Number       Type             X           Y           Z
 ---------------------------------------------------------------------
      1          7           0        4.620441   -2.237162   -1.758726
      2          6           0        6.025663   -1.880532   -2.034719
      3          6           0        2.436723   -2.157054   -1.509197
      4          7           0        2.816527   -3.452699   -1.190168
      5          6           0        4.116937   -3.449111   -1.353270
      6          1           0        4.764609   -4.311022   -1.190281
      7          7           0        1.153557   -0.216619   -1.897948
      8          6           0        2.303565    0.388520   -2.212400
      9          1           0        2.215048    1.435953   -2.497539
     10          7           0        3.540681   -0.103645   -2.227423
     11          6           0        3.537798   -1.396154   -1.861596
     12          6           0        1.184141   -1.517265   -1.533983
     13          7           0        0.037223   -2.123065   -1.219733
     14          1           0        0.012598   -3.084824   -0.944707
     15          1           0       -0.836030   -1.636488   -1.248472
     16          1           0        6.379856   -2.459532   -2.769211
     17          1           0        6.078634   -0.921778   -2.312424
     18          1           0        6.574675   -2.017806   -1.210263
     19          7           0        4.228266    3.370757    0.866997
     20          6           0        2.958675    2.868739    1.022496
     21          6           0        4.560564    4.785107    0.602634
     22          7           0       -0.478210    3.358478    1.121129
     23          1           0       -1.298468    2.804680    1.261593
     24          1           0       -0.613290    4.336143    0.957920
     25          7           0        1.810679    3.577477    0.960403
     26          6           0        0.748216    2.815381    1.150141
     27          7           0        0.803590    1.462534    1.383037
     28          1           0       -0.060175    0.959618    1.516959
     29          6           0        1.973640    0.712714    1.451114
     30          8           0        1.913553   -0.504139    1.666477
     31          6           0        3.123459    1.517720    1.249207
     32          7           0        4.469410    1.178391    1.236299
     33          6           0        5.085144    2.306377    1.006683
     34          1           0        6.167116    2.418643    0.929181
     35          1           0        5.050075    4.857544   -0.265664
     36          1           0        3.717959    5.319865    0.554517
     37          1           0        5.136035    5.137443    1.339857
     38          1           0       -4.723058   -1.066975    1.460513
     39          1           0       -4.534683   -1.029837    3.212017
     40          1           0       -3.762165    0.204464    2.216481
     41          1           0       -1.899373   -4.905269    2.124501
     42          6           0       -1.820360   -3.818541    2.092958
     43          8           0        0.538173   -3.813425    1.839190
     44          6           0       -0.532033   -3.214282    1.941581
     45          1           0        0.347410   -1.371178    1.807917
     46          7           0       -0.544251   -1.834310    1.913635
     47          8           0       -1.550554    0.200464    1.978713
     48          6           0       -1.640086   -1.014193    2.014096
     49          1           0       -3.910009   -3.455108    2.309990
     50          6           0       -2.907686   -3.045084    2.193493
     51          6           0       -4.045454   -0.836275    2.269018
     52          7           0       -2.846235   -1.671285    2.157754
     53          1           0       -5.450620    4.109796   -2.488909
     54          1           0       -4.072488    4.097969   -1.615588
     55          1           0       -5.511326    4.280981   -0.867046
     56          1           0       -3.543267   -2.873433   -0.857344
     57          1           0       -5.166758   -2.362212   -0.971523
     58          7           0       -4.195374   -2.122343   -0.961034
     59          6           0       -3.788774   -0.856776   -1.080096
     60          6           0       -4.092868    1.488808   -1.339875
     61          7           0       -2.781953    1.781425   -1.322419
     62          1           0       -0.979331    0.820806   -1.153992
     63          6           0       -2.058159    0.673161   -1.178234
     64          7           0       -2.463535   -0.595294   -1.058813
     65          1           0       -7.272977    2.043755   -1.516240
     66          6           0       -6.280951    1.599006   -1.432443
     67          7           0       -6.048687    0.317256   -1.288044
     68          6           0       -4.665167    0.233630   -1.228036
     69          6           0       -5.035663    3.830844   -1.622896
     70          7           0       -5.142602    2.366697   -1.471709
 ---------------------------------------------------------------------

 SCF Done:  E(RwB97XD) =  -2048.74478921     A.U. after   15 cycles

 The electronic state is 1-A.
 Alpha  occ. eigenvalues --  -19.25370 -19.21571 -19.20534 -14.52503 -14.52082
 Alpha  occ. eigenvalues --  -14.49038 -14.48879 -14.47908 -14.47346 -14.46788
 Alpha  occ. eigenvalues --  -14.46514 -14.45455 -14.44860 -14.44711 -14.42596
 Alpha  occ. eigenvalues --  -14.42001 -14.40964 -14.40554 -14.40426 -14.40093
 Alpha  occ. eigenvalues --  -10.45037 -10.41177 -10.40431 -10.39673 -10.38176
 Alpha  occ. eigenvalues --  -10.38047 -10.37699 -10.37420 -10.36127 -10.35268
 Alpha  occ. eigenvalues --  -10.34724 -10.34390 -10.33904 -10.33406 -10.33306
 Alpha  occ. eigenvalues --  -10.32944 -10.32706 -10.32634 -10.31059 -10.31009
 Alpha  occ. eigenvalues --  -10.30011 -10.28132 -10.27969  -1.18963  -1.15291
 Alpha  occ. eigenvalues --   -1.13145  -1.12573  -1.10621  -1.10555  -1.09788
 Alpha  occ. eigenvalues --   -1.08952  -1.08486  -1.05320  -1.04761  -1.02014
 Alpha  occ. eigenvalues --   -1.01100  -1.00259  -0.99627  -0.98520  -0.97295
 Alpha  occ. eigenvalues --   -0.96650  -0.96263  -0.92451  -0.90860  -0.87815
 Alpha  occ. eigenvalues --   -0.86000  -0.84160  -0.83243  -0.83224  -0.82570
 Alpha  occ. eigenvalues --   -0.81601  -0.78597  -0.77340  -0.75141  -0.74623
 Alpha  occ. eigenvalues --   -0.73550  -0.72956  -0.72515  -0.70771  -0.70545
 Alpha  occ. eigenvalues --   -0.67323  -0.67192  -0.66205  -0.65925  -0.64571
 Alpha  occ. eigenvalues --   -0.64336  -0.63622  -0.62568  -0.62380  -0.61695
 Alpha  occ. eigenvalues --   -0.60850  -0.60462  -0.59921  -0.59525  -0.59286
 Alpha  occ. eigenvalues --   -0.59223  -0.58240  -0.56713  -0.56231  -0.55709
 Alpha  occ. eigenvalues --   -0.55467  -0.55445  -0.55258  -0.54669  -0.54145
 Alpha  occ. eigenvalues --   -0.53861  -0.53535  -0.53471  -0.52994  -0.52950
 Alpha  occ. eigenvalues --   -0.52786  -0.52088  -0.51095  -0.50228  -0.50162
 Alpha  occ. eigenvalues --   -0.50000  -0.49632  -0.49464  -0.49109  -0.48709
 Alpha  occ. eigenvalues --   -0.48486  -0.48151  -0.47892  -0.47737  -0.47168
 Alpha  occ. eigenvalues --   -0.46378  -0.45635  -0.45332  -0.44413  -0.43677
 Alpha  occ. eigenvalues --   -0.40896  -0.40787  -0.39057  -0.38046  -0.37830
 Alpha  occ. eigenvalues --   -0.37277  -0.37249  -0.36498  -0.35456  -0.35037
 Alpha  occ. eigenvalues --   -0.34750  -0.33922  -0.33044  -0.32937  -0.32833
 Alpha  occ. eigenvalues --   -0.32531  -0.32503  -0.31855  -0.31700  -0.30528
 Alpha  occ. eigenvalues --   -0.30328  -0.29978  -0.25737  -0.25218
 Alpha virt. eigenvalues --    0.02955   0.04047   0.06635   0.08360   0.08918
 Alpha virt. eigenvalues --    0.09362   0.09812   0.10461   0.11170   0.11396
 Alpha virt. eigenvalues --    0.13358   0.14524   0.14530   0.14825   0.15065

 Mulliken charges:
               1
     1  N   -0.313536
     2  C    0.183694
     3  C    0.055094
     4  N   -0.255875
     5  C    0.141368
     6  H    0.026187
     7  N   -0.297920
     8  C    0.133858
     9  H    0.010729
    10  N   -0.281246
    11  C    0.262643
    12  C    0.096621
    13  N   -0.071252
    14  H    0.111920
    15  H    0.081559
    16  H    0.020430
    17  H    0.033480
    18  H    0.030703
    19  N   -0.311424
    20  C    0.249055
    21  C    0.180767
    22  N   -0.116859
    23  H    0.115645
    24  H    0.116106
    25  N   -0.312028
    26  C    0.245592
    27  N   -0.145327
    28  H    0.117587
    29  C    0.191182
    30  O   -0.321777
    31  C   -0.012464
    32  N   -0.228340
    33  C    0.127327
    34  H    0.023340
    35  H    0.027579
    36  H    0.029257
    37  H    0.024963
    38  H    0.049080
    39  H    0.059811
    40  H    0.075097
    41  H    0.030057
    42  C   -0.114361
    43  O   -0.252577
    44  C    0.162157
    45  H    0.135991
    46  N   -0.124727
    47  O   -0.349166
    48  C    0.353255
    49  H    0.042322
    50  C    0.156202
    51  C    0.042018
    52  N   -0.282667
    53  H    0.034681
    54  H    0.040056
    55  H    0.029937
    56  H    0.117629
    57  H    0.120366
    58  N   -0.065459
    59  C    0.085561
    60  C    0.249762
    61  N   -0.275391
    62  H    0.035003
    63  C    0.179007
    64  N   -0.315271
    65  H    0.039334
    66  C    0.142718
    67  N   -0.263010
    68  C    0.027646
    69  C    0.179826
    70  N   -0.313527
 Sum of Mulliken charges =  -0.00000

 Dipole moment (field-independent basis, Debye):
    X=             -9.2781    Y=              5.4443    Z=             -0.3794  Tot=             10.7642
 Quadrupole moment (field-independent basis, Debye-Ang):
   XX=           -175.4268   YY=           -206.5525   ZZ=           -249.7048
   XY=              7.7609   XZ=            -15.4214   YZ=              1.8996

 Normal termination of Gaussian 16 at Sat Jan 27 11:46:19 2018.
