 Gaussian 16, Revision A.03,
 Gaussian 16:  EM64L-G16RevA.03 25-Dec-2016

 ---------------------------------------
 #p wb97xd/cc-pvdz sp scf=(maxcycles=20)
 ---------------------------------------

 ------------------
 Base pair stacking
 ------------------
 Symbolic Z-matrix:
 Charge =  0 Multiplicity = 1

                         Standard orientation:
 ---------------------------------------------------------------------
 Center     Atomic      Atomic             Coordinates (Angstroms)
 Number     Number       Type             X           Y           Z
 ---------------------------------------------------------------------
      1          7           0       -6.724264   -1.623919    0.377202
      2          6           0       -8.120842   -1.174756    0.216445
      3          6           0       -4.550818   -1.668108    0.711099
      4          7           0       -4.935220   -2.981497    0.483113
      5          6           0       -6.229262   -2.902301    0.291074
      6          1           0       -6.878068   -3.753083    0.080929
      7          7           0       -3.264251    0.257425    1.158303
      8          6           0       -4.405619    0.947906    1.068279
      9          1           0       -4.312313    2.022358    1.220233
     10          7           0       -5.639142    0.512441    0.819880
     11          6           0       -5.642723   -0.819926    0.648969
     12          6           0       -3.301169   -1.081385    0.981361
     13          7           0       -2.162872   -1.772362    1.070838
     14          1           0       -2.143172   -2.765082    0.946990
     15          1           0       -1.291466   -1.321540    1.264620
     16          1           0       -8.696749   -1.620395    0.901949
     17          1           0       -8.168773   -0.183492    0.335702
     18          1           0       -8.447291   -1.414967   -0.697737
     19          7           0       -1.937075    3.215085   -1.833404
     20          6           0       -0.707065    2.646766   -1.605048
     21          6           0       -2.237090    4.659158   -1.760273
     22          7           0        2.654260    2.974835   -0.795365
     23          1           0        3.445025    2.375986   -0.671601
     24          1           0        2.802758    3.955379   -0.664263
     25          7           0        0.425011    3.306748   -1.278124
     26          6           0        1.448503    2.485884   -1.122444
     27          7           0        1.371361    1.122668   -1.274817
     28          1           0        2.205452    0.573089   -1.136163
     29          6           0        0.217077    0.422272   -1.610855
     30          8           0        0.254894   -0.809231   -1.723646
     31          6           0       -0.890908    1.290703   -1.781378
     32          7           0       -2.209790    1.013266   -2.113753
     33          6           0       -2.791221    2.181936   -2.132876
     34          1           0       -3.844853    2.347668   -2.360175
     35          1           0       -2.935952    4.821274   -1.064494
     36          1           0       -1.405920    5.158285   -1.518812
     37          1           0       -2.569943    4.977465   -2.647235
     38          1           0        6.542914   -1.646893    0.316694
     39          1           0        6.834141   -1.739433   -1.418609
     40          1           0        5.903312   -0.397674   -0.751822
     41          1           0        3.761755   -5.396969   -0.844627
     42          6           0        3.746752   -4.308700   -0.905180
     43          8           0        1.411929   -4.179381   -1.303923
     44          6           0        2.506363   -3.638056   -1.149119
     45          1           0        1.742871   -1.753079   -1.377771
     46          7           0        2.598732   -2.262051   -1.206992
     47          8           0        3.713420   -0.285183   -1.125340
     48          6           0        3.731402   -1.501635   -1.057458
     49          1           0        5.836792   -4.056198   -0.567882
     50          6           0        4.868275   -3.594370   -0.755051
     51          6           0        6.123240   -1.450810   -0.658750
     52          7           0        4.887354   -2.220664   -0.825109
     53          1           0        3.279964    4.362488    2.891521
     54          1           0        2.177530    4.271013    1.692206
     55          1           0        3.770607    4.281180    1.337153
     56          1           0        1.319912   -2.708355    1.783856
     57          1           0        2.893599   -2.249379    2.256031
     58          7           0        1.979662   -1.976243    1.953819
     59          6           0        1.656101   -0.692468    1.785269
     60          6           0        2.064820    1.651599    1.792520
     61          7           0        0.829845    1.988983    1.385801
     62          1           0       -0.937393    1.084939    0.875706
     63          6           0        0.083669    0.900786    1.207061
     64          7           0        0.405899   -0.385853    1.375342
     65          1           0        5.124771    2.102554    2.733532
     66          6           0        4.156473    1.689246    2.449791
     67          7           0        3.870123    0.410535    2.425856
     68          6           0        2.546869    0.372714    2.010770
     69          6           0        3.082279    3.970794    1.992919
     70          7           0        3.110070    2.497709    2.078068
 ---------------------------------------------------------------------

 SCF Done:  E(RwB97XD) =  -2048.73013407     A.U. after   15 cycles

 The electronic state is 1-A.
 Alpha  occ. eigenvalues --  -19.26078 -19.22309 -19.20767 -14.52701 -14.51656
 Alpha  occ. eigenvalues --  -14.48914 -14.48647 -14.48082 -14.47448 -14.47191
 Alpha  occ. eigenvalues --  -14.46926 -14.44682 -14.43240 -14.42955 -14.42131
 Alpha  occ. eigenvalues --  -14.42085 -14.41337 -14.40914 -14.40731 -14.39981
 Alpha  occ. eigenvalues --  -10.45712 -10.41466 -10.40401 -10.39029 -10.38374
 Alpha  occ. eigenvalues --  -10.38109 -10.37283 -10.36173 -10.35362 -10.35271
 Alpha  occ. eigenvalues --  -10.34556 -10.34503 -10.33995 -10.33571 -10.33378
 Alpha  occ. eigenvalues --  -10.33232 -10.32924 -10.31818 -10.31410 -10.31047
 Alpha  occ. eigenvalues --  -10.30824 -10.28415 -10.28308  -1.19660  -1.14447
 Alpha  occ. eigenvalues --   -1.13404  -1.13312  -1.11231  -1.10740  -1.09584
 Alpha  occ. eigenvalues --   -1.08886  -1.08334  -1.04821  -1.03901  -1.02743
 Alpha  occ. eigenvalues --   -1.00558  -1.00294  -0.99929  -0.98672  -0.96859
 Alpha  occ. eigenvalues --   -0.96715  -0.95865  -0.92471  -0.91335  -0.86863
 Alpha  occ. eigenvalues --   -0.85340  -0.84309  -0.83835  -0.83811  -0.82689
 Alpha  occ. eigenvalues --   -0.82192  -0.79152  -0.76224  -0.74843  -0.74016
 Alpha  occ. eigenvalues --   -0.73876  -0.73599  -0.72776  -0.70915  -0.69648
 Alpha  occ. eigenvalues --   -0.67694  -0.66796  -0.66185  -0.66009  -0.64680
 Alpha  occ. eigenvalues --   -0.63983  -0.63516  -0.62898  -0.62563  -0.62267
 Alpha  occ. eigenvalues --   -0.60152  -0.59893  -0.59829  -0.59742  -0.59392
 Alpha  occ. eigenvalues --   -0.58997  -0.58752  -0.56920  -0.56417  -0.56253
 Alpha  occ. eigenvalues --   -0.56170  -0.55301  -0.55212  -0.54625  -0.54501
 Alpha  occ. eigenvalues --   -0.53861  -0.53595  -0.53149  -0.53015  -0.52610
 Alpha  occ. eigenvalues --   -0.52464  -0.52001  -0.51627  -0.50580  -0.50340
 Alpha  occ. eigenvalues --   -0.50058  -0.49639  -0.49238  -0.49027  -0.48682
 Alpha  occ. eigenvalues --   -0.48611  -0.48545  -0.48371  -0.47961  -0.47563
 Alpha  occ. eigenvalues --   -0.46813  -0.45715  -0.44945  -0.44296  -0.43230
 Alpha  occ. eigenvalues --   -0.41014  -0.39796  -0.39598  -0.37948  -0.37398
 Alpha  occ. eigenvalues --   -0.37036  -0.36956  -0.36590  -0.35709  -0.34529
 Alpha  occ. eigenvalues --   -0.33723  -0.33462  -0.33448  -0.33302  -0.33168
 Alpha  occ. eigenvalues --   -0.32805  -0.32488  -0.32245  -0.31955  -0.30728
 Alpha  occ. eigenvalues --   -0.30210  -0.29088  -0.25682  -0.25516
 Alpha virt. eigenvalues --    0.02771   0.04651   0.07684   0.08088   0.08231
 Alpha virt. eigenvalues --    0.09346   0.09390   0.10971   0.11387   0.12075
 Alpha virt. eigenvalues --    0.12650   0.14080   0.14088   0.14637   0.14957

 Mulliken charges:
               1
     1  N   -0.311337
     2  C    0.181248
     3  C    0.031578
     4  N   -0.259451
     5  C    0.133782
     6  H    0.026128
     7  N   -0.293254
     8  C    0.139064
     9  H    0.006439
    10  N   -0.290881
    11  C    0.245787
    12  C    0.126860
    13  N   -0.057700
    14  H    0.109411
    15  H    0.088857
    16  H    0.024731
    17  H    0.034490
    18  H    0.026296
    19  N   -0.312791
    20  C    0.240426
    21  C    0.182098
    22  N   -0.106581
    23  H    0.117272
    24  H    0.113950
    25  N   -0.285680
    26  C    0.206475
    27  N   -0.114120
    28  H    0.113652
    29  C    0.145545
    30  O   -0.314974
    31  C    0.005138
    32  N   -0.219763
    33  C    0.128100
    34  H    0.030371
    35  H    0.028704
    36  H    0.027390
    37  H    0.025124
    38  H    0.062431
    39  H    0.058999
    40  H    0.076102
    41  H    0.032720
    42  C   -0.112325
    43  O   -0.265005
    44  C    0.165839
    45  H    0.134607
    46  N   -0.131869
    47  O   -0.346010
    48  C    0.356044
    49  H    0.049067
    50  C    0.167903
    51  C    0.043937
    52  N   -0.295809
    53  H    0.034966
    54  H    0.047927
    55  H    0.011187
    56  H    0.126570
    57  H    0.113405
    58  N   -0.070081
    59  C    0.090635
    60  C    0.216542
    61  N   -0.254203
    62  H    0.060393
    63  C    0.152484
    64  N   -0.297674
    65  H    0.030971
    66  C    0.125917
    67  N   -0.266008
    68  C    0.041244
    69  C    0.168424
    70  N   -0.301717
 Sum of Mulliken charges =  -0.00000

 Dipole moment (field-independent basis, Debye):
    X=              9.0843    Y=              4.6540    Z=              2.3204  Tot=             10.4675
 Quadrupole moment (field-independent basis, Debye-Ang):
   XX=           -157.0297   YY=           -210.3135   ZZ=           -251.8532
   XY=             -4.3278   XZ=              8.7208   YZ=             -8.9461

 Normal termination of Gaussian 16 at Fri Jan 26 19:20:52 2018.
