 Gaussian 16, Revision A.03,
 Gaussian 16:  EM64L-G16RevA.03 25-Dec-2016

 ---------------------------------------
 #p wb97xd/cc-pvdz sp scf=(maxcycles=20)
 ---------------------------------------

 ------------------
 Base pair stacking
 ------------------
 Symbolic Z-matrix:
 Charge =  0 Multiplicity = 1

                         Standard orientation:
 ---------------------------------------------------------------------
 Center     Atomic      Atomic             Coordinates (Angstroms)
 Number     Number       Type             X           Y           Z
 ---------------------------------------------------------------------
      1          7           0       -6.769306   -1.613067    0.302888
      2          6           0       -8.176524   -1.172790    0.240279
      3          6           0       -4.588570   -1.664238    0.584068
      4          7           0       -4.955569   -2.934380    0.163620
      5          6           0       -6.254699   -2.852717    0.011045
      6          1           0       -6.893466   -3.673942   -0.315315
      7          7           0       -3.325279    0.195107    1.298138
      8          6           0       -4.479914    0.868034    1.337706
      9          1           0       -4.401524    1.907960    1.651797
     10          7           0       -5.711067    0.451173    1.048902
     11          6           0       -5.695821   -0.838815    0.674569
     12          6           0       -3.343373   -1.100986    0.917493
     13          7           0       -2.191817   -1.774387    0.877359
     14          1           0       -2.158004   -2.735623    0.601470
     15          1           0       -1.324104   -1.341274    1.121561
     16          1           0       -8.729461   -1.730155    0.859791
     17          1           0       -8.238616   -0.212867    0.511948
     18          1           0       -8.519009   -1.275999   -0.693555
     19          7           0       -1.822259    3.313257   -1.930141
     20          6           0       -0.597446    2.725770   -1.723405
     21          6           0       -2.081200    4.767068   -1.938690
     22          7           0        2.807054    3.008770   -1.098085
     23          1           0        3.587359    2.396688   -0.972658
     24          1           0        2.986915    3.991074   -1.039469
     25          7           0        0.565921    3.372713   -1.495175
     26          6           0        1.574488    2.534540   -1.334308
     27          7           0        1.455016    1.167097   -1.392150
     28          1           0        2.280573    0.603888   -1.257223
     29          6           0        0.267978    0.479893   -1.625742
     30          8           0        0.268625   -0.756908   -1.658334
     31          6           0       -0.824459    1.366974   -1.800537
     32          7           0       -2.164818    1.106645   -2.050659
     33          6           0       -2.716334    2.287873   -2.119514
     34          1           0       -3.775313    2.468766   -2.306911
     35          1           0       -2.740476    4.994103   -1.222724
     36          1           0       -1.226614    5.256679   -1.770659
     37          1           0       -2.449168    5.036561   -2.827954
     38          1           0        6.626166   -1.641075    0.131574
     39          1           0        6.828917   -1.854479   -1.605668
     40          1           0        5.966810   -0.445991   -0.985746
     41          1           0        3.695900   -5.376976   -0.645037
     42          6           0        3.705817   -4.294961   -0.776801
     43          8           0        1.358236   -4.124613   -1.071699
     44          6           0        2.472490   -3.606120   -1.005356
     45          1           0        1.747184   -1.718769   -1.321852
     46          7           0        2.597120   -2.240025   -1.158626
     47          8           0        3.764756   -0.294955   -1.261293
     48          6           0        3.754900   -1.504432   -1.113866
     49          1           0        5.815748   -4.081398   -0.556786
     50          6           0        4.851309   -3.605000   -0.727865
     51          6           0        6.164013   -1.496756   -0.833654
     52          7           0        4.902103   -2.239853   -0.889641
     53          1           0        3.185073    4.115771    3.517603
     54          1           0        2.058068    4.187727    2.339985
     55          1           0        3.642501    4.284565    1.960139
     56          1           0        1.321286   -2.738475    1.370226
     57          1           0        2.897031   -2.325966    1.877172
     58          7           0        1.972114   -2.028075    1.638380
     59          6           0        1.623163   -0.740455    1.676167
     60          6           0        1.992088    1.582336    2.037113
     61          7           0        0.742863    1.953305    1.711175
     62          1           0       -1.019633    1.103050    1.101838
     63          6           0        0.011486    0.890740    1.381084
     64          7           0        0.359163   -0.399696    1.342609
     65          1           0        5.064024    1.944774    2.977335
     66          6           0        4.096830    1.560596    2.651923
     67          7           0        3.831778    0.295284    2.436513
     68          6           0        2.500487    0.295099    2.046115
     69          6           0        2.974216    3.863127    2.573296
     70          7           0        3.028890    2.395350    2.429606
 ---------------------------------------------------------------------

 SCF Done:  E(RwB97XD) =  -2048.74087855     A.U. after   15 cycles

 The electronic state is 1-A.
 Alpha  occ. eigenvalues --  -19.26293 -19.22819 -19.20896 -14.52998 -14.51345
 Alpha  occ. eigenvalues --  -14.49012 -14.48463 -14.48294 -14.47438 -14.47292
 Alpha  occ. eigenvalues --  -14.46932 -14.44408 -14.42954 -14.42905 -14.42397
 Alpha  occ. eigenvalues --  -14.41722 -14.41133 -14.41013 -14.40497 -14.39733
 Alpha  occ. eigenvalues --  -10.45936 -10.41675 -10.40820 -10.38646 -10.38530
 Alpha  occ. eigenvalues --  -10.38452 -10.36971 -10.35953 -10.35568 -10.34998
 Alpha  occ. eigenvalues --  -10.34635 -10.34350 -10.33795 -10.33464 -10.33041
 Alpha  occ. eigenvalues --  -10.33019 -10.32687 -10.31725 -10.31508 -10.31116
 Alpha  occ. eigenvalues --  -10.30689 -10.28412 -10.28185  -1.19898  -1.14065
 Alpha  occ. eigenvalues --   -1.13786  -1.13542  -1.11035  -1.10847  -1.09876
 Alpha  occ. eigenvalues --   -1.08986  -1.07995  -1.04573  -1.03635  -1.03004
 Alpha  occ. eigenvalues --   -1.00327  -1.00018  -0.99864  -0.98852  -0.96830
 Alpha  occ. eigenvalues --   -0.96641  -0.95522  -0.92211  -0.91654  -0.86483
 Alpha  occ. eigenvalues --   -0.84881  -0.84403  -0.84083  -0.83617  -0.82765
 Alpha  occ. eigenvalues --   -0.81999  -0.79457  -0.75882  -0.74945  -0.74114
 Alpha  occ. eigenvalues --   -0.73878  -0.73546  -0.72536  -0.70683  -0.69286
 Alpha  occ. eigenvalues --   -0.67811  -0.67076  -0.65937  -0.65642  -0.64915
 Alpha  occ. eigenvalues --   -0.64137  -0.63128  -0.63032  -0.62309  -0.62198
 Alpha  occ. eigenvalues --   -0.60107  -0.60030  -0.59879  -0.59415  -0.58948
 Alpha  occ. eigenvalues --   -0.58832  -0.58463  -0.56887  -0.56379  -0.56180
 Alpha  occ. eigenvalues --   -0.56100  -0.55010  -0.54897  -0.54739  -0.54189
 Alpha  occ. eigenvalues --   -0.54022  -0.53818  -0.53295  -0.52852  -0.52684
 Alpha  occ. eigenvalues --   -0.52463  -0.51711  -0.51437  -0.50523  -0.50379
 Alpha  occ. eigenvalues --   -0.49912  -0.49842  -0.49322  -0.49015  -0.48935
 Alpha  occ. eigenvalues --   -0.48582  -0.48429  -0.48194  -0.47888  -0.47745
 Alpha  occ. eigenvalues --   -0.46598  -0.45669  -0.44732  -0.44653  -0.43452
 Alpha  occ. eigenvalues --   -0.40763  -0.39857  -0.39533  -0.37723  -0.37573
 Alpha  occ. eigenvalues --   -0.37265  -0.36810  -0.36347  -0.35603  -0.34716
 Alpha  occ. eigenvalues --   -0.33904  -0.33507  -0.33186  -0.33111  -0.32940
 Alpha  occ. eigenvalues --   -0.32875  -0.32666  -0.32556  -0.32067  -0.30551
 Alpha  occ. eigenvalues --   -0.29978  -0.28805  -0.25800  -0.25369
 Alpha virt. eigenvalues --    0.02385   0.05097   0.07682   0.08258   0.08352
 Alpha virt. eigenvalues --    0.09285   0.09314   0.11291   0.11529   0.11985
 Alpha virt. eigenvalues --    0.12505   0.14165   0.14453   0.14717   0.15089

 Mulliken charges:
               1
     1  N   -0.311086
     2  C    0.181229
     3  C    0.030836
     4  N   -0.258339
     5  C    0.132682
     6  H    0.025306
     7  N   -0.294622
     8  C    0.136593
     9  H    0.008112
    10  N   -0.291574
    11  C    0.243437
    12  C    0.126301
    13  N   -0.054887
    14  H    0.111368
    15  H    0.091273
    16  H    0.024551
    17  H    0.034416
    18  H    0.025433
    19  N   -0.312285
    20  C    0.249809
    21  C    0.181840
    22  N   -0.121590
    23  H    0.116713
    24  H    0.116960
    25  N   -0.301448
    26  C    0.231777
    27  N   -0.129708
    28  H    0.115247
    29  C    0.162511
    30  O   -0.318091
    31  C   -0.000798
    32  N   -0.220673
    33  C    0.129693
    34  H    0.030530
    35  H    0.029320
    36  H    0.027861
    37  H    0.025367
    38  H    0.063890
    39  H    0.060021
    40  H    0.076822
    41  H    0.033646
    42  C   -0.106909
    43  O   -0.266889
    44  C    0.145730
    45  H    0.134317
    46  N   -0.119702
    47  O   -0.345921
    48  C    0.351768
    49  H    0.050924
    50  C    0.167469
    51  C    0.043444
    52  N   -0.293600
    53  H    0.031399
    54  H    0.045687
    55  H    0.015445
    56  H    0.129252
    57  H    0.111039
    58  N   -0.067524
    59  C    0.090740
    60  C    0.237554
    61  N   -0.260291
    62  H    0.050656
    63  C    0.155125
    64  N   -0.297800
    65  H    0.030103
    66  C    0.129130
    67  N   -0.268264
    68  C    0.027346
    69  C    0.180208
    70  N   -0.308881
 Sum of Mulliken charges =  -0.00000

 Dipole moment (field-independent basis, Debye):
    X=              9.6907    Y=              4.6631    Z=              1.2230  Tot=             10.8236
 Quadrupole moment (field-independent basis, Debye-Ang):
   XX=           -156.6912   YY=           -209.0195   ZZ=           -249.2171
   XY=             -5.1252   XZ=              8.9747   YZ=             -5.7312

 Normal termination of Gaussian 16 at Sat Jan 27 02:28:25 2018.
