 Gaussian 16, Revision A.03,
 Gaussian 16:  EM64L-G16RevA.03 25-Dec-2016

 ---------------------------------------
 #p wb97xd/cc-pvdz sp scf=(maxcycles=20)
 ---------------------------------------

 ------------------
 Base pair stacking
 ------------------
 Symbolic Z-matrix:
 Charge =  0 Multiplicity = 1

                         Standard orientation:
 ---------------------------------------------------------------------
 Center     Atomic      Atomic             Coordinates (Angstroms)
 Number     Number       Type             X           Y           Z
 ---------------------------------------------------------------------
      1          7           0       -6.434757   -1.650192    0.602617
      2          6           0       -7.827747   -1.200412    0.414786
      3          6           0       -4.258686   -1.690510    0.919439
      4          7           0       -4.660106   -3.014319    0.813984
      5          6           0       -5.955043   -2.937042    0.627339
      6          1           0       -6.615468   -3.795348    0.500442
      7          7           0       -2.946096    0.251695    1.179992
      8          6           0       -4.080483    0.945055    1.038575
      9          1           0       -3.973582    2.027610    1.092431
     10          7           0       -5.321267    0.504003    0.841541
     11          6           0       -5.341557   -0.838183    0.791168
     12          6           0       -2.999844   -1.097043    1.124501
     13          7           0       -1.868541   -1.790922    1.265448
     14          1           0       -1.861249   -2.790916    1.231204
     15          1           0       -0.990204   -1.335098    1.409995
     16          1           0       -8.401663   -1.575672    1.142780
     17          1           0       -7.863334   -0.201937    0.444842
     18          1           0       -8.166110   -1.517795   -0.471094
     19          7           0       -2.300825    3.208785   -1.712948
     20          6           0       -1.064586    2.644962   -1.508340
     21          6           0       -2.621594    4.641956   -1.558615
     22          7           0        2.286075    2.971211   -0.654880
     23          1           0        3.084283    2.377010   -0.559858
     24          1           0        2.419862    3.944433   -0.466031
     25          7           0        0.055796    3.300213   -1.134929
     26          6           0        1.089610    2.485696   -1.019110
     27          7           0        1.032685    1.132710   -1.250800
     28          1           0        1.873415    0.587415   -1.137739
     29          6           0       -0.109289    0.437343   -1.635832
     30          8           0       -0.053390   -0.784902   -1.819487
     31          6           0       -1.228132    1.299045   -1.764371
     32          7           0       -2.540642    1.023439   -2.122518
     33          6           0       -3.138266    2.183228   -2.078425
     34          1           0       -4.192516    2.347507   -2.303924
     35          1           0       -3.327504    4.753899   -0.860067
     36          1           0       -1.799224    5.137500   -1.282182
     37          1           0       -2.952681    5.006650   -2.428211
     38          1           0        6.231375   -1.653894    0.217774
     39          1           0        6.535978   -1.641595   -1.517648
     40          1           0        5.581768   -0.353589   -0.781517
     41          1           0        3.511327   -5.367765   -1.180476
     42          6           0        3.481464   -4.278117   -1.177998
     43          8           0        1.147895   -4.157673   -1.586730
     44          6           0        2.233509   -3.611385   -1.392305
     45          1           0        1.445240   -1.726891   -1.517308
     46          7           0        2.306954   -2.233228   -1.369651
     47          8           0        3.393178   -0.249435   -1.164928
     48          6           0        3.427766   -1.467415   -1.167489
     49          1           0        5.565346   -4.017193   -0.810376
     50          6           0        4.591765   -3.558512   -0.978008
     51          6           0        5.815813   -1.407263   -0.747909
     52          7           0        4.592048   -2.182909   -0.968200
     53          1           0        3.661033    4.416348    2.477638
     54          1           0        2.545568    4.230859    1.301445
     55          1           0        4.134994    4.189821    0.932498
     56          1           0        1.610539   -2.701168    2.028154
     57          1           0        3.193979   -2.220722    2.442867
     58          7           0        2.280155   -1.964790    2.125608
     59          6           0        1.969362   -0.697518    1.845228
     60          6           0        2.404448    1.632604    1.637947
     61          7           0        1.169291    1.947013    1.213728
     62          1           0       -0.613057    1.022254    0.803042
     63          6           0        0.409159    0.856272    1.140347
     64          7           0        0.718597   -0.413851    1.420734
     65          1           0        5.478633    2.129195    2.506817
     66          6           0        4.502923    1.703827    2.270184
     67          7           0        4.201996    0.431685    2.363940
     68          6           0        2.874270    0.372757    1.965938
     69          6           0        3.449882    3.947948    1.619725
     70          7           0        3.461970    2.488231    1.836763
 ---------------------------------------------------------------------

 SCF Done:  E(RwB97XD) =  -2048.69071584     A.U. after   15 cycles

 The electronic state is 1-A.
 Alpha  occ. eigenvalues --  -19.25989 -19.22053 -19.20708 -14.52536 -14.52261
 Alpha  occ. eigenvalues --  -14.48805 -14.48615 -14.47992 -14.47939 -14.46629
 Alpha  occ. eigenvalues --  -14.46052 -14.45132 -14.43615 -14.42865 -14.42239
 Alpha  occ. eigenvalues --  -14.41953 -14.41315 -14.40779 -14.40720 -14.40012
 Alpha  occ. eigenvalues --  -10.45586 -10.41246 -10.40177 -10.39464 -10.38240
 Alpha  occ. eigenvalues --  -10.37931 -10.37731 -10.36572 -10.35323 -10.35174
 Alpha  occ. eigenvalues --  -10.35046 -10.34395 -10.34252 -10.33975 -10.33214
 Alpha  occ. eigenvalues --  -10.33212 -10.32937 -10.32150 -10.31252 -10.30984
 Alpha  occ. eigenvalues --  -10.30792 -10.28404 -10.28110  -1.19551  -1.15079
 Alpha  occ. eigenvalues --   -1.13380  -1.13084  -1.11203  -1.10640  -1.09431
 Alpha  occ. eigenvalues --   -1.09115  -1.08549  -1.04846  -1.04334  -1.02571
 Alpha  occ. eigenvalues --   -1.01157  -1.00343  -0.99740  -0.98574  -0.96874
 Alpha  occ. eigenvalues --   -0.96606  -0.96332  -0.92507  -0.91164  -0.87460
 Alpha  occ. eigenvalues --   -0.86061  -0.84156  -0.83792  -0.83660  -0.82586
 Alpha  occ. eigenvalues --   -0.82181  -0.78988  -0.76815  -0.74762  -0.74507
 Alpha  occ. eigenvalues --   -0.73778  -0.73430  -0.72799  -0.70925  -0.70246
 Alpha  occ. eigenvalues --   -0.67576  -0.66702  -0.66546  -0.66216  -0.64537
 Alpha  occ. eigenvalues --   -0.64197  -0.63838  -0.62853  -0.62642  -0.62403
 Alpha  occ. eigenvalues --   -0.60407  -0.60287  -0.60006  -0.59643  -0.59581
 Alpha  occ. eigenvalues --   -0.59324  -0.58727  -0.57230  -0.56438  -0.56215
 Alpha  occ. eigenvalues --   -0.56040  -0.55903  -0.55368  -0.54778  -0.54382
 Alpha  occ. eigenvalues --   -0.53878  -0.53652  -0.53278  -0.53010  -0.52838
 Alpha  occ. eigenvalues --   -0.52427  -0.52205  -0.51630  -0.50582  -0.50208
 Alpha  occ. eigenvalues --   -0.50079  -0.49496  -0.49437  -0.48887  -0.48832
 Alpha  occ. eigenvalues --   -0.48699  -0.48520  -0.48318  -0.48222  -0.47435
 Alpha  occ. eigenvalues --   -0.46794  -0.46031  -0.44941  -0.44059  -0.43123
 Alpha  occ. eigenvalues --   -0.41023  -0.40022  -0.39511  -0.38068  -0.37257
 Alpha  occ. eigenvalues --   -0.37117  -0.37042  -0.36755  -0.35854  -0.34647
 Alpha  occ. eigenvalues --   -0.34210  -0.33433  -0.33400  -0.33210  -0.32669
 Alpha  occ. eigenvalues --   -0.32483  -0.32210  -0.32068  -0.31825  -0.30656
 Alpha  occ. eigenvalues --   -0.30213  -0.29078  -0.25815  -0.25245
 Alpha virt. eigenvalues --    0.02957   0.04096   0.07618   0.08132   0.08365
 Alpha virt. eigenvalues --    0.09035   0.09490   0.10895   0.11472   0.11878
 Alpha virt. eigenvalues --    0.12624   0.13826   0.14222   0.14633   0.15051

 Mulliken charges:
               1
     1  N   -0.312050
     2  C    0.181461
     3  C    0.033841
     4  N   -0.260416
     5  C    0.134501
     6  H    0.026135
     7  N   -0.293899
     8  C    0.145498
     9  H    0.005302
    10  N   -0.291308
    11  C    0.249877
    12  C    0.126020
    13  N   -0.059820
    14  H    0.108249
    15  H    0.086168
    16  H    0.024351
    17  H    0.034003
    18  H    0.026911
    19  N   -0.312155
    20  C    0.234342
    21  C    0.181795
    22  N   -0.091330
    23  H    0.116916
    24  H    0.105592
    25  N   -0.279572
    26  C    0.187766
    27  N   -0.107617
    28  H    0.114654
    29  C    0.138829
    30  O   -0.314312
    31  C    0.019501
    32  N   -0.220707
    33  C    0.123127
    34  H    0.028707
    35  H    0.027608
    36  H    0.027395
    37  H    0.025059
    38  H    0.061490
    39  H    0.058217
    40  H    0.076226
    41  H    0.032268
    42  C   -0.111893
    43  O   -0.261994
    44  C    0.171849
    45  H    0.133317
    46  N   -0.132679
    47  O   -0.345884
    48  C    0.354104
    49  H    0.047899
    50  C    0.165975
    51  C    0.043516
    52  N   -0.294303
    53  H    0.037326
    54  H    0.048554
    55  H    0.018282
    56  H    0.122622
    57  H    0.115117
    58  N   -0.070243
    59  C    0.086883
    60  C    0.202400
    61  N   -0.259854
    62  H    0.057954
    63  C    0.167396
    64  N   -0.301612
    65  H    0.033956
    66  C    0.131919
    67  N   -0.266035
    68  C    0.054125
    69  C    0.164613
    70  N   -0.311937
 Sum of Mulliken charges =  -0.00000

 Dipole moment (field-independent basis, Debye):
    X=              8.9122    Y=              4.6268    Z=              2.9391  Tot=             10.4629
 Quadrupole moment (field-independent basis, Debye-Ang):
   XX=           -159.7878   YY=           -210.7242   ZZ=           -254.0313
   XY=             -5.4167   XZ=              5.5298   YZ=             -9.9797

 Normal termination of Gaussian 16 at Fri Jan 26 21:24:29 2018.
