 Gaussian 16, Revision A.03,
 Gaussian 16:  EM64L-G16RevA.03 25-Dec-2016

 ---------------------------------------
 #p wb97xd/cc-pvdz sp scf=(maxcycles=20)
 ---------------------------------------

 ------------------
 Base pair stacking
 ------------------
 Symbolic Z-matrix:
 Charge =  0 Multiplicity = 1

                         Standard orientation:
 ---------------------------------------------------------------------
 Center     Atomic      Atomic             Coordinates (Angstroms)
 Number     Number       Type             X           Y           Z
 ---------------------------------------------------------------------
      1          7           0        5.260262   -1.882031   -1.397875
      2          6           0        6.673219   -1.458886   -1.347926
      3          6           0        3.061779   -1.880567   -1.461036
      4          7           0        3.449665   -3.212461   -1.479251
      5          6           0        4.758644   -3.160027   -1.440469
      6          1           0        5.414310   -4.031268   -1.440823
      7          7           0        1.761781    0.087408   -1.455025
      8          6           0        2.916771    0.759173   -1.407012
      9          1           0        2.823158    1.844088   -1.385787
     10          7           0        4.164175    0.294160   -1.381406
     11          6           0        4.166842   -1.048793   -1.410934
     12          6           0        1.798162   -1.262754   -1.483751
     13          7           0        0.646284   -1.935092   -1.531684
     14          1           0        0.625644   -2.935238   -1.554320
     15          1           0       -0.234832   -1.462273   -1.546583
     16          1           0        7.152543   -1.796528   -2.158130
     17          1           0        6.722404   -0.460811   -1.324509
     18          1           0        7.106145   -1.831607   -0.527162
     19          7           0        3.606408    3.266064    1.161401
     20          6           0        2.344706    2.722541    1.133902
     21          6           0        3.938428    4.669553    0.844074
     22          7           0       -1.068229    3.068618    0.591861
     23          1           0       -1.883713    2.491890    0.632132
     24          1           0       -1.201039    4.024403    0.328134
     25          7           0        1.205469    3.374054    0.814958
     26          6           0        0.149127    2.583030    0.878452
     27          7           0        0.202240    1.255274    1.227385
     28          1           0       -0.656391    0.726852    1.249499
     29          6           0        1.363327    0.564239    1.559409
     30          8           0        1.301946   -0.634380    1.859893
     31          6           0        2.506480    1.400897    1.495687
     32          7           0        3.842860    1.120339    1.745276
     33          6           0        4.456003    2.253473    1.534883
     34          1           0        5.530803    2.406448    1.638125
     35          1           0        4.571633    4.697500    0.071366
     36          1           0        3.102277    5.162069    0.606290
     37          1           0        4.363598    5.101135    1.638922
     38          1           0       -5.173756   -1.498812    0.547694
     39          1           0       -5.299737   -1.321562    2.296224
     40          1           0       -4.399841   -0.133461    1.352838
     41          1           0       -2.400396   -5.149860    2.005398
     42          6           0       -2.349121   -4.066191    1.899247
     43          8           0        0.015884   -3.977810    2.060682
     44          6           0       -1.072728   -3.419695    1.925670
     45          1           0       -0.238234   -1.555465    1.796821
     46          7           0       -1.120477   -2.047596    1.783150
     47          8           0       -2.181935   -0.059331    1.505119
     48          6           0       -2.240475   -1.270602    1.623692
     49          1           0       -4.453961   -3.778524    1.718425
     50          6           0       -3.459383   -3.335315    1.745157
     51          6           0       -4.657150   -1.178590    1.440244
     52          7           0       -3.433096   -1.966754    1.608327
     53          1           0       -4.877771    4.391030   -1.733393
     54          1           0       -3.637230    4.124611   -0.707641
     55          1           0       -5.173830    4.078637   -0.159163
     56          1           0       -2.912907   -2.761875   -1.935287
     57          1           0       -4.525082   -2.241059   -2.134570
     58          7           0       -3.576419   -2.013990   -1.911661
     59          6           0       -3.213351   -0.768857   -1.597027
     60          6           0       -3.581067    1.549416   -1.206985
     61          7           0       -2.299884    1.825154   -0.912071
     62          1           0       -0.498328    0.858964   -0.765442
     63          6           0       -1.555413    0.724004   -0.990445
     64          7           0       -1.917172   -0.523992   -1.305414
     65          1           0       -6.725982    2.128938   -1.682161
     66          6           0       -5.736995    1.680037   -1.585523
     67          7           0       -5.471043    0.412556   -1.786599
     68          6           0       -4.107444    0.316183   -1.549902
     69          6           0       -4.577042    3.870556   -0.934230
     70          7           0       -4.639474    2.426432   -1.231871
 ---------------------------------------------------------------------

 SCF Done:  E(RwB97XD) =  -2048.70553955     A.U. after   15 cycles

 The electronic state is 1-A.
 Alpha  occ. eigenvalues --  -19.25334 -19.21526 -19.20082 -14.53034 -14.52151
 Alpha  occ. eigenvalues --  -14.49230 -14.48303 -14.48269 -14.47413 -14.46072
 Alpha  occ. eigenvalues --  -14.45872 -14.44940 -14.44401 -14.44207 -14.42725
 Alpha  occ. eigenvalues --  -14.41110 -14.41027 -14.40440 -14.40277 -14.40106
 Alpha  occ. eigenvalues --  -10.45050 -10.40693 -10.40138 -10.39665 -10.38450
 Alpha  occ. eigenvalues --  -10.37736 -10.37648 -10.37581 -10.36393 -10.35425
 Alpha  occ. eigenvalues --  -10.34857 -10.34696 -10.33712 -10.33698 -10.33194
 Alpha  occ. eigenvalues --  -10.32943 -10.32758 -10.32694 -10.30915 -10.30623
 Alpha  occ. eigenvalues --  -10.30381 -10.28205 -10.27381  -1.19086  -1.15760
 Alpha  occ. eigenvalues --   -1.12596  -1.12547  -1.10891  -1.10121  -1.10024
 Alpha  occ. eigenvalues --   -1.09015  -1.07826  -1.05738  -1.04880  -1.02056
 Alpha  occ. eigenvalues --   -1.01564  -1.00393  -0.98897  -0.97918  -0.97372
 Alpha  occ. eigenvalues --   -0.96620  -0.96060  -0.92558  -0.90807  -0.88300
 Alpha  occ. eigenvalues --   -0.86599  -0.83581  -0.83466  -0.83302  -0.82067
 Alpha  occ. eigenvalues --   -0.81900  -0.78592  -0.77703  -0.75756  -0.74027
 Alpha  occ. eigenvalues --   -0.73012  -0.72859  -0.72747  -0.71180  -0.70771
 Alpha  occ. eigenvalues --   -0.67743  -0.66650  -0.66165  -0.66139  -0.65039
 Alpha  occ. eigenvalues --   -0.64074  -0.63358  -0.62602  -0.62486  -0.61330
 Alpha  occ. eigenvalues --   -0.60909  -0.60754  -0.60453  -0.59846  -0.59478
 Alpha  occ. eigenvalues --   -0.59198  -0.57914  -0.56786  -0.56138  -0.55896
 Alpha  occ. eigenvalues --   -0.55880  -0.55789  -0.55497  -0.54710  -0.54655
 Alpha  occ. eigenvalues --   -0.53869  -0.53695  -0.53217  -0.53184  -0.52750
 Alpha  occ. eigenvalues --   -0.52435  -0.52066  -0.51364  -0.50576  -0.50080
 Alpha  occ. eigenvalues --   -0.50031  -0.49795  -0.49559  -0.49019  -0.48804
 Alpha  occ. eigenvalues --   -0.48368  -0.47872  -0.47765  -0.47015  -0.46866
 Alpha  occ. eigenvalues --   -0.46319  -0.45678  -0.45224  -0.44153  -0.43649
 Alpha  occ. eigenvalues --   -0.41472  -0.40901  -0.39075  -0.38394  -0.38303
 Alpha  occ. eigenvalues --   -0.37135  -0.36710  -0.36562  -0.35625  -0.34977
 Alpha  occ. eigenvalues --   -0.34692  -0.33374  -0.33267  -0.32658  -0.32124
 Alpha  occ. eigenvalues --   -0.31918  -0.31675  -0.31573  -0.31351  -0.30772
 Alpha  occ. eigenvalues --   -0.30451  -0.30174  -0.25610  -0.24321
 Alpha virt. eigenvalues --    0.02729   0.03888   0.06031   0.08285   0.08823
 Alpha virt. eigenvalues --    0.09636   0.10046   0.10497   0.11258   0.11396
 Alpha virt. eigenvalues --    0.12477   0.13911   0.14675   0.15111   0.15284

 Mulliken charges:
               1
     1  N   -0.314103
     2  C    0.183239
     3  C    0.044334
     4  N   -0.263397
     5  C    0.137925
     6  H    0.025909
     7  N   -0.299383
     8  C    0.147461
     9  H    0.014461
    10  N   -0.279240
    11  C    0.262776
    12  C    0.109754
    13  N   -0.067274
    14  H    0.106392
    15  H    0.078745
    16  H    0.021774
    17  H    0.033617
    18  H    0.029419
    19  N   -0.305845
    20  C    0.231774
    21  C    0.180908
    22  N   -0.065540
    23  H    0.110880
    24  H    0.107630
    25  N   -0.305448
    26  C    0.203631
    27  N   -0.150449
    28  H    0.117946
    29  C    0.192684
    30  O   -0.325886
    31  C   -0.029238
    32  N   -0.216813
    33  C    0.127091
    34  H    0.019525
    35  H    0.027031
    36  H    0.027636
    37  H    0.023573
    38  H    0.049635
    39  H    0.061287
    40  H    0.077214
    41  H    0.030867
    42  C   -0.113110
    43  O   -0.259017
    44  C    0.178895
    45  H    0.133637
    46  N   -0.130290
    47  O   -0.342871
    48  C    0.348579
    49  H    0.044289
    50  C    0.162731
    51  C    0.042691
    52  N   -0.286845
    53  H    0.038498
    54  H    0.026750
    55  H    0.034799
    56  H    0.118852
    57  H    0.119788
    58  N   -0.060529
    59  C    0.083006
    60  C    0.272651
    61  N   -0.314018
    62  H    0.067032
    63  C    0.168562
    64  N   -0.302340
    65  H    0.040318
    66  C    0.139024
    67  N   -0.259566
    68  C    0.020017
    69  C    0.182441
    70  N   -0.316476
 Sum of Mulliken charges =  -0.00000

 Dipole moment (field-independent basis, Debye):
    X=             -9.7599    Y=              4.6885    Z=             -2.8861  Tot=             11.2057
 Quadrupole moment (field-independent basis, Debye-Ang):
   XX=           -167.9834   YY=           -210.0128   ZZ=           -255.1856
   XY=              7.0253   XZ=            -10.1562   YZ=              8.4908

 Normal termination of Gaussian 16 at Sat Jan 27 05:44:57 2018.
