 Gaussian 16, Revision A.03,
 Gaussian 16:  EM64L-G16RevA.03 25-Dec-2016

 ---------------------------------------
 #p wb97xd/cc-pvdz sp scf=(maxcycles=20)
 ---------------------------------------

 ------------------
 Base pair stacking
 ------------------
 Symbolic Z-matrix:
 Charge =  0 Multiplicity = 1

                         Standard orientation:
 ---------------------------------------------------------------------
 Center     Atomic      Atomic             Coordinates (Angstroms)
 Number     Number       Type             X           Y           Z
 ---------------------------------------------------------------------
      1          7           0       -6.780525   -1.609743    0.274912
      2          6           0       -8.191044   -1.176712    0.244411
      3          6           0       -4.597692   -1.660327    0.539424
      4          7           0       -4.958921   -2.909043    0.054713
      5          6           0       -6.259541   -2.828589   -0.085245
      6          1           0       -6.894919   -3.635915   -0.450590
      7          7           0       -3.342238    0.167553    1.342934
      8          6           0       -4.501082    0.829302    1.425193
      9          1           0       -4.427602    1.851716    1.793328
     10          7           0       -5.731274    0.419615    1.122413
     11          6           0       -5.709833   -0.848663    0.680322
     12          6           0       -3.354137   -1.106721    0.894426
     13          7           0       -2.198370   -1.768928    0.811589
     14          1           0       -2.159937   -2.713977    0.485076
     15          1           0       -1.332002   -1.343207    1.072954
     16          1           0       -8.736143   -1.769898    0.837015
     17          1           0       -8.257799   -0.232933    0.566824
     18          1           0       -8.538969   -1.232848   -0.691428
     19          7           0       -1.785498    3.350726   -1.956122
     20          6           0       -0.563069    2.755435   -1.757776
     21          6           0       -2.030695    4.806564   -1.989465
     22          7           0        2.853865    3.017253   -1.194072
     23          1           0        3.630286    2.400134   -1.069238
     24          1           0        3.044007    3.998706   -1.158032
     25          7           0        0.610025    3.395291   -1.561594
     26          6           0        1.613104    2.550585   -1.400560
     27          7           0        1.479687    1.183507   -1.429116
     28          1           0        2.301969    0.614982   -1.296506
     29          6           0        0.282467    0.503532   -1.629461
     30          8           0        0.270799   -0.733623   -1.637348
     31          6           0       -0.804237    1.397674   -1.804024
     32          7           0       -2.150974    1.145645   -2.026924
     33          6           0       -2.692296    2.330638   -2.110314
     34          1           0       -3.752462    2.518197   -2.283911
     35          1           0       -2.675835    5.054219   -1.267469
     36          1           0       -1.168829    5.290972   -1.845255
     37          1           0       -2.410769    5.061987   -2.877783
     38          1           0        6.648422   -1.644663    0.065502
     39          1           0        6.820318   -1.894438   -1.670220
     40          1           0        5.982053   -0.465523   -1.064521
     41          1           0        3.670295   -5.366212   -0.588244
     42          6           0        3.688311   -4.287170   -0.741743
     43          8           0        1.337902   -4.099599   -1.001500
     44          6           0        2.457975   -3.590890   -0.963776
     45          1           0        1.745522   -1.703132   -1.305990
     46          7           0        2.593039   -2.229389   -1.146321
     47          8           0        3.777262   -0.298325   -1.306929
     48          6           0        3.758342   -1.504486   -1.135233
     49          1           0        5.803538   -4.090065   -0.560626
     50          6           0        4.840984   -3.607675   -0.725368
     51          6           0        6.171741   -1.514957   -0.894722
     52          7           0        4.902070   -2.246572   -0.915178
     53          1           0        3.156121    4.011301    3.726062
     54          1           0        2.020942    4.137409    2.560919
     55          1           0        3.602157    4.265342    2.176889
     56          1           0        1.324280   -2.732914    1.230965
     57          1           0        2.900513   -2.336673    1.749208
     58          7           0        1.972076   -2.033109    1.532246
     59          6           0        1.614752   -0.751766    1.640228
     60          6           0        1.970448    1.551252    2.121155
     61          7           0        0.716642    1.930108    1.823056
     62          1           0       -1.044073    1.100828    1.180583
     63          6           0       -0.009733    0.881334    1.441803
     64          7           0        0.346329   -0.402783    1.333004
     65          1           0        5.046008    1.885163    3.060117
     66          6           0        4.079299    1.511908    2.720862
     67          7           0        3.821317    0.257902    2.440515
     68          6           0        2.487525    0.268960    2.058941
     69          6           0        2.940764    3.807398    2.771050
     70          7           0        3.004334    2.349690    2.549632
 ---------------------------------------------------------------------

 SCF Done:  E(RwB97XD) =  -2048.73880882     A.U. after   15 cycles

 The electronic state is 1-A.
 Alpha  occ. eigenvalues --  -19.26388 -19.23056 -19.20950 -14.53134 -14.51240
 Alpha  occ. eigenvalues --  -14.49044 -14.48402 -14.48398 -14.47431 -14.47373
 Alpha  occ. eigenvalues --  -14.46715 -14.44312 -14.42870 -14.42774 -14.42450
 Alpha  occ. eigenvalues --  -14.41598 -14.41067 -14.41043 -14.40419 -14.39649
 Alpha  occ. eigenvalues --  -10.46035 -10.41725 -10.41006 -10.38601 -10.38581
 Alpha  occ. eigenvalues --  -10.38500 -10.36869 -10.35850 -10.35656 -10.34906
 Alpha  occ. eigenvalues --  -10.34676 -10.34255 -10.33729 -10.33492 -10.32949
 Alpha  occ. eigenvalues --  -10.32923 -10.32610 -10.31861 -10.31390 -10.31141
 Alpha  occ. eigenvalues --  -10.30644 -10.28444 -10.28109  -1.20009  -1.14021
 Alpha  occ. eigenvalues --   -1.13955  -1.13590  -1.10970  -1.10887  -1.10007
 Alpha  occ. eigenvalues --   -1.09028  -1.07873  -1.04490  -1.03608  -1.03069
 Alpha  occ. eigenvalues --   -1.00343  -0.99924  -0.99762  -0.98905  -0.96866
 Alpha  occ. eigenvalues --   -0.96569  -0.95404  -0.92123  -0.91794  -0.86372
 Alpha  occ. eigenvalues --   -0.84769  -0.84437  -0.84191  -0.83552  -0.82794
 Alpha  occ. eigenvalues --   -0.81934  -0.79595  -0.75779  -0.74985  -0.74169
 Alpha  occ. eigenvalues --   -0.73993  -0.73434  -0.72456  -0.70605  -0.69183
 Alpha  occ. eigenvalues --   -0.67854  -0.67206  -0.65855  -0.65531  -0.65023
 Alpha  occ. eigenvalues --   -0.64193  -0.63089  -0.63026  -0.62228  -0.62215
 Alpha  occ. eigenvalues --   -0.60217  -0.60151  -0.59793  -0.59304  -0.58957
 Alpha  occ. eigenvalues --   -0.58687  -0.58349  -0.56903  -0.56464  -0.56099
 Alpha  occ. eigenvalues --   -0.56049  -0.55020  -0.54909  -0.54707  -0.54122
 Alpha  occ. eigenvalues --   -0.54082  -0.53860  -0.53346  -0.52956  -0.52632
 Alpha  occ. eigenvalues --   -0.52413  -0.51618  -0.51374  -0.50606  -0.50313
 Alpha  occ. eigenvalues --   -0.50039  -0.49770  -0.49443  -0.49082  -0.48907
 Alpha  occ. eigenvalues --   -0.48624  -0.48364  -0.48099  -0.47895  -0.47817
 Alpha  occ. eigenvalues --   -0.46525  -0.45675  -0.44784  -0.44652  -0.43407
 Alpha  occ. eigenvalues --   -0.40679  -0.39949  -0.39440  -0.37714  -0.37624
 Alpha  occ. eigenvalues --   -0.37412  -0.36738  -0.36250  -0.35502  -0.34750
 Alpha  occ. eigenvalues --   -0.34122  -0.33420  -0.33135  -0.33068  -0.32913
 Alpha  occ. eigenvalues --   -0.32832  -0.32789  -0.32562  -0.32103  -0.30489
 Alpha  occ. eigenvalues --   -0.29899  -0.28651  -0.25838  -0.25280
 Alpha virt. eigenvalues --    0.02210   0.05210   0.07567   0.08334   0.08441
 Alpha virt. eigenvalues --    0.09252   0.09329   0.11396   0.11595   0.11979
 Alpha virt. eigenvalues --    0.12599   0.14177   0.14529   0.14746   0.15256

 Mulliken charges:
               1
     1  N   -0.310965
     2  C    0.181222
     3  C    0.030586
     4  N   -0.258017
     5  C    0.132277
     6  H    0.025013
     7  N   -0.294957
     8  C    0.135995
     9  H    0.008582
    10  N   -0.291693
    11  C    0.242681
    12  C    0.125716
    13  N   -0.053847
    14  H    0.111932
    15  H    0.092284
    16  H    0.024486
    17  H    0.034402
    18  H    0.025151
    19  N   -0.312179
    20  C    0.250950
    21  C    0.181704
    22  N   -0.123642
    23  H    0.116539
    24  H    0.116936
    25  N   -0.304287
    26  C    0.236203
    27  N   -0.133592
    28  H    0.115977
    29  C    0.168393
    30  O   -0.319399
    31  C   -0.002153
    32  N   -0.220944
    33  C    0.129930
    34  H    0.030613
    35  H    0.029437
    36  H    0.027989
    37  H    0.025484
    38  H    0.064467
    39  H    0.060483
    40  H    0.077198
    41  H    0.034151
    42  C   -0.103075
    43  O   -0.267218
    44  C    0.137538
    45  H    0.133832
    46  N   -0.115154
    47  O   -0.345591
    48  C    0.349837
    49  H    0.051726
    50  C    0.167147
    51  C    0.043211
    52  N   -0.292550
    53  H    0.030674
    54  H    0.044903
    55  H    0.018057
    56  H    0.128790
    57  H    0.109941
    58  N   -0.066425
    59  C    0.092032
    60  C    0.241858
    61  N   -0.263596
    62  H    0.048005
    63  C    0.157125
    64  N   -0.298024
    65  H    0.029779
    66  C    0.129947
    67  N   -0.269158
    68  C    0.024212
    69  C    0.181652
    70  N   -0.310583
 Sum of Mulliken charges =  -0.00000

 Dipole moment (field-independent basis, Debye):
    X=              9.8972    Y=              4.6300    Z=              0.8606  Tot=             10.9605
 Quadrupole moment (field-independent basis, Debye-Ang):
   XX=           -156.6150   YY=           -208.6970   ZZ=           -248.2738
   XY=             -5.6159   XZ=              8.9944   YZ=             -4.5576

 Normal termination of Gaussian 16 at Sat Jan 27 06:41:55 2018.
