 Gaussian 16, Revision A.03,
 Gaussian 16:  EM64L-G16RevA.03 25-Dec-2016

 ---------------------------------------
 #p wb97xd/cc-pvdz sp scf=(maxcycles=20)
 ---------------------------------------

 ------------------
 Base pair stacking
 ------------------
 Symbolic Z-matrix:
 Charge =  0 Multiplicity = 1

                         Standard orientation:
 ---------------------------------------------------------------------
 Center     Atomic      Atomic             Coordinates (Angstroms)
 Number     Number       Type             X           Y           Z
 ---------------------------------------------------------------------
      1          7           0       -6.903503   -1.632520    0.280987
      2          6           0       -8.284488   -1.200952   -0.009948
      3          6           0       -4.746833   -1.644394    0.712202
      4          7           0       -5.143374   -2.973451    0.679429
      5          6           0       -6.426814   -2.913110    0.420951
      6          1           0       -7.080498   -3.780046    0.320669
      7          7           0       -3.447872    0.314986    0.903203
      8          6           0       -4.572799    0.993514    0.654786
      9          1           0       -4.467912    2.077482    0.637859
     10          7           0       -5.802063    0.536248    0.425217
     11          6           0       -5.820856   -0.806217    0.468369
     12          6           0       -3.499825   -1.034467    0.939981
     13          7           0       -2.377956   -1.713555    1.187810
     14          1           0       -2.369747   -2.713468    1.224384
     15          1           0       -1.507908   -1.246254    1.345273
     16          1           0       -8.895718   -1.525735    0.711911
     17          1           0       -8.320726   -0.202933   -0.052063
     18          1           0       -8.576689   -1.580747   -0.887661
     19          7           0       -1.790271    3.082582   -1.745205
     20          6           0       -0.560856    2.534575   -1.468985
     21          6           0       -2.139255    4.510646   -1.605392
     22          7           0        2.728053    2.902230   -0.415597
     23          1           0        3.527217    2.318420   -0.275078
     24          1           0        2.836996    3.876345   -0.215735
     25          7           0        0.526144    3.203241   -1.027003
     26          6           0        1.562249    2.402224   -0.852389
     27          7           0        1.537776    1.049590   -1.091730
     28          1           0        2.377629    0.515171   -0.930481
     29          6           0        0.430470    0.340568   -1.546749
     30          8           0        0.513956   -0.880019   -1.730933
     31          6           0       -0.690388    1.187684   -1.738982
     32          7           0       -1.975262    0.895973   -2.175906
     33          6           0       -2.590272    2.047416   -2.163624
     34          1           0       -3.631315    2.198464   -2.451197
     35          1           0       -2.887099    4.610106   -0.949920
     36          1           0       -1.341731    5.016016   -1.278575
     37          1           0       -2.422769    4.874548   -2.491957
     38          1           0        6.677089   -1.673068    0.675442
     39          1           0        7.084627   -1.649283   -1.038613
     40          1           0        6.070610   -0.377380   -0.356417
     41          1           0        4.096489   -5.417199   -0.895735
     42          6           0        4.051630   -4.328073   -0.891283
     43          8           0        1.745213   -4.237284   -1.438399
     44          6           0        2.809704   -3.677283   -1.177528
     45          1           0        2.004605   -1.803048   -1.342946
     46          7           0        2.862806   -2.298366   -1.145768
     47          8           0        3.907614   -0.301038   -0.869630
     48          6           0        3.958951   -1.518412   -0.874323
     49          1           0        6.106063   -4.040708   -0.398826
     50          6           0        5.138054   -3.594449   -0.622787
     51          6           0        6.316617   -1.427939   -0.312502
     52          7           0        5.118926   -2.219031   -0.608249
     53          1           0        3.086574    4.578980    2.245438
     54          1           0        2.033500    4.308189    1.028971
     55          1           0        3.639885    4.245763    0.746692
     56          1           0        1.056080   -2.558222    2.191905
     57          1           0        2.616283   -2.045400    2.653307
     58          7           0        1.720373   -1.814949    2.271909
     59          6           0        1.425630   -0.571394    1.887375
     60          6           0        1.872878    1.739617    1.539580
     61          7           0        0.661671    2.019980    1.030876
     62          1           0       -1.097755    1.063681    0.594413
     63          6           0       -0.094557    0.924663    0.995080
     64          7           0        0.198824   -0.321756    1.379741
     65          1           0        4.898256    2.304628    2.529533
     66          6           0        3.935783    1.860949    2.273150
     67          7           0        3.629305    0.597712    2.440405
     68          6           0        2.323969    0.507253    1.979268
     69          6           0        2.919824    4.050864    1.412800
     70          7           0        2.919395    2.610048    1.732279
 ---------------------------------------------------------------------

 SCF Done:  E(RwB97XD) =  -2048.57915564     A.U. after   16 cycles

 The electronic state is 1-A.
 Alpha  occ. eigenvalues --  -19.25874 -19.21996 -19.20473 -14.52500 -14.51923
 Alpha  occ. eigenvalues --  -14.48948 -14.48775 -14.47913 -14.47620 -14.46015
 Alpha  occ. eigenvalues --  -14.45306 -14.44735 -14.43408 -14.42565 -14.42497
 Alpha  occ. eigenvalues --  -14.41664 -14.41423 -14.41078 -14.40830 -14.40320
 Alpha  occ. eigenvalues --  -10.45521 -10.41129 -10.40124 -10.39203 -10.38061
 Alpha  occ. eigenvalues --  -10.37861 -10.37469 -10.36181 -10.35639 -10.35282
 Alpha  occ. eigenvalues --  -10.34732 -10.34468 -10.34315 -10.34252 -10.33564
 Alpha  occ. eigenvalues --  -10.33410 -10.33276 -10.32046 -10.31170 -10.31042
 Alpha  occ. eigenvalues --  -10.30997 -10.28768 -10.28260  -1.19469  -1.15938
 Alpha  occ. eigenvalues --   -1.13162  -1.13021  -1.11549  -1.10616  -1.09378
 Alpha  occ. eigenvalues --   -1.09189  -1.08702  -1.05176  -1.04042  -1.03010
 Alpha  occ. eigenvalues --   -1.02511  -1.00666  -0.98825  -0.98455  -0.97181
 Alpha  occ. eigenvalues --   -0.96642  -0.96251  -0.92830  -0.91111  -0.88753
 Alpha  occ. eigenvalues --   -0.86363  -0.84210  -0.84119  -0.83699  -0.82631
 Alpha  occ. eigenvalues --   -0.82485  -0.78938  -0.76648  -0.74895  -0.74560
 Alpha  occ. eigenvalues --   -0.74111  -0.73405  -0.73121  -0.71260  -0.70438
 Alpha  occ. eigenvalues --   -0.67952  -0.66964  -0.66549  -0.66528  -0.65099
 Alpha  occ. eigenvalues --   -0.64459  -0.64028  -0.63785  -0.62921  -0.62733
 Alpha  occ. eigenvalues --   -0.60746  -0.60427  -0.60043  -0.59930  -0.59551
 Alpha  occ. eigenvalues --   -0.59521  -0.59071  -0.56900  -0.56594  -0.56507
 Alpha  occ. eigenvalues --   -0.56038  -0.55827  -0.55624  -0.54508  -0.54057
 Alpha  occ. eigenvalues --   -0.53911  -0.53483  -0.53368  -0.52979  -0.52723
 Alpha  occ. eigenvalues --   -0.52459  -0.51921  -0.51341  -0.50889  -0.50371
 Alpha  occ. eigenvalues --   -0.50151  -0.49508  -0.49429  -0.49000  -0.48846
 Alpha  occ. eigenvalues --   -0.48499  -0.48358  -0.48173  -0.47638  -0.47269
 Alpha  occ. eigenvalues --   -0.47127  -0.45679  -0.45278  -0.44039  -0.42209
 Alpha  occ. eigenvalues --   -0.41381  -0.39945  -0.39462  -0.38693  -0.37377
 Alpha  occ. eigenvalues --   -0.37214  -0.36909  -0.36136  -0.35493  -0.34310
 Alpha  occ. eigenvalues --   -0.33790  -0.33686  -0.33310  -0.33146  -0.32670
 Alpha  occ. eigenvalues --   -0.32604  -0.32017  -0.31895  -0.31696  -0.31043
 Alpha  occ. eigenvalues --   -0.30545  -0.28930  -0.26019  -0.24258
 Alpha virt. eigenvalues --    0.03044   0.03776   0.06940   0.07749   0.08373
 Alpha virt. eigenvalues --    0.09225   0.10024   0.10682   0.11487   0.12436
 Alpha virt. eigenvalues --    0.13397   0.13865   0.14013   0.14578   0.15099

 Mulliken charges:
               1
     1  N   -0.311391
     2  C    0.181186
     3  C    0.030403
     4  N   -0.260427
     5  C    0.134727
     6  H    0.027250
     7  N   -0.290102
     8  C    0.138459
     9  H    0.005143
    10  N   -0.288667
    11  C    0.246367
    12  C    0.126007
    13  N   -0.060423
    14  H    0.107387
    15  H    0.088231
    16  H    0.025222
    17  H    0.035120
    18  H    0.027125
    19  N   -0.312508
    20  C    0.230205
    21  C    0.182860
    22  N   -0.090100
    23  H    0.112014
    24  H    0.102270
    25  N   -0.241481
    26  C    0.120353
    27  N   -0.087307
    28  H    0.116038
    29  C    0.136759
    30  O   -0.316837
    31  C   -0.002009
    32  N   -0.216659
    33  C    0.126841
    34  H    0.030959
    35  H    0.027928
    36  H    0.025658
    37  H    0.024988
    38  H    0.060736
    39  H    0.059003
    40  H    0.075427
    41  H    0.032291
    42  C   -0.112267
    43  O   -0.263277
    44  C    0.176148
    45  H    0.134572
    46  N   -0.139866
    47  O   -0.345151
    48  C    0.359266
    49  H    0.047919
    50  C    0.168851
    51  C    0.043992
    52  N   -0.298376
    53  H    0.014263
    54  H    0.030196
    55  H   -0.008284
    56  H    0.122286
    57  H    0.115055
    58  N   -0.070318
    59  C    0.097451
    60  C    0.196496
    61  N   -0.249306
    62  H    0.070167
    63  C    0.152440
    64  N   -0.293659
    65  H    0.030526
    66  C    0.110313
    67  N   -0.261975
    68  C    0.055465
    69  C    0.271239
    70  N   -0.313210
 Sum of Mulliken charges =  -0.00000

 Dipole moment (field-independent basis, Debye):
    X=              8.3895    Y=              4.6924    Z=              3.6422  Tot=             10.2795
 Quadrupole moment (field-independent basis, Debye-Ang):
   XX=           -154.9868   YY=           -212.2065   ZZ=           -253.9221
   XY=             -2.1329   XZ=             11.1547   YZ=            -12.0287

 Normal termination of Gaussian 16 at Sat Jan 27 02:51:46 2018.
