 Gaussian 16, Revision A.03,
 Gaussian 16:  EM64L-G16RevA.03 25-Dec-2016

 ---------------------------------------
 #p wb97xd/cc-pvdz sp scf=(maxcycles=20)
 ---------------------------------------

 ------------------
 Base pair stacking
 ------------------
 Symbolic Z-matrix:
 Charge =  0 Multiplicity = 1

                         Standard orientation:
 ---------------------------------------------------------------------
 Center     Atomic      Atomic             Coordinates (Angstroms)
 Number     Number       Type             X           Y           Z
 ---------------------------------------------------------------------
      1          7           0       -7.138236   -1.639766    0.139472
      2          6           0       -8.516568   -1.216717   -0.175559
      3          6           0       -4.988336   -1.638531    0.603414
      4          7           0       -5.378353   -2.969607    0.574487
      5          6           0       -6.657974   -2.917082    0.296139
      6          1           0       -7.306154   -3.787735    0.192389
      7          7           0       -3.701253    0.328166    0.799554
      8          6           0       -4.825315    0.999668    0.529088
      9          1           0       -4.725050    2.083944    0.505718
     10          7           0       -6.048881    0.535057    0.284302
     11          6           0       -6.062294   -0.807129    0.337125
     12          6           0       -3.747680   -1.021207    0.845549
     13          7           0       -2.626673   -1.693277    1.115383
     14          1           0       -2.614524   -2.692845    1.159490
     15          1           0       -1.761228   -1.220816    1.282552
     16          1           0       -9.137229   -1.539003    0.539337
     17          1           0       -8.556641   -0.219213   -0.225613
     18          1           0       -8.793687   -1.604292   -1.054761
     19          7           0       -1.532436    3.038356   -1.744760
     20          6           0       -0.304913    2.498068   -1.445889
     21          6           0       -1.889923    4.465784   -1.620847
     22          7           0        2.965927    2.888604   -0.345498
     23          1           0        3.765482    2.309532   -0.188553
     24          1           0        3.067439    3.864653   -0.151236
     25          7           0        0.772231    3.174963   -0.992433
     26          6           0        1.809146    2.380026   -0.796203
     27          7           0        1.794406    1.025571   -1.025846
     28          1           0        2.634107    0.496228   -0.847925
     29          6           0        0.697342    0.308139   -1.492330
     30          8           0        0.789105   -0.913380   -1.666174
     31          6           0       -0.424264    1.148635   -1.707814
     32          7           0       -1.701025    0.847812   -2.161991
     33          6           0       -2.321323    1.996468   -2.167573
     34          1           0       -3.358545    2.140599   -2.472009
     35          1           0       -2.648081    4.566598   -0.977546
     36          1           0       -1.099739    4.977212   -1.285731
     37          1           0       -2.161567    4.821854   -2.514282
     38          1           0        6.918465   -1.660314    0.839183
     39          1           0        7.351892   -1.647232   -0.868623
     40          1           0        6.321915   -0.375040   -0.211330
     41          1           0        4.378904   -5.427731   -0.743134
     42          6           0        4.329084   -4.338820   -0.747438
     43          8           0        2.030862   -4.262694   -1.330121
     44          6           0        3.088737   -3.695892   -1.057300
     45          1           0        2.277823   -1.826643   -1.248796
     46          7           0        3.135148   -2.316548   -1.034963
     47          8           0        4.166637   -0.312440   -0.757835
     48          6           0        4.223523   -1.529577   -0.752720
     49          1           0        6.374484   -4.038379   -0.226033
     50          6           0        5.407992   -3.598253   -0.467950
     51          6           0        6.571949   -1.424104   -0.155901
     52          7           0        5.382460   -2.222859   -0.463900
     53          1           0        2.792800    4.631989    2.209059
     54          1           0        1.759561    4.347408    0.978804
     55          1           0        3.370315    4.290326    0.721386
     56          1           0        0.795473   -2.514707    2.177665
     57          1           0        2.346163   -1.991324    2.658854
     58          7           0        1.455124   -1.767813    2.262218
     59          6           0        1.160668   -0.528477    1.864051
     60          6           0        1.602751    1.781943    1.505950
     61          7           0        0.398166    2.052977    0.976875
     62          1           0       -1.350110    1.085396    0.520897
     63          6           0       -0.352497    0.953952    0.937740
     64          7           0       -0.059392   -0.288233    1.336038
     65          1           0        4.610166    2.368150    2.537443
     66          6           0        3.653705    1.918168    2.269793
     67          7           0        3.350405    0.654795    2.441744
     68          6           0        2.052647    0.554935    1.961552
     69          6           0        2.641098    4.096998    1.377924
     70          7           0        2.642295    2.658592    1.708037
 ---------------------------------------------------------------------

 SCF Done:  E(RwB97XD) =  -2048.54063542     A.U. after   16 cycles

 The electronic state is 1-A.
 Alpha  occ. eigenvalues --  -19.25909 -19.22025 -19.20839 -14.52525 -14.51486
 Alpha  occ. eigenvalues --  -14.49130 -14.49061 -14.47973 -14.47061 -14.46699
 Alpha  occ. eigenvalues --  -14.45073 -14.44383 -14.42814 -14.42545 -14.42202
 Alpha  occ. eigenvalues --  -14.41998 -14.41783 -14.41190 -14.41078 -14.40433
 Alpha  occ. eigenvalues --  -10.45557 -10.40994 -10.40155 -10.38639 -10.38473
 Alpha  occ. eigenvalues --  -10.37866 -10.36776 -10.35841 -10.35744 -10.35348
 Alpha  occ. eigenvalues --  -10.34433 -10.34408 -10.34386 -10.34108 -10.33692
 Alpha  occ. eigenvalues --  -10.33686 -10.33392 -10.31415 -10.31212 -10.31173
 Alpha  occ. eigenvalues --  -10.31130 -10.28892 -10.28624  -1.19504  -1.16027
 Alpha  occ. eigenvalues --   -1.13234  -1.13053  -1.11668  -1.10913  -1.09453
 Alpha  occ. eigenvalues --   -1.09383  -1.08236  -1.05291  -1.03887  -1.03193
 Alpha  occ. eigenvalues --   -1.02568  -1.00760  -0.98958  -0.98537  -0.97279
 Alpha  occ. eigenvalues --   -0.96970  -0.95591  -0.92938  -0.91128  -0.89080
 Alpha  occ. eigenvalues --   -0.86000  -0.84433  -0.84231  -0.83752  -0.82860
 Alpha  occ. eigenvalues --   -0.82588  -0.78971  -0.76308  -0.75380  -0.74827
 Alpha  occ. eigenvalues --   -0.73786  -0.73447  -0.73226  -0.71372  -0.70207
 Alpha  occ. eigenvalues --   -0.68157  -0.67111  -0.66623  -0.66513  -0.65553
 Alpha  occ. eigenvalues --   -0.64612  -0.64016  -0.63630  -0.63007  -0.62932
 Alpha  occ. eigenvalues --   -0.61112  -0.60493  -0.60243  -0.59678  -0.59604
 Alpha  occ. eigenvalues --   -0.59330  -0.58750  -0.56894  -0.56709  -0.56611
 Alpha  occ. eigenvalues --   -0.56101  -0.55726  -0.55247  -0.54658  -0.54129
 Alpha  occ. eigenvalues --   -0.53777  -0.53441  -0.53267  -0.52871  -0.52513
 Alpha  occ. eigenvalues --   -0.52259  -0.51974  -0.51048  -0.50988  -0.50464
 Alpha  occ. eigenvalues --   -0.50404  -0.49533  -0.49406  -0.49056  -0.48780
 Alpha  occ. eigenvalues --   -0.48547  -0.48304  -0.47881  -0.47383  -0.47240
 Alpha  occ. eigenvalues --   -0.46907  -0.45519  -0.45392  -0.44057  -0.42245
 Alpha  occ. eigenvalues --   -0.41494  -0.40633  -0.39581  -0.38498  -0.37585
 Alpha  occ. eigenvalues --   -0.37471  -0.36843  -0.35913  -0.35586  -0.34414
 Alpha  occ. eigenvalues --   -0.33861  -0.33778  -0.33264  -0.33222  -0.32888
 Alpha  occ. eigenvalues --   -0.32185  -0.32029  -0.31649  -0.31363  -0.31178
 Alpha  occ. eigenvalues --   -0.30615  -0.27913  -0.26125  -0.24762
 Alpha virt. eigenvalues --    0.03054   0.04828   0.06361   0.07645   0.08363
 Alpha virt. eigenvalues --    0.08765   0.10627   0.10710   0.11150   0.12613
 Alpha virt. eigenvalues --    0.13667   0.13759   0.14095   0.14271   0.14927

 Mulliken charges:
               1
     1  N   -0.311110
     2  C    0.181102
     3  C    0.028860
     4  N   -0.260210
     5  C    0.134728
     6  H    0.027628
     7  N   -0.289670
     8  C    0.135385
     9  H    0.005590
    10  N   -0.288115
    11  C    0.245139
    12  C    0.123953
    13  N   -0.059646
    14  H    0.107160
    15  H    0.088383
    16  H    0.025575
    17  H    0.035506
    18  H    0.027065
    19  N   -0.308703
    20  C    0.247227
    21  C    0.183629
    22  N   -0.070435
    23  H    0.102842
    24  H    0.107542
    25  N   -0.230141
    26  C    0.090869
    27  N   -0.082136
    28  H    0.120441
    29  C    0.155662
    30  O   -0.317277
    31  C   -0.017447
    32  N   -0.212383
    33  C    0.126878
    34  H    0.030904
    35  H    0.029708
    36  H    0.025634
    37  H    0.025627
    38  H    0.060769
    39  H    0.059664
    40  H    0.075589
    41  H    0.032515
    42  C   -0.111813
    43  O   -0.263776
    44  C    0.177722
    45  H    0.134474
    46  N   -0.141812
    47  O   -0.346254
    48  C    0.361013
    49  H    0.048149
    50  C    0.169885
    51  C    0.043221
    52  N   -0.299154
    53  H    0.012193
    54  H    0.041704
    55  H   -0.025228
    56  H    0.120514
    57  H    0.113741
    58  N   -0.070371
    59  C    0.098312
    60  C    0.198959
    61  N   -0.253856
    62  H    0.050603
    63  C    0.158683
    64  N   -0.296479
    65  H    0.026076
    66  C    0.092759
    67  N   -0.254274
    68  C    0.052231
    69  C    0.267976
    70  N   -0.299498
 Sum of Mulliken charges =  -0.00000

 Dipole moment (field-independent basis, Debye):
    X=              8.1127    Y=              4.8393    Z=              3.3549  Tot=             10.0245
 Quadrupole moment (field-independent basis, Debye-Ang):
   XX=           -152.8886   YY=           -212.1728   ZZ=           -253.5685
   XY=             -0.9420   XZ=             13.2375   YZ=            -12.6239

 Normal termination of Gaussian 16 at Sat Jan 27 03:37:10 2018.
