 Gaussian 16, Revision A.03,
 Gaussian 16:  EM64L-G16RevA.03 25-Dec-2016

 ---------------------------------------
 #p wb97xd/cc-pvdz sp scf=(maxcycles=20)
 ---------------------------------------

 ------------------
 Base pair stacking
 ------------------
 Symbolic Z-matrix:
 Charge =  0 Multiplicity = 1

                         Standard orientation:
 ---------------------------------------------------------------------
 Center     Atomic      Atomic             Coordinates (Angstroms)
 Number     Number       Type             X           Y           Z
 ---------------------------------------------------------------------
      1          7           0       -5.910641   -1.753874    0.994818
      2          6           0       -7.315412   -1.304393    0.943691
      3          6           0       -3.717223   -1.797676    1.150662
      4          7           0       -4.119743   -3.112886    0.969177
      5          6           0       -5.425084   -3.033852    0.882550
      6          1           0       -6.089395   -3.885899    0.735374
      7          7           0       -2.397274    0.130676    1.470291
      8          6           0       -3.541771    0.821826    1.466185
      9          1           0       -3.435724    1.897739    1.598270
     10          7           0       -4.791716    0.385541    1.324081
     11          6           0       -4.810038   -0.948588    1.168599
     12          6           0       -2.449322   -1.209918    1.311579
     13          7           0       -1.307940   -1.901587    1.315399
     14          1           0       -1.299005   -2.895620    1.201215
     15          1           0       -0.423350   -1.449987    1.432468
     16          1           0       -7.833700   -1.741710    1.678755
     17          1           0       -7.352851   -0.311826    1.055627
     18          1           0       -7.715543   -1.554017    0.061894
     19          7           0       -2.881848    3.332500   -1.554326
     20          6           0       -1.634384    2.765466   -1.452510
     21          6           0       -3.186013    4.765497   -1.368036
     22          7           0        1.774797    3.081566   -0.870046
     23          1           0        2.576770    2.485473   -0.842344
     24          1           0        1.925489    4.053626   -0.688084
     25          7           0       -0.486154    3.416900   -1.167468
     26          6           0        0.551849    2.599972   -1.139026
     27          7           0        0.473487    1.248203   -1.371638
     28          1           0        1.319405    0.700858   -1.329150
     29          6           0       -0.697274    0.556761   -1.666712
     30          8           0       -0.659019   -0.664694   -1.859917
     31          6           0       -1.820960    1.421091   -1.700770
     32          7           0       -3.158634    1.149579   -1.953360
     33          6           0       -3.748237    2.310216   -1.855943
     34          1           0       -4.816853    2.477490   -1.995081
     35          1           0       -3.833155    4.875366   -0.614427
     36          1           0       -2.342976    5.258221   -1.156407
     37          1           0       -3.585232    5.134951   -2.206458
     38          1           0        5.767414   -1.554797   -0.339237
     39          1           0        5.931370   -1.534732   -2.093479
     40          1           0        5.042325   -0.248551   -1.276969
     41          1           0        2.935520   -5.256995   -1.531159
     42          6           0        2.908345   -4.167320   -1.521239
     43          8           0        0.549715   -4.040698   -1.740240
     44          6           0        1.648656   -3.497325   -1.631305
     45          1           0        0.857004   -1.610825   -1.683728
     46          7           0        1.726704   -2.119413   -1.608253
     47          8           0        2.830209   -0.138604   -1.482460
     48          6           0        2.861815   -1.356609   -1.493434
     49          1           0        5.015618   -3.911935   -1.321362
     50          6           0        4.032714   -3.450695   -1.407948
     51          6           0        5.276013   -1.302793   -1.267180
     52          7           0        4.036797   -2.075160   -1.391835
     53          1           0        4.269053    4.244528    2.618580
     54          1           0        3.072335    4.141698    1.514315
     55          1           0        4.631117    4.145639    1.030322
     56          1           0        2.220869   -2.834975    1.751940
     57          1           0        3.828124   -2.373265    2.089044
     58          7           0        2.892731   -2.102050    1.859478
     59          6           0        2.557264   -0.819700    1.703875
     60          6           0        2.966616    1.523687    1.652126
     61          7           0        1.702755    1.858484    1.343904
     62          1           0       -0.100756    0.951600    0.989668
     63          6           0        0.943825    0.769528    1.238569
     64          7           0        1.277944   -0.515681    1.394041
     65          1           0        6.093443    1.980258    2.335248
     66          6           0        5.104963    1.565349    2.136015
     67          7           0        4.816849    0.286882    2.149513
     68          6           0        3.464102    0.246540    1.844258
     69          6           0        3.998430    3.843406    1.743444
     70          7           0        4.032201    2.371296    1.842139
 ---------------------------------------------------------------------

 SCF Done:  E(RwB97XD) =  -2048.72748407     A.U. after   15 cycles

 The electronic state is 1-A.
 Alpha  occ. eigenvalues --  -19.25857 -19.21973 -19.20606 -14.52434 -14.52418
 Alpha  occ. eigenvalues --  -14.48770 -14.48314 -14.48292 -14.47827 -14.46862
 Alpha  occ. eigenvalues --  -14.46228 -14.45336 -14.44008 -14.43654 -14.42077
 Alpha  occ. eigenvalues --  -14.41989 -14.40976 -14.40759 -14.40422 -14.39840
 Alpha  occ. eigenvalues --  -10.45474 -10.40968 -10.40103 -10.39721 -10.38168
 Alpha  occ. eigenvalues --  -10.37905 -10.37856 -10.36922 -10.35308 -10.35095
 Alpha  occ. eigenvalues --  -10.35052 -10.34294 -10.34206 -10.33658 -10.33234
 Alpha  occ. eigenvalues --  -10.32895 -10.32656 -10.32413 -10.31232 -10.30961
 Alpha  occ. eigenvalues --  -10.30527 -10.28097 -10.28051  -1.19435  -1.15084
 Alpha  occ. eigenvalues --   -1.13207  -1.12997  -1.10878  -1.10575  -1.09333
 Alpha  occ. eigenvalues --   -1.09154  -1.08469  -1.04727  -1.04595  -1.02456
 Alpha  occ. eigenvalues --   -1.00940  -1.00089  -0.99660  -0.98533  -0.96708
 Alpha  occ. eigenvalues --   -0.96571  -0.96456  -0.92282  -0.91119  -0.87509
 Alpha  occ. eigenvalues --   -0.85981  -0.84070  -0.83553  -0.83492  -0.82504
 Alpha  occ. eigenvalues --   -0.81901  -0.78917  -0.76912  -0.74794  -0.74524
 Alpha  occ. eigenvalues --   -0.73595  -0.73329  -0.72541  -0.70652  -0.70358
 Alpha  occ. eigenvalues --   -0.67330  -0.66767  -0.66534  -0.65954  -0.64456
 Alpha  occ. eigenvalues --   -0.64250  -0.63759  -0.62765  -0.62361  -0.61683
 Alpha  occ. eigenvalues --   -0.60567  -0.60187  -0.60059  -0.59545  -0.59506
 Alpha  occ. eigenvalues --   -0.59315  -0.58316  -0.56792  -0.56228  -0.55988
 Alpha  occ. eigenvalues --   -0.55911  -0.55514  -0.55125  -0.54848  -0.54359
 Alpha  occ. eigenvalues --   -0.53967  -0.53646  -0.53215  -0.53073  -0.52943
 Alpha  occ. eigenvalues --   -0.52571  -0.52334  -0.51366  -0.50302  -0.50148
 Alpha  occ. eigenvalues --   -0.49817  -0.49538  -0.49465  -0.49154  -0.48782
 Alpha  occ. eigenvalues --   -0.48549  -0.48262  -0.48024  -0.47824  -0.47333
 Alpha  occ. eigenvalues --   -0.46494  -0.45829  -0.44714  -0.44377  -0.43935
 Alpha  occ. eigenvalues --   -0.40740  -0.40718  -0.39440  -0.37877  -0.37620
 Alpha  occ. eigenvalues --   -0.37232  -0.36910  -0.36715  -0.35799  -0.35032
 Alpha  occ. eigenvalues --   -0.34292  -0.33223  -0.33200  -0.33111  -0.32617
 Alpha  occ. eigenvalues --   -0.32373  -0.32192  -0.32003  -0.31792  -0.30452
 Alpha  occ. eigenvalues --   -0.30015  -0.29682  -0.25664  -0.24972
 Alpha virt. eigenvalues --    0.02939   0.04325   0.07279   0.08296   0.08449
 Alpha virt. eigenvalues --    0.09291   0.09632   0.10828   0.11437   0.11532
 Alpha virt. eigenvalues --    0.12113   0.13923   0.14445   0.14753   0.15007

 Mulliken charges:
               1
     1  N   -0.312782
     2  C    0.181915
     3  C    0.038524
     4  N   -0.259893
     5  C    0.135192
     6  H    0.025358
     7  N   -0.295717
     8  C    0.146412
     9  H    0.006596
    10  N   -0.289991
    11  C    0.255096
    12  C    0.121252
    13  N   -0.061522
    14  H    0.109201
    15  H    0.082817
    16  H    0.023289
    17  H    0.033041
    18  H    0.027109
    19  N   -0.312406
    20  C    0.245431
    21  C    0.181179
    22  N   -0.082669
    23  H    0.112846
    24  H    0.111373
    25  N   -0.302679
    26  C    0.214474
    27  N   -0.137626
    28  H    0.122829
    29  C    0.173784
    30  O   -0.319791
    31  C    0.002680
    32  N   -0.223353
    33  C    0.128036
    34  H    0.025769
    35  H    0.028094
    36  H    0.028095
    37  H    0.024736
    38  H    0.059228
    39  H    0.059083
    40  H    0.076398
    41  H    0.031784
    42  C   -0.113002
    43  O   -0.261147
    44  C    0.170871
    45  H    0.133281
    46  N   -0.126072
    47  O   -0.345375
    48  C    0.344758
    49  H    0.046726
    50  C    0.162111
    51  C    0.041741
    52  N   -0.286857
    53  H    0.037762
    54  H    0.036893
    55  H    0.027936
    56  H    0.120216
    57  H    0.115609
    58  N   -0.067012
    59  C    0.084306
    60  C    0.222446
    61  N   -0.268037
    62  H    0.038545
    63  C    0.165101
    64  N   -0.302335
    65  H    0.036319
    66  C    0.136435
    67  N   -0.268366
    68  C    0.046192
    69  C    0.171024
    70  N   -0.313261
 Sum of Mulliken charges =  -0.00000

 Dipole moment (field-independent basis, Debye):
    X=              9.3093    Y=              4.8661    Z=              2.0847  Tot=             10.7092
 Quadrupole moment (field-independent basis, Debye-Ang):
   XX=           -164.1088   YY=           -208.6930   ZZ=           -254.0121
   XY=             -6.9443   XZ=             -1.4236   YZ=             -7.3185

 Normal termination of Gaussian 16 at Sat Jan 27 08:34:58 2018.
