 Gaussian 16, Revision A.03,
 Gaussian 16:  EM64L-G16RevA.03 25-Dec-2016

 ---------------------------------------
 #p wb97xd/cc-pvdz sp scf=(maxcycles=20)
 ---------------------------------------

 ------------------
 Base pair stacking
 ------------------
 Symbolic Z-matrix:
 Charge =  0 Multiplicity = 1

                         Standard orientation:
 ---------------------------------------------------------------------
 Center     Atomic      Atomic             Coordinates (Angstroms)
 Number     Number       Type             X           Y           Z
 ---------------------------------------------------------------------
      1          7           0        7.112706    1.645371    0.162737
      2          6           0        8.485598    1.230139   -0.184745
      3          6           0        4.966880    1.634086    0.645035
      4          7           0        5.365021    2.962673    0.677727
      5          6           0        6.641869    2.916294    0.385854
      6          1           0        7.294611    3.787158    0.319037
      7          7           0        3.669141   -0.332243    0.756226
      8          6           0        4.786599   -0.996307    0.443363
      9          1           0        4.679306   -2.077536    0.367947
     10          7           0        6.010941   -0.527492    0.210774
     11          6           0        6.033258    0.810404    0.328976
     12          6           0        3.724477    1.012971    0.867665
     13          7           0        2.610055    1.677622    1.179897
     14          1           0        2.604593    2.673885    1.272894
     15          1           0        1.743115    1.202649    1.331429
     16          1           0        9.114372    1.513413    0.539537
     17          1           0        8.518965    0.236048   -0.283818
     18          1           0        8.757652    1.658594   -1.046371
     19          7           0        1.577136   -3.015878   -1.711185
     20          6           0        0.349672   -2.478645   -1.406580
     21          6           0        1.948944   -4.436764   -1.557800
     22          7           0       -2.900324   -2.869185   -0.246081
     23          1           0       -3.702396   -2.293124   -0.090970
     24          1           0       -2.990296   -3.840958   -0.026319
     25          7           0       -0.714421   -3.153109   -0.919895
     26          6           0       -1.755099   -2.362267   -0.727115
     27          7           0       -1.755721   -1.013822   -0.990194
     28          1           0       -2.597188   -0.487283   -0.812276
     29          6           0       -0.672276   -0.298988   -1.491219
     30          8           0       -0.777372    0.917047   -1.693601
     31          6           0        0.453189   -1.135154   -1.703430
     32          7           0        1.720136   -0.834980   -2.184718
     33          6           0        2.350284   -1.978207   -2.171733
     34          1           0        3.383921   -2.121140   -2.488658
     35          1           0        2.717761   -4.515316   -0.924110
     36          1           0        1.168501   -4.946351   -1.197934
     37          1           0        2.209918   -4.812530   -2.446343
     38          1           0       -6.873776    1.674421    0.887879
     39          1           0       -7.333280    1.615509   -0.812130
     40          1           0       -6.282244    0.368600   -0.139896
     41          1           0       -4.391873    5.422674   -0.825980
     42          6           0       -4.332611    4.334440   -0.804294
     43          8           0       -2.043045    4.263146   -1.420677
     44          6           0       -3.091603    3.694433   -1.117548
     45          1           0       -2.267420    1.827878   -1.275644
     46          7           0       -3.125602    2.315724   -1.060582
     47          8           0       -4.135163    0.310534   -0.718224
     48          6           0       -4.202597    1.526903   -0.742140
     49          1           0       -6.367056    4.029895   -0.243830
     50          6           0       -5.400582    3.592018   -0.489892
     51          6           0       -6.540552    1.416598   -0.106383
     52          7           0       -5.362977    2.217409   -0.452427
     53          1           0       -2.839657   -4.661574    2.011116
     54          1           0       -1.815171   -4.323267    0.787160
     55          1           0       -3.427673   -4.244190    0.547073
     56          1           0       -0.797647    2.466234    2.311218
     57          1           0       -2.347440    1.929070    2.779934
     58          7           0       -1.461249    1.719991    2.365011
     59          6           0       -1.178021    0.499904    1.904196
     60          6           0       -1.637699   -1.787613    1.437588
     61          7           0       -0.439404   -2.039531    0.885289
     62          1           0        1.310978   -1.061097    0.461685
     63          6           0        0.317821   -0.944339    0.893252
     64          7           0        0.035954    0.278592    1.354323
     65          1           0       -4.639840   -2.405863    2.465734
     66          6           0       -3.682879   -1.948971    2.211940
     67          7           0       -3.370165   -0.697314    2.442714
     68          6           0       -2.075950   -0.581728    1.956526
     69          6           0       -2.691677   -4.087490    1.205801
     70          7           0       -2.680992   -2.666960    1.605779
 ---------------------------------------------------------------------

 SCF Done:  E(RwB97XD) =  -2048.35170471     A.U. after   16 cycles

 The electronic state is 1-A.
 Alpha  occ. eigenvalues --  -19.25771 -19.21880 -19.20618 -14.52403 -14.52259
 Alpha  occ. eigenvalues --  -14.49112 -14.49099 -14.47830 -14.47108 -14.46148
 Alpha  occ. eigenvalues --  -14.44122 -14.43567 -14.42871 -14.42609 -14.42176
 Alpha  occ. eigenvalues --  -14.41922 -14.41823 -14.41242 -14.41083 -14.40478
 Alpha  occ. eigenvalues --  -10.45422 -10.40563 -10.40014 -10.38664 -10.38243
 Alpha  occ. eigenvalues --  -10.37747 -10.36580 -10.36561 -10.35905 -10.35795
 Alpha  occ. eigenvalues --  -10.35249 -10.34473 -10.34307 -10.33935 -10.33779
 Alpha  occ. eigenvalues --  -10.33729 -10.33452 -10.31528 -10.31260 -10.31158
 Alpha  occ. eigenvalues --  -10.31054 -10.28937 -10.28718  -1.19387  -1.18908
 Alpha  occ. eigenvalues --   -1.13257  -1.12909  -1.11707  -1.10862  -1.10342
 Alpha  occ. eigenvalues --   -1.09280  -1.08697  -1.05834  -1.05336  -1.03453
 Alpha  occ. eigenvalues --   -1.02442  -1.00814  -0.99009  -0.98044  -0.97317
 Alpha  occ. eigenvalues --   -0.97027  -0.95688  -0.92992  -0.92337  -0.91006
 Alpha  occ. eigenvalues --   -0.86359  -0.84532  -0.84271  -0.83641  -0.82875
 Alpha  occ. eigenvalues --   -0.82626  -0.78852  -0.76957  -0.76177  -0.74916
 Alpha  occ. eigenvalues --   -0.74093  -0.73319  -0.73276  -0.71520  -0.71422
 Alpha  occ. eigenvalues --   -0.68655  -0.67864  -0.66673  -0.66645  -0.66323
 Alpha  occ. eigenvalues --   -0.64681  -0.64208  -0.63886  -0.63077  -0.62905
 Alpha  occ. eigenvalues --   -0.61675  -0.60872  -0.60519  -0.59750  -0.59499
 Alpha  occ. eigenvalues --   -0.59448  -0.59022  -0.56993  -0.56880  -0.56642
 Alpha  occ. eigenvalues --   -0.56344  -0.56006  -0.55740  -0.54687  -0.54451
 Alpha  occ. eigenvalues --   -0.53906  -0.53364  -0.53265  -0.52870  -0.52472
 Alpha  occ. eigenvalues --   -0.52406  -0.52010  -0.51046  -0.50898  -0.50508
 Alpha  occ. eigenvalues --   -0.50366  -0.49437  -0.49389  -0.49075  -0.48759
 Alpha  occ. eigenvalues --   -0.48462  -0.48143  -0.47538  -0.47356  -0.47131
 Alpha  occ. eigenvalues --   -0.45777  -0.45433  -0.44707  -0.43932  -0.42024
 Alpha  occ. eigenvalues --   -0.41547  -0.40525  -0.39520  -0.38644  -0.37594
 Alpha  occ. eigenvalues --   -0.37505  -0.36912  -0.35812  -0.35618  -0.33908
 Alpha  occ. eigenvalues --   -0.33867  -0.33560  -0.33225  -0.33083  -0.32822
 Alpha  occ. eigenvalues --   -0.32051  -0.31898  -0.31440  -0.31171  -0.30772
 Alpha  occ. eigenvalues --   -0.29993  -0.27772  -0.26177  -0.23254
 Alpha virt. eigenvalues --    0.03181   0.04223   0.06104   0.07590   0.08452
 Alpha virt. eigenvalues --    0.08710   0.10584   0.10766   0.11695   0.12691
 Alpha virt. eigenvalues --    0.13209   0.13740   0.14015   0.14333   0.15027

 Mulliken charges:
               1
     1  N   -0.311196
     2  C    0.181104
     3  C    0.029160
     4  N   -0.260444
     5  C    0.134951
     6  H    0.027777
     7  N   -0.288832
     8  C    0.135763
     9  H    0.004571
    10  N   -0.287795
    11  C    0.245625
    12  C    0.123909
    13  N   -0.060213
    14  H    0.106811
    15  H    0.088285
    16  H    0.025594
    17  H    0.035511
    18  H    0.027264
    19  N   -0.310072
    20  C    0.241856
    21  C    0.183537
    22  N   -0.057657
    23  H    0.094833
    24  H    0.086944
    25  N   -0.223220
    26  C    0.067582
    27  N   -0.073805
    28  H    0.119130
    29  C    0.151516
    30  O   -0.317750
    31  C   -0.014716
    32  N   -0.212344
    33  C    0.128053
    34  H    0.031242
    35  H    0.029720
    36  H    0.024863
    37  H    0.025811
    38  H    0.060461
    39  H    0.059131
    40  H    0.075435
    41  H    0.032166
    42  C   -0.111568
    43  O   -0.263325
    44  C    0.178685
    45  H    0.134462
    46  N   -0.142162
    47  O   -0.345233
    48  C    0.360985
    49  H    0.047640
    50  C    0.169478
    51  C    0.043501
    52  N   -0.299196
    53  H   -0.003247
    54  H    0.037891
    55  H   -0.048289
    56  H    0.119441
    57  H    0.114350
    58  N   -0.071439
    59  C    0.097434
    60  C    0.199960
    61  N   -0.254291
    62  H    0.054718
    63  C    0.154632
    64  N   -0.296158
    65  H    0.025505
    66  C    0.079260
    67  N   -0.256029
    68  C    0.059249
    69  C    0.379009
    70  N   -0.325824
 Sum of Mulliken charges =  -0.00000

 Dipole moment (field-independent basis, Debye):
    X=             -7.8861    Y=             -5.1524    Z=              3.6139  Tot=             10.0895
 Quadrupole moment (field-independent basis, Debye-Ang):
   XX=           -153.4953   YY=           -211.3690   ZZ=           -254.8651
   XY=             -0.0067   XZ=            -12.8341   YZ=             13.6829

 Normal termination of Gaussian 16 at Sat Jan 27 07:50:53 2018.
