 Gaussian 16, Revision A.03,
 Gaussian 16:  EM64L-G16RevA.03 25-Dec-2016

 ---------------------------------------
 #p wb97xd/cc-pvdz sp scf=(maxcycles=20)
 ---------------------------------------

 ------------------
 Base pair stacking
 ------------------
 Symbolic Z-matrix:
 Charge =  0 Multiplicity = 1

                         Standard orientation:
 ---------------------------------------------------------------------
 Center     Atomic      Atomic             Coordinates (Angstroms)
 Number     Number       Type             X           Y           Z
 ---------------------------------------------------------------------
      1          7           0        5.303881   -1.965790   -1.406579
      2          6           0        6.714909   -1.547973   -1.518019
      3          6           0        3.104919   -1.968870   -1.363434
      4          7           0        3.499915   -3.274062   -1.108172
      5          6           0        4.808897   -3.219977   -1.144379
      6          1           0        5.469298   -4.072924   -0.985342
      7          7           0        1.794251   -0.041825   -1.726251
      8          6           0        2.945948    0.619244   -1.881681
      9          1           0        2.846592    1.682877   -2.093998
     10          7           0        4.196075    0.165833   -1.814516
     11          6           0        4.205830   -1.151012   -1.549466
     12          6           0        1.837768   -1.365660   -1.460446
     13          7           0        0.689182   -2.027297   -1.304960
     14          1           0        0.673817   -3.008023   -1.107124
     15          1           0       -0.194612   -1.565472   -1.380896
     16          1           0        7.157308   -2.056845   -2.256607
     17          1           0        6.758844   -0.569213   -1.716018
     18          1           0        7.188714   -1.733792   -0.657209
     19          7           0        3.537370    3.400995    1.254769
     20          6           0        2.276801    2.854760    1.280300
     21          6           0        3.845343    4.827045    1.026217
     22          7           0       -1.167304    3.224970    1.029701
     23          1           0       -1.977805    2.642579    1.085881
     24          1           0       -1.319086    4.198025    0.854111
     25          7           0        1.117068    3.523617    1.102319
     26          6           0        0.068004    2.724485    1.182819
     27          7           0        0.146521    1.373435    1.419453
     28          1           0       -0.708346    0.840411    1.464725
     29          6           0        1.329004    0.664245    1.605595
     30          8           0        1.289777   -0.554817    1.813139
     31          6           0        2.464653    1.509343    1.521886
     32          7           0        3.815969    1.216812    1.645544
     33          6           0        4.412182    2.366330    1.480196
     34          1           0        5.491868    2.516243    1.513012
     35          1           0        4.417603    4.919862    0.212152
     36          1           0        2.993866    5.332547    0.893066
     37          1           0        4.330433    5.196092    1.818242
     38          1           0       -5.268063   -1.345951    0.934110
     39          1           0       -5.259765   -1.309381    2.695714
     40          1           0       -4.433666   -0.045107    1.784376
     41          1           0       -2.394427   -5.086960    1.879437
     42          6           0       -2.350502   -3.998030    1.856625
     43          8           0        0.019996   -3.910339    1.843643
     44          6           0       -1.075278   -3.348987    1.837150
     45          1           0       -0.251500   -1.476047    1.794386
     46          7           0       -1.132616   -1.970163    1.808793
     47          8           0       -2.210546    0.028322    1.772380
     48          6           0       -2.260874   -1.188838    1.797891
     49          1           0       -4.462760   -3.707948    1.860550
     50          6           0       -3.468673   -3.263050    1.846631
     51          6           0       -4.684420   -1.095222    1.807356
     52          7           0       -3.451771   -1.887818    1.818005
     53          1           0       -4.878099    4.124570   -2.622416
     54          1           0       -3.588545    4.083925   -1.623685
     55          1           0       -5.097009    4.165675   -1.005692
     56          1           0       -2.879857   -2.907264   -1.347313
     57          1           0       -4.502959   -2.435889   -1.578528
     58          7           0       -3.546225   -2.169544   -1.456304
     59          6           0       -3.176489   -0.887283   -1.439561
     60          6           0       -3.539894    1.461674   -1.549324
     61          7           0       -2.247906    1.789845   -1.383464
     62          1           0       -0.435350    0.871570   -1.115127
     63          6           0       -1.501055    0.695108   -1.254377
     64          7           0       -1.869483   -0.590019   -1.270872
     65          1           0       -6.707451    1.936428   -1.989042
     66          6           0       -5.712165    1.515396   -1.843853
     67          7           0       -5.448070    0.233515   -1.775073
     68          6           0       -4.074165    0.185532   -1.588433
     69          6           0       -4.536432    3.790427   -1.744008
     70          7           0       -4.603814    2.316435   -1.714989
 ---------------------------------------------------------------------

 SCF Done:  E(RwB97XD) =  -2048.74420171     A.U. after   15 cycles

 The electronic state is 1-A.
 Alpha  occ. eigenvalues --  -19.25568 -19.21829 -19.20445 -14.52529 -14.52295
 Alpha  occ. eigenvalues --  -14.48752 -14.48722 -14.48061 -14.47613 -14.46741
 Alpha  occ. eigenvalues --  -14.46243 -14.45499 -14.44554 -14.44481 -14.42228
 Alpha  occ. eigenvalues --  -14.41845 -14.40750 -14.40729 -14.40335 -14.39901
 Alpha  occ. eigenvalues --  -10.45261 -10.41008 -10.40205 -10.39960 -10.38077
 Alpha  occ. eigenvalues --  -10.38066 -10.37867 -10.37317 -10.35858 -10.35103
 Alpha  occ. eigenvalues --  -10.34969 -10.34225 -10.34055 -10.33441 -10.33201
 Alpha  occ. eigenvalues --  -10.32826 -10.32733 -10.32568 -10.31182 -10.30934
 Alpha  occ. eigenvalues --  -10.30271 -10.27961 -10.27958  -1.19200  -1.15277
 Alpha  occ. eigenvalues --   -1.13042  -1.12833  -1.10667  -1.10482  -1.09558
 Alpha  occ. eigenvalues --   -1.09178  -1.08351  -1.05128  -1.04598  -1.02268
 Alpha  occ. eigenvalues --   -1.01098  -1.00075  -0.99454  -0.98404  -0.97095
 Alpha  occ. eigenvalues --   -0.96501  -0.96351  -0.92287  -0.91051  -0.87747
 Alpha  occ. eigenvalues --   -0.86045  -0.83995  -0.83443  -0.83311  -0.82437
 Alpha  occ. eigenvalues --   -0.81719  -0.78805  -0.77214  -0.75036  -0.74479
 Alpha  occ. eigenvalues --   -0.73439  -0.73171  -0.72462  -0.70671  -0.70498
 Alpha  occ. eigenvalues --   -0.67195  -0.67063  -0.66393  -0.65868  -0.64507
 Alpha  occ. eigenvalues --   -0.64329  -0.63673  -0.62558  -0.62292  -0.61534
 Alpha  occ. eigenvalues --   -0.60752  -0.60348  -0.60061  -0.59487  -0.59421
 Alpha  occ. eigenvalues --   -0.59383  -0.58099  -0.56620  -0.56182  -0.55818
 Alpha  occ. eigenvalues --   -0.55656  -0.55468  -0.55135  -0.54557  -0.54190
 Alpha  occ. eigenvalues --   -0.53957  -0.53553  -0.53414  -0.53113  -0.52883
 Alpha  occ. eigenvalues --   -0.52783  -0.52259  -0.51201  -0.50180  -0.50066
 Alpha  occ. eigenvalues --   -0.49957  -0.49652  -0.49535  -0.49223  -0.48689
 Alpha  occ. eigenvalues --   -0.48484  -0.48198  -0.47937  -0.47564  -0.47190
 Alpha  occ. eigenvalues --   -0.46387  -0.45672  -0.45317  -0.44256  -0.43844
 Alpha  occ. eigenvalues --   -0.40885  -0.40668  -0.39219  -0.37927  -0.37747
 Alpha  occ. eigenvalues --   -0.37140  -0.37077  -0.36544  -0.35581  -0.35012
 Alpha  occ. eigenvalues --   -0.34638  -0.33453  -0.33101  -0.32996  -0.32875
 Alpha  occ. eigenvalues --   -0.32522  -0.32311  -0.31916  -0.31733  -0.30404
 Alpha  occ. eigenvalues --   -0.30299  -0.29950  -0.25392  -0.25216
 Alpha virt. eigenvalues --    0.02729   0.04159   0.06689   0.08486   0.08759
 Alpha virt. eigenvalues --    0.09339   0.09918   0.10505   0.11176   0.11534
 Alpha virt. eigenvalues --    0.12526   0.14154   0.14650   0.14961   0.15007

 Mulliken charges:
               1
     1  N   -0.313249
     2  C    0.182718
     3  C    0.045435
     4  N   -0.258798
     5  C    0.137768
     6  H    0.025394
     7  N   -0.300523
     8  C    0.140964
     9  H    0.009283
    10  N   -0.285275
    11  C    0.260575
    12  C    0.113660
    13  N   -0.066514
    14  H    0.110922
    15  H    0.080242
    16  H    0.021975
    17  H    0.032978
    18  H    0.028292
    19  N   -0.311960
    20  C    0.247765
    21  C    0.180774
    22  N   -0.098922
    23  H    0.111259
    24  H    0.112987
    25  N   -0.309332
    26  C    0.230174
    27  N   -0.148310
    28  H    0.122935
    29  C    0.193091
    30  O   -0.322605
    31  C   -0.015562
    32  N   -0.224340
    33  C    0.129203
    34  H    0.023336
    35  H    0.027872
    36  H    0.028557
    37  H    0.024546
    38  H    0.052211
    39  H    0.060869
    40  H    0.075936
    41  H    0.031102
    42  C   -0.115226
    43  O   -0.259700
    44  C    0.172849
    45  H    0.133017
    46  N   -0.126170
    47  O   -0.345172
    48  C    0.344847
    49  H    0.044454
    50  C    0.158261
    51  C    0.040902
    52  N   -0.280666
    53  H    0.035879
    54  H    0.038539
    55  H    0.029132
    56  H    0.117621
    57  H    0.117088
    58  N   -0.061897
    59  C    0.089314
    60  C    0.244973
    61  N   -0.272743
    62  H    0.044492
    63  C    0.164916
    64  N   -0.309554
    65  H    0.038604
    66  C    0.140051
    67  N   -0.265866
    68  C    0.030804
    69  C    0.177994
    70  N   -0.314175
 Sum of Mulliken charges =  -0.00000

 Dipole moment (field-independent basis, Debye):
    X=             -9.5081    Y=              5.0493    Z=             -1.3115  Tot=             10.8453
 Quadrupole moment (field-independent basis, Debye-Ang):
   XX=           -169.0562   YY=           -207.4948   ZZ=           -252.5091
   XY=              7.5089   XZ=             -8.9491   YZ=              4.2145

 Normal termination of Gaussian 16 at Fri Jan 26 19:09:36 2018.
