 Gaussian 16, Revision A.03,
 Gaussian 16:  EM64L-G16RevA.03 25-Dec-2016

 ---------------------------------------
 #p wb97xd/cc-pvdz sp scf=(maxcycles=20)
 ---------------------------------------

 ------------------
 Base pair stacking
 ------------------
 Symbolic Z-matrix:
 Charge =  0 Multiplicity = 1

                         Standard orientation:
 ---------------------------------------------------------------------
 Center     Atomic      Atomic             Coordinates (Angstroms)
 Number     Number       Type             X           Y           Z
 ---------------------------------------------------------------------
      1          7           0        4.965089   -2.083247   -1.594718
      2          6           0        6.376398   -1.688533   -1.769072
      3          6           0        2.769998   -2.051833   -1.460786
      4          7           0        3.155597   -3.360170   -1.207209
      5          6           0        4.462627   -3.326725   -1.298047
      6          1           0        5.116173   -4.188027   -1.156713
      7          7           0        1.474505   -0.108763   -1.791089
      8          6           0        2.628561    0.532710   -2.001455
      9          1           0        2.536469    1.595399   -2.221580
     10          7           0        3.873450    0.060760   -1.980806
     11          6           0        3.874414   -1.253152   -1.701412
     12          6           0        1.509123   -1.430167   -1.512257
     13          7           0        0.358167   -2.072245   -1.301959
     14          1           0        0.336295   -3.050442   -1.092505
     15          1           0       -0.520982   -1.597645   -1.346590
     16          1           0        6.780106   -2.212090   -2.519457
     17          1           0        6.426776   -0.712746   -1.979845
     18          1           0        6.882638   -1.872384   -0.926500
     19          7           0        3.889289    3.380319    1.061478
     20          6           0        2.622806    2.853948    1.145252
     21          6           0        4.208898    4.798894    0.804188
     22          7           0       -0.822782    3.274683    1.032872
     23          1           0       -1.638909    2.705548    1.129092
     24          1           0       -0.967087    4.248035    0.852632
     25          7           0        1.466852    3.538725    1.007703
     26          6           0        0.410158    2.756831    1.140540
     27          7           0        0.478126    1.407351    1.389094
     28          1           0       -0.382045    0.888134    1.475688
     29          6           0        1.656529    0.681993    1.534315
     30          8           0        1.607642   -0.534014    1.757164
     31          6           0        2.800291    1.508462    1.394175
     32          7           0        4.151018    1.196404    1.465255
     33          6           0        4.757064    2.334717    1.262357
     34          1           0        5.839311    2.468262    1.248856
     35          1           0        4.748245    4.874089   -0.033816
     36          1           0        3.360319    5.316038    0.700562
     37          1           0        4.731892    5.168887    1.571256
     38          1           0       -4.992139   -1.233011    1.158713
     39          1           0       -4.910268   -1.177634    2.917941
     40          1           0       -4.103774    0.063836    1.958940
     41          1           0       -2.138272   -5.007651    2.027108
     42          6           0       -2.078988   -3.919828    1.990106
     43          8           0        0.289984   -3.868977    1.878265
     44          6           0       -0.796067   -3.290839    1.910609
     45          1           0        0.053257   -1.431446    1.812553
     46          7           0       -0.833824   -1.911678    1.868950
     47          8           0       -1.882212    0.102738    1.854329
     48          6           0       -1.949706   -1.113154    1.895749
     49          1           0       -4.184673   -3.597076    2.077938
     50          6           0       -3.185451   -3.167787    2.017924
     51          6           0       -4.369098   -0.981956    2.004205
     52          7           0       -3.149106   -1.793368    1.972971
     53          1           0       -5.165969    4.150487   -2.458364
     54          1           0       -3.836865    4.100647   -1.513332
     55          1           0       -5.317014    4.212365   -0.834554
     56          1           0       -3.222377   -2.897304   -1.186893
     57          1           0       -4.846401   -2.403377   -1.356247
     58          7           0       -3.881530   -2.150577   -1.276668
     59          6           0       -3.492209   -0.874084   -1.289803
     60          6           0       -3.824546    1.478908   -1.411200
     61          7           0       -2.522022    1.788815   -1.302572
     62          1           0       -0.713880    0.845547   -1.098867
     63          6           0       -1.786981    0.684105   -1.191978
     64          7           0       -2.175029   -0.595271   -1.178618
     65          1           0       -7.000125    1.997856   -1.725134
     66          6           0       -6.006118    1.563051   -1.616378
     67          7           0       -5.758664    0.278062   -1.543975
     68          6           0       -4.379088    0.210837   -1.413686
     69          6           0       -4.793233    3.820561   -1.591065
     70          7           0       -4.881467    2.348197   -1.542514
 ---------------------------------------------------------------------

 SCF Done:  E(RwB97XD) =  -2048.74631828     A.U. after   15 cycles

 The electronic state is 1-A.
 Alpha  occ. eigenvalues --  -19.25407 -19.21658 -19.20431 -14.52576 -14.52166
 Alpha  occ. eigenvalues --  -14.48960 -14.48757 -14.48008 -14.47444 -14.46701
 Alpha  occ. eigenvalues --  -14.46281 -14.45530 -14.44766 -14.44711 -14.42472
 Alpha  occ. eigenvalues --  -14.41867 -14.40809 -14.40680 -14.40386 -14.40018
 Alpha  occ. eigenvalues --  -10.45110 -10.41034 -10.40393 -10.39780 -10.38112
 Alpha  occ. eigenvalues --  -10.38076 -10.37748 -10.37444 -10.36099 -10.35221
 Alpha  occ. eigenvalues --  -10.34839 -10.34265 -10.34030 -10.33406 -10.33261
 Alpha  occ. eigenvalues --  -10.32954 -10.32740 -10.32615 -10.31061 -10.30964
 Alpha  occ. eigenvalues --  -10.30160 -10.27997 -10.27986  -1.19041  -1.15346
 Alpha  occ. eigenvalues --   -1.13033  -1.12660  -1.10637  -1.10501  -1.09738
 Alpha  occ. eigenvalues --   -1.09036  -1.08354  -1.05297  -1.04706  -1.02104
 Alpha  occ. eigenvalues --   -1.01157  -1.00196  -0.99453  -0.98406  -0.97269
 Alpha  occ. eigenvalues --   -0.96527  -0.96340  -0.92395  -0.90923  -0.87847
 Alpha  occ. eigenvalues --   -0.86080  -0.84027  -0.83315  -0.83295  -0.82461
 Alpha  occ. eigenvalues --   -0.81685  -0.78667  -0.77339  -0.75161  -0.74502
 Alpha  occ. eigenvalues --   -0.73419  -0.73028  -0.72517  -0.70779  -0.70549
 Alpha  occ. eigenvalues --   -0.67253  -0.67130  -0.66261  -0.65925  -0.64595
 Alpha  occ. eigenvalues --   -0.64289  -0.63621  -0.62515  -0.62365  -0.61544
 Alpha  occ. eigenvalues --   -0.60852  -0.60466  -0.60042  -0.59529  -0.59362
 Alpha  occ. eigenvalues --   -0.59287  -0.58078  -0.56633  -0.56234  -0.55724
 Alpha  occ. eigenvalues --   -0.55569  -0.55514  -0.55239  -0.54604  -0.54109
 Alpha  occ. eigenvalues --   -0.53960  -0.53509  -0.53443  -0.53046  -0.52921
 Alpha  occ. eigenvalues --   -0.52786  -0.52149  -0.51173  -0.50194  -0.50168
 Alpha  occ. eigenvalues --   -0.49983  -0.49669  -0.49551  -0.49144  -0.48648
 Alpha  occ. eigenvalues --   -0.48519  -0.48148  -0.47916  -0.47593  -0.47135
 Alpha  occ. eigenvalues --   -0.46403  -0.45659  -0.45359  -0.44270  -0.43744
 Alpha  occ. eigenvalues --   -0.40964  -0.40759  -0.39084  -0.38035  -0.37841
 Alpha  occ. eigenvalues --   -0.37150  -0.37140  -0.36530  -0.35504  -0.35014
 Alpha  occ. eigenvalues --   -0.34786  -0.33656  -0.33109  -0.33004  -0.32794
 Alpha  occ. eigenvalues --   -0.32494  -0.32379  -0.31803  -0.31748  -0.30518
 Alpha  occ. eigenvalues --   -0.30365  -0.29987  -0.25534  -0.25227
 Alpha virt. eigenvalues --    0.02805   0.04123   0.06531   0.08396   0.08920
 Alpha virt. eigenvalues --    0.09409   0.09921   0.10431   0.11172   0.11422
 Alpha virt. eigenvalues --    0.12900   0.14303   0.14650   0.15003   0.15022

 Mulliken charges:
               1
     1  N   -0.313525
     2  C    0.183328
     3  C    0.050385
     4  N   -0.258401
     5  C    0.139594
     6  H    0.025823
     7  N   -0.299005
     8  C    0.137176
     9  H    0.010549
    10  N   -0.282412
    11  C    0.262312
    12  C    0.106036
    13  N   -0.069919
    14  H    0.111334
    15  H    0.080245
    16  H    0.021200
    17  H    0.033266
    18  H    0.029488
    19  N   -0.311551
    20  C    0.248875
    21  C    0.180713
    22  N   -0.106145
    23  H    0.112156
    24  H    0.114080
    25  N   -0.310946
    26  C    0.236428
    27  N   -0.145201
    28  H    0.117898
    29  C    0.192963
    30  O   -0.322610
    31  C   -0.016575
    32  N   -0.225588
    33  C    0.128469
    34  H    0.022890
    35  H    0.027687
    36  H    0.028847
    37  H    0.024629
    38  H    0.049093
    39  H    0.060876
    40  H    0.075501
    41  H    0.030548
    42  C   -0.115142
    43  O   -0.257180
    44  C    0.170776
    45  H    0.134320
    46  N   -0.127144
    47  O   -0.346526
    48  C    0.349829
    49  H    0.043235
    50  C    0.157704
    51  C    0.041679
    52  N   -0.282009
    53  H    0.035395
    54  H    0.038626
    55  H    0.029969
    56  H    0.117913
    57  H    0.119103
    58  N   -0.062717
    59  C    0.086220
    60  C    0.249610
    61  N   -0.275320
    62  H    0.039177
    63  C    0.173411
    64  N   -0.312301
    65  H    0.039292
    66  C    0.141386
    67  N   -0.263860
    68  C    0.028781
    69  C    0.179293
    70  N   -0.314032
 Sum of Mulliken charges =  -0.00000

 Dipole moment (field-independent basis, Debye):
    X=             -9.4334    Y=              5.1915    Z=             -1.0315  Tot=             10.8169
 Quadrupole moment (field-independent basis, Debye-Ang):
   XX=           -172.0056   YY=           -207.1568   ZZ=           -251.6512
   XY=              7.7257   XZ=            -12.5507   YZ=              3.6103

 Normal termination of Gaussian 16 at Fri Jan 26 19:31:54 2018.
