 Gaussian 16, Revision A.03,
 Gaussian 16:  EM64L-G16RevA.03 25-Dec-2016

 ---------------------------------------
 #p wb97xd/cc-pvdz sp scf=(maxcycles=20)
 ---------------------------------------

 ------------------
 Base pair stacking
 ------------------
 Symbolic Z-matrix:
 Charge =  0 Multiplicity = 1

                         Standard orientation:
 ---------------------------------------------------------------------
 Center     Atomic      Atomic             Coordinates (Angstroms)
 Number     Number       Type             X           Y           Z
 ---------------------------------------------------------------------
      1          7           0       -6.980135   -1.612163    0.188688
      2          6           0       -8.379122   -1.170469    0.028208
      3          6           0       -4.810505   -1.648507    0.547426
      4          7           0       -5.178959   -2.955670    0.264081
      5          6           0       -6.471336   -2.881462    0.059296
      6          1           0       -7.109015   -3.729610   -0.191600
      7          7           0       -3.548741    0.270430    1.084625
      8          6           0       -4.695820    0.952941    1.007299
      9          1           0       -4.615127    2.021537    1.201854
     10          7           0       -5.921855    0.515674    0.727051
     11          6           0       -5.910036   -0.809027    0.504683
     12          6           0       -3.570112   -1.060787    0.855572
     13          7           0       -2.426101   -1.743807    0.932299
     14          1           0       -2.394966   -2.730740    0.770392
     15          1           0       -1.561634   -1.292542    1.154112
     16          1           0       -8.958682   -1.647859    0.688813
     17          1           0       -8.438416   -0.185087    0.185125
     18          1           0       -8.692194   -1.378141   -0.898532
     19          7           0       -1.627120    3.187636   -1.887868
     20          6           0       -0.401150    2.620711   -1.635557
     21          6           0       -1.919178    4.635015   -1.865701
     22          7           0        2.959177    2.957853   -0.825451
     23          1           0        3.746096    2.359250   -0.678206
     24          1           0        3.112778    3.941503   -0.727709
     25          7           0        0.733520    3.285293   -1.327481
     26          6           0        1.751794    2.464604   -1.139852
     27          7           0        1.667441    1.097400   -1.245373
     28          1           0        2.497904    0.548306   -1.084821
     29          6           0        0.510356    0.392238   -1.561258
     30          8           0        0.541577   -0.842603   -1.631349
     31          6           0       -0.592087    1.260410   -1.765671
     32          7           0       -1.911370    0.978996   -2.093080
     33          6           0       -2.486077    2.149520   -2.154631
     34          1           0       -3.537963    2.313157   -2.391347
     35          1           0       -2.619504    4.824938   -1.178474
     36          1           0       -1.086026    5.137557   -1.638575
     37          1           0       -2.247160    4.924359   -2.764319
     38          1           0        6.817662   -1.644255    0.459566
     39          1           0        7.114344   -1.798267   -1.270441
     40          1           0        6.188853   -0.429133   -0.653744
     41          1           0        4.019283   -5.416679   -0.581816
     42          6           0        4.010663   -4.331076   -0.679935
     43          8           0        1.678001   -4.202643   -1.091394
     44          6           0        2.774953   -3.662375   -0.951376
     45          1           0        2.022971   -1.782208   -1.247706
     46          7           0        2.875338   -2.289730   -1.056349
     47          8           0        4.000941   -0.317446   -1.038892
     48          6           0        4.011780   -1.530900   -0.929006
     49          1           0        6.100931   -4.078703   -0.343934
     50          6           0        5.135700   -3.618245   -0.550453
     51          6           0        6.402470   -1.479644   -0.523591
     52          7           0        5.162820   -2.247890   -0.667786
     53          1           0        2.932775    4.367508    3.055967
     54          1           0        1.845733    4.312109    1.840486
     55          1           0        3.442769    4.351267    1.505783
     56          1           0        1.057115   -2.673435    1.651486
     57          1           0        2.620365   -2.218110    2.160448
     58          7           0        1.707414   -1.942202    1.857771
     59          6           0        1.373038   -0.655997    1.735037
     60          6           0        1.758114    1.689816    1.838007
     61          7           0        0.524766    2.030912    1.429435
     62          1           0       -1.227092    1.130488    0.862983
     63          6           0       -0.208270    0.943381    1.199533
     64          7           0        0.124806   -0.345669    1.321885
     65          1           0        4.801913    2.133141    2.833445
     66          6           0        3.841270    1.721927    2.522000
     67          7           0        3.568066    0.442425    2.445075
     68          6           0        2.250316    0.408098    2.012551
     69          6           0        2.749786    4.009109    2.140508
     70          7           0        2.791338    2.534157    2.168949
 ---------------------------------------------------------------------

 SCF Done:  E(RwB97XD) =  -2048.73689218     A.U. after   15 cycles

 The electronic state is 1-A.
 Alpha  occ. eigenvalues --  -19.26148 -19.22471 -19.20909 -14.52801 -14.51220
 Alpha  occ. eigenvalues --  -14.49042 -14.48726 -14.48224 -14.47554 -14.47273
 Alpha  occ. eigenvalues --  -14.46911 -14.44315 -14.42786 -14.42714 -14.42397
 Alpha  occ. eigenvalues --  -14.42062 -14.41420 -14.41030 -14.40790 -14.40024
 Alpha  occ. eigenvalues --  -10.45804 -10.41677 -10.40552 -10.38559 -10.38558
 Alpha  occ. eigenvalues --  -10.38201 -10.36856 -10.35804 -10.35496 -10.35313
 Alpha  occ. eigenvalues --  -10.34607 -10.34221 -10.34075 -10.33521 -10.33309
 Alpha  occ. eigenvalues --  -10.33082 -10.32975 -10.31491 -10.31371 -10.31121
 Alpha  occ. eigenvalues --  -10.30884 -10.28493 -10.28460  -1.19748  -1.14055
 Alpha  occ. eigenvalues --   -1.13522  -1.13463  -1.11313  -1.10874  -1.09686
 Alpha  occ. eigenvalues --   -1.09068  -1.07880  -1.04876  -1.03482  -1.02872
 Alpha  occ. eigenvalues --   -1.00520  -1.00330  -0.99723  -0.98861  -0.96918
 Alpha  occ. eigenvalues --   -0.96857  -0.95423  -0.92517  -0.91433  -0.86435
 Alpha  occ. eigenvalues --   -0.84859  -0.84439  -0.83960  -0.83882  -0.82798
 Alpha  occ. eigenvalues --   -0.82256  -0.79256  -0.75787  -0.74981  -0.74190
 Alpha  occ. eigenvalues --   -0.73722  -0.73452  -0.72828  -0.70974  -0.69196
 Alpha  occ. eigenvalues --   -0.67875  -0.66912  -0.66230  -0.65559  -0.64797
 Alpha  occ. eigenvalues --   -0.64102  -0.63083  -0.63016  -0.62581  -0.62353
 Alpha  occ. eigenvalues --   -0.60138  -0.59917  -0.59871  -0.59380  -0.59262
 Alpha  occ. eigenvalues --   -0.58974  -0.58420  -0.56923  -0.56436  -0.56327
 Alpha  occ. eigenvalues --   -0.56281  -0.55309  -0.54931  -0.54707  -0.54137
 Alpha  occ. eigenvalues --   -0.53987  -0.53667  -0.53282  -0.52723  -0.52610
 Alpha  occ. eigenvalues --   -0.52171  -0.51665  -0.51631  -0.50650  -0.50475
 Alpha  occ. eigenvalues --   -0.50103  -0.49751  -0.49186  -0.49120  -0.48837
 Alpha  occ. eigenvalues --   -0.48628  -0.48552  -0.48321  -0.47717  -0.47636
 Alpha  occ. eigenvalues --   -0.46875  -0.45535  -0.45018  -0.44434  -0.43255
 Alpha  occ. eigenvalues --   -0.41077  -0.39743  -0.39533  -0.37858  -0.37584
 Alpha  occ. eigenvalues --   -0.37097  -0.36878  -0.36229  -0.35604  -0.35057
 Alpha  occ. eigenvalues --   -0.33610  -0.33523  -0.33425  -0.33096  -0.32973
 Alpha  occ. eigenvalues --   -0.32740  -0.32514  -0.32359  -0.32104  -0.30841
 Alpha  occ. eigenvalues --   -0.30249  -0.28662  -0.25795  -0.25696
 Alpha virt. eigenvalues --    0.02679   0.05163   0.07874   0.08034   0.08167
 Alpha virt. eigenvalues --    0.09165   0.09500   0.11045   0.11300   0.12268
 Alpha virt. eigenvalues --    0.12767   0.13989   0.14397   0.14535   0.14933

 Mulliken charges:
               1
     1  N   -0.310966
     2  C    0.181156
     3  C    0.029268
     4  N   -0.259085
     5  C    0.133423
     6  H    0.026328
     7  N   -0.292018
     8  C    0.135301
     9  H    0.007798
    10  N   -0.290083
    11  C    0.243602
    12  C    0.125642
    13  N   -0.057020
    14  H    0.109381
    15  H    0.089860
    16  H    0.025064
    17  H    0.034932
    18  H    0.026049
    19  N   -0.310926
    20  C    0.252086
    21  C    0.182667
    22  N   -0.110664
    23  H    0.117530
    24  H    0.117596
    25  N   -0.286670
    26  C    0.203012
    27  N   -0.116715
    28  H    0.118761
    29  C    0.159565
    30  O   -0.318155
    31  C   -0.010378
    32  N   -0.217863
    33  C    0.129237
    34  H    0.031151
    35  H    0.029567
    36  H    0.027120
    37  H    0.025279
    38  H    0.062454
    39  H    0.059994
    40  H    0.076191
    41  H    0.033127
    42  C   -0.111698
    43  O   -0.267372
    44  C    0.165445
    45  H    0.134861
    46  N   -0.132899
    47  O   -0.347018
    48  C    0.357510
    49  H    0.049783
    50  C    0.170370
    51  C    0.043291
    52  N   -0.297428
    53  H    0.032489
    54  H    0.047258
    55  H    0.003082
    56  H    0.127127
    57  H    0.111961
    58  N   -0.067027
    59  C    0.093484
    60  C    0.226304
    61  N   -0.255468
    62  H    0.051464
    63  C    0.153322
    64  N   -0.295469
    65  H    0.028042
    66  C    0.120089
    67  N   -0.264516
    68  C    0.030526
    69  C    0.177185
    70  N   -0.297300
 Sum of Mulliken charges =  -0.00000

 Dipole moment (field-independent basis, Debye):
    X=              9.1544    Y=              4.6576    Z=              1.9531  Tot=             10.4552
 Quadrupole moment (field-independent basis, Debye-Ang):
   XX=           -154.2085   YY=           -210.4388   ZZ=           -250.4483
   XY=             -3.2085   XZ=             11.1872   YZ=             -8.6138

 Normal termination of Gaussian 16 at Sat Jan 27 11:35:20 2018.
