 Gaussian 16, Revision A.03,
 Gaussian 16:  EM64L-G16RevA.03 25-Dec-2016

 ---------------------------------------
 #p wb97xd/cc-pvdz sp scf=(maxcycles=20)
 ---------------------------------------

 ------------------
 Base pair stacking
 ------------------
 Symbolic Z-matrix:
 Charge =  0 Multiplicity = 1

                         Standard orientation:
 ---------------------------------------------------------------------
 Center     Atomic      Atomic             Coordinates (Angstroms)
 Number     Number       Type             X           Y           Z
 ---------------------------------------------------------------------
      1          7           0       -6.151036   -1.685915    0.813870
      2          6           0       -7.546397   -1.238769    0.637698
      3          6           0       -3.968860   -1.721724    1.086153
      4          7           0       -4.376225   -3.047176    1.041774
      5          6           0       -5.674606   -2.972548    0.879509
      6          1           0       -6.340022   -3.832755    0.800704
      7          7           0       -2.645478    0.224401    1.241738
      8          6           0       -3.780608    0.915813    1.096831
      9          1           0       -3.669489    1.999246    1.105441
     10          7           0       -5.026562    0.471906    0.943622
     11          6           0       -5.051752   -0.871145    0.946989
     12          6           0       -2.704263   -1.125282    1.240949
     13          7           0       -1.572222   -1.817216    1.385457
     14          1           0       -1.568526   -2.817802    1.390774
     15          1           0       -0.689722   -1.359282    1.493289
     16          1           0       -8.105838   -1.582771    1.391936
     17          1           0       -7.578468   -0.239767    0.628851
     18          1           0       -7.904357   -1.589738   -0.227564
     19          7           0       -2.634684    3.225372   -1.597531
     20          6           0       -1.392396    2.663046   -1.428549
     21          6           0       -2.962362    4.650099   -1.389078
     22          7           0        1.966946    2.981732   -0.606985
     23          1           0        2.770025    2.389942   -0.542990
     24          1           0        2.097102    3.948646   -0.385917
     25          7           0       -0.271375    3.312351   -1.046755
     26          6           0        0.768923    2.501228   -0.972703
     27          7           0        0.717441    1.156797   -1.250836
     28          1           0        1.562967    0.613526   -1.167653
     29          6           0       -0.425047    0.467669   -1.645378
     30          8           0       -0.363910   -0.747025   -1.872377
     31          6           0       -1.550846    1.325811   -1.729411
     32          7           0       -2.866136    1.054098   -2.080221
     33          6           0       -3.470380    2.207609   -1.987957
     34          1           0       -4.528463    2.372590   -2.194122
     35          1           0       -3.659835    4.732859   -0.678100
     36          1           0       -2.139594    5.141189   -1.105977
     37          1           0       -3.306992    5.042705   -2.241081
     38          1           0        5.952064   -1.644497    0.052956
     39          1           0        6.234043   -1.569577   -1.684728
     40          1           0        5.281441   -0.314477   -0.891874
     41          1           0        3.237360   -5.325417   -1.439601
     42          6           0        3.200719   -4.236744   -1.398615
     43          8           0        0.861341   -4.117743   -1.773106
     44          6           0        1.945959   -3.571324   -1.573540
     45          1           0        1.144375   -1.688929   -1.622464
     46          7           0        2.011075   -2.194329   -1.503616
     47          8           0        3.087445   -0.211668   -1.243473
     48          6           0        3.129602   -1.428547   -1.289094
     49          1           0        5.287533   -3.974860   -1.048681
     50          6           0        4.309015   -3.517142   -1.187738
     51          6           0        5.522466   -1.367095   -0.898140
     52          7           0        4.300826   -2.142749   -1.129819
     53          1           0        3.999578    4.412651    2.233715
     54          1           0        2.858920    4.184865    1.089545
     55          1           0        4.440049    4.123343    0.689140
     56          1           0        1.919606   -2.709430    2.110268
     57          1           0        3.512846   -2.218802    2.472158
     58          7           0        2.593254   -1.972251    2.164310
     59          6           0        2.280225   -0.715943    1.840467
     60          6           0        2.717506    1.602507    1.531775
     61          7           0        1.474541    1.904451    1.121526
     62          1           0       -0.318754    0.970769    0.785464
     63          6           0        0.709903    0.814481    1.107497
     64          7           0        1.021562   -0.444677    1.431481
     65          1           0        5.810820    2.121720    2.315348
     66          6           0        4.829109    1.690938    2.116366
     67          7           0        4.526579    0.424630    2.266844
     68          6           0        3.190558    0.354912    1.899535
     69          6           0        3.768955    3.911422    1.399700
     70          7           0        3.781463    2.461418    1.674173
 ---------------------------------------------------------------------

 SCF Done:  E(RwB97XD) =  -2048.65303170     A.U. after   15 cycles

 The electronic state is 1-A.
 Alpha  occ. eigenvalues --  -19.25914 -19.21885 -19.20783 -14.52598 -14.52410
 Alpha  occ. eigenvalues --  -14.48918 -14.48511 -14.47979 -14.47824 -14.46910
 Alpha  occ. eigenvalues --  -14.45670 -14.45314 -14.43560 -14.42597 -14.42276
 Alpha  occ. eigenvalues --  -14.42245 -14.41218 -14.40855 -14.40610 -14.39942
 Alpha  occ. eigenvalues --  -10.45487 -10.40926 -10.40022 -10.39340 -10.38291
 Alpha  occ. eigenvalues --  -10.37812 -10.37802 -10.36673 -10.35270 -10.35025
 Alpha  occ. eigenvalues --  -10.34890 -10.34612 -10.34470 -10.33882 -10.33348
 Alpha  occ. eigenvalues --  -10.33110 -10.32848 -10.32153 -10.31133 -10.31065
 Alpha  occ. eigenvalues --  -10.30707 -10.28309 -10.28231  -1.19468  -1.15297
 Alpha  occ. eigenvalues --   -1.13561  -1.12931  -1.11100  -1.10756  -1.09453
 Alpha  occ. eigenvalues --   -1.09286  -1.08471  -1.04781  -1.04510  -1.02437
 Alpha  occ. eigenvalues --   -1.01254  -1.00287  -1.00013  -0.98765  -0.96793
 Alpha  occ. eigenvalues --   -0.96741  -0.96224  -0.92446  -0.91038  -0.87611
 Alpha  occ. eigenvalues --   -0.86271  -0.84243  -0.83699  -0.83525  -0.82667
 Alpha  occ. eigenvalues --   -0.82097  -0.78871  -0.76956  -0.75064  -0.74803
 Alpha  occ. eigenvalues --   -0.73612  -0.73304  -0.72732  -0.70847  -0.70422
 Alpha  occ. eigenvalues --   -0.67706  -0.66743  -0.66518  -0.66152  -0.64562
 Alpha  occ. eigenvalues --   -0.64399  -0.63821  -0.63089  -0.62596  -0.62301
 Alpha  occ. eigenvalues --   -0.60688  -0.60421  -0.60200  -0.59660  -0.59504
 Alpha  occ. eigenvalues --   -0.59387  -0.58562  -0.57475  -0.56346  -0.56191
 Alpha  occ. eigenvalues --   -0.56106  -0.56057  -0.55307  -0.54875  -0.54293
 Alpha  occ. eigenvalues --   -0.54147  -0.53672  -0.53131  -0.53073  -0.52944
 Alpha  occ. eigenvalues --   -0.52377  -0.52240  -0.51544  -0.50539  -0.50257
 Alpha  occ. eigenvalues --   -0.50009  -0.49473  -0.49351  -0.49071  -0.48811
 Alpha  occ. eigenvalues --   -0.48752  -0.48418  -0.48282  -0.47961  -0.47433
 Alpha  occ. eigenvalues --   -0.46714  -0.46341  -0.44861  -0.43923  -0.43426
 Alpha  occ. eigenvalues --   -0.40980  -0.40759  -0.39507  -0.38060  -0.37629
 Alpha  occ. eigenvalues --   -0.37376  -0.36962  -0.36657  -0.35851  -0.35122
 Alpha  occ. eigenvalues --   -0.34239  -0.33455  -0.33299  -0.33105  -0.32702
 Alpha  occ. eigenvalues --   -0.32499  -0.31941  -0.31925  -0.30568  -0.30339
 Alpha  occ. eigenvalues --   -0.29831  -0.28575  -0.25772  -0.24941
 Alpha virt. eigenvalues --    0.03096   0.04430   0.07447   0.08214   0.08307
 Alpha virt. eigenvalues --    0.09138   0.09306   0.11028   0.11428   0.11742
 Alpha virt. eigenvalues --    0.12451   0.13872   0.14264   0.14554   0.15025

 Mulliken charges:
               1
     1  N   -0.312643
     2  C    0.181773
     3  C    0.035662
     4  N   -0.260975
     5  C    0.134791
     6  H    0.025841
     7  N   -0.292003
     8  C    0.150523
     9  H    0.004353
    10  N   -0.291333
    11  C    0.252821
    12  C    0.123100
    13  N   -0.061930
    14  H    0.107324
    15  H    0.084174
    16  H    0.023876
    17  H    0.033316
    18  H    0.027235
    19  N   -0.310542
    20  C    0.241320
    21  C    0.181750
    22  N   -0.072414
    23  H    0.113184
    24  H    0.103947
    25  N   -0.287226
    26  C    0.207342
    27  N   -0.120602
    28  H    0.121803
    29  C    0.153522
    30  O   -0.315938
    31  C    0.020090
    32  N   -0.220855
    33  C    0.122027
    34  H    0.027474
    35  H    0.027783
    36  H    0.027953
    37  H    0.025263
    38  H    0.060399
    39  H    0.058193
    40  H    0.076788
    41  H    0.031949
    42  C   -0.111731
    43  O   -0.261039
    44  C    0.174896
    45  H    0.132981
    46  N   -0.130245
    47  O   -0.346407
    48  C    0.351273
    49  H    0.047089
    50  C    0.165297
    51  C    0.042556
    52  N   -0.292141
    53  H    0.039875
    54  H    0.036321
    55  H    0.029934
    56  H    0.119155
    57  H    0.114794
    58  N   -0.070817
    59  C    0.081602
    60  C    0.221127
    61  N   -0.294786
    62  H    0.036419
    63  C    0.174136
    64  N   -0.302555
    65  H    0.035234
    66  C    0.134205
    67  N   -0.265499
    68  C    0.054101
    69  C    0.163112
    70  N   -0.318000
 Sum of Mulliken charges =  -0.00000

 Dipole moment (field-independent basis, Debye):
    X=              8.8441    Y=              4.8572    Z=              2.7870  Tot=             10.4680
 Quadrupole moment (field-independent basis, Debye-Ang):
   XX=           -162.0932   YY=           -210.1396   ZZ=           -255.3592
   XY=             -6.3980   XZ=              1.7831   YZ=            -10.2308

 Normal termination of Gaussian 16 at Sat Jan 27 00:46:16 2018.
