 Gaussian 16, Revision A.03,
 Gaussian 16:  EM64L-G16RevA.03 25-Dec-2016

 ---------------------------------------
 #p wb97xd/cc-pvdz sp scf=(maxcycles=20)
 ---------------------------------------

 ------------------
 Base pair stacking
 ------------------
 Symbolic Z-matrix:
 Charge =  0 Multiplicity = 1

                         Standard orientation:
 ---------------------------------------------------------------------
 Center     Atomic      Atomic             Coordinates (Angstroms)
 Number     Number       Type             X           Y           Z
 ---------------------------------------------------------------------
      1          7           0       -6.685082   -1.631468    0.421036
      2          6           0       -8.073926   -1.186897    0.194187
      3          6           0       -4.517341   -1.663452    0.791388
      4          7           0       -4.913489   -2.989237    0.690942
      5          6           0       -6.203616   -2.916906    0.471837
      6          1           0       -6.859069   -3.778030    0.338426
      7          7           0       -3.215289    0.284432    1.062234
      8          6           0       -4.347220    0.973663    0.885395
      9          1           0       -4.243774    2.056993    0.929765
     10          7           0       -5.581953    0.527703    0.663026
     11          6           0       -5.598402   -0.815004    0.627173
     12          6           0       -3.265044   -1.064955    1.020512
     13          7           0       -2.136184   -1.754717    1.196812
     14          1           0       -2.126114   -2.755012    1.173927
     15          1           0       -1.262537   -1.295372    1.357697
     16          1           0       -8.664758   -1.555312    0.912089
     17          1           0       -8.112177   -0.188231    0.212211
     18          1           0       -8.389899   -1.514859   -0.696091
     19          7           0       -2.017399    3.157591   -1.760802
     20          6           0       -0.785434    2.598825   -1.519745
     21          6           0       -2.344620    4.591684   -1.630366
     22          7           0        2.542688    2.941960   -0.588322
     23          1           0        3.339488    2.350622   -0.467195
     24          1           0        2.669936    3.917505   -0.407147
     25          7           0        0.324201    3.260665   -1.126399
     26          6           0        1.356452    2.449777   -0.976253
     27          7           0        1.307826    1.094167   -1.194136
     28          1           0        2.146608    0.552026   -1.054480
     29          6           0        0.176981    0.392045   -1.599184
     30          8           0        0.239726   -0.832050   -1.767749
     31          6           0       -0.940062    1.249777   -1.764656
     32          7           0       -2.242873    0.967298   -2.151668
     33          6           0       -2.843657    2.126181   -2.135156
     34          1           0       -3.892378    2.285609   -2.388186
     35          1           0       -3.067628    4.709813   -0.950579
     36          1           0       -1.530229    5.092079   -1.339456
     37          1           0       -2.655050    4.945953   -2.511809
     38          1           0        6.474436   -1.664422    0.432116
     39          1           0        6.821390   -1.670740   -1.295380
     40          1           0        5.846951   -0.376748   -0.597216
     41          1           0        3.796635   -5.399620   -0.990656
     42          6           0        3.764602   -4.310072   -1.001066
     43          8           0        1.441506   -4.199355   -1.468053
     44          6           0        2.520975   -3.648538   -1.253261
     45          1           0        1.732343   -1.767300   -1.418533
     46          7           0        2.591165   -2.270046   -1.244199
     47          8           0        3.668200   -0.281710   -1.035153
     48          6           0        3.705209   -1.499551   -1.023273
     49          1           0        5.838355   -4.040464   -0.585549
     50          6           0        4.868277   -3.585832   -0.782043
     51          6           0        6.082139   -1.429461   -0.546134
     52          7           0        4.865653   -2.210217   -0.787606
     53          1           0        3.350007    4.477872    2.474426
     54          1           0        2.264023    4.276861    1.273453
     55          1           0        3.862076    4.235233    0.943950
     56          1           0        1.324949   -2.648724    2.054466
     57          1           0        2.896837   -2.160181    2.502364
     58          7           0        1.990550   -1.909817    2.160031
     59          6           0        1.684250   -0.646441    1.858001
     60          6           0        2.119756    1.682191    1.635399
     61          7           0        0.894737    1.989127    1.177637
     62          1           0       -0.875225    1.055927    0.733849
     63          6           0        0.138747    0.895958    1.097882
     64          7           0        0.443701   -0.370280    1.399908
     65          1           0        5.170786    2.195215    2.573569
     66          6           0        4.201990    1.765085    2.317911
     67          7           0        3.901330    0.493400    2.418484
     68          6           0        2.583854    0.427110    1.988835
     69          6           0        3.160821    3.999497    1.616891
     70          7           0        3.170443    2.542314    1.850443
 ---------------------------------------------------------------------

 SCF Done:  E(RwB97XD) =  -2048.67908673     A.U. after   15 cycles

 The electronic state is 1-A.
 Alpha  occ. eigenvalues --  -19.25969 -19.22091 -19.20618 -14.52566 -14.51991
 Alpha  occ. eigenvalues --  -14.48767 -14.48753 -14.47971 -14.47814 -14.46365
 Alpha  occ. eigenvalues --  -14.46206 -14.44941 -14.43531 -14.42810 -14.42328
 Alpha  occ. eigenvalues --  -14.41663 -14.41471 -14.40881 -14.40769 -14.40145
 Alpha  occ. eigenvalues --  -10.45595 -10.41294 -10.40211 -10.39360 -10.38170
 Alpha  occ. eigenvalues --  -10.37949 -10.37636 -10.36364 -10.35451 -10.35264
 Alpha  occ. eigenvalues --  -10.34780 -10.34333 -10.34153 -10.34126 -10.33369
 Alpha  occ. eigenvalues --  -10.33228 -10.33082 -10.32113 -10.31261 -10.30955
 Alpha  occ. eigenvalues --  -10.30907 -10.28565 -10.28108  -1.19549  -1.15071
 Alpha  occ. eigenvalues --   -1.13275  -1.13115  -1.11359  -1.10598  -1.09450
 Alpha  occ. eigenvalues --   -1.08993  -1.08581  -1.04984  -1.04157  -1.02610
 Alpha  occ. eigenvalues --   -1.01436  -1.00477  -0.99510  -0.98456  -0.97006
 Alpha  occ. eigenvalues --   -0.96556  -0.96278  -0.92642  -0.91187  -0.87468
 Alpha  occ. eigenvalues --   -0.86051  -0.84154  -0.83939  -0.83719  -0.82580
 Alpha  occ. eigenvalues --   -0.82316  -0.79009  -0.76658  -0.74752  -0.74248
 Alpha  occ. eigenvalues --   -0.73958  -0.73463  -0.72934  -0.71069  -0.70125
 Alpha  occ. eigenvalues --   -0.67640  -0.66709  -0.66478  -0.66347  -0.64560
 Alpha  occ. eigenvalues --   -0.64116  -0.63826  -0.62971  -0.62744  -0.62710
 Alpha  occ. eigenvalues --   -0.60388  -0.60251  -0.59903  -0.59639  -0.59520
 Alpha  occ. eigenvalues --   -0.59458  -0.58912  -0.57096  -0.56552  -0.56350
 Alpha  occ. eigenvalues --   -0.56014  -0.55787  -0.55478  -0.54650  -0.54367
 Alpha  occ. eigenvalues --   -0.53762  -0.53582  -0.53376  -0.52966  -0.52712
 Alpha  occ. eigenvalues --   -0.52476  -0.51971  -0.51748  -0.50714  -0.50204
 Alpha  occ. eigenvalues --   -0.50177  -0.49542  -0.49457  -0.48889  -0.48853
 Alpha  occ. eigenvalues --   -0.48825  -0.48391  -0.48248  -0.48104  -0.47405
 Alpha  occ. eigenvalues --   -0.46946  -0.45836  -0.45088  -0.44107  -0.42694
 Alpha  occ. eigenvalues --   -0.41177  -0.39783  -0.39456  -0.38329  -0.37200
 Alpha  occ. eigenvalues --   -0.37179  -0.36972  -0.36489  -0.35646  -0.34371
 Alpha  occ. eigenvalues --   -0.33850  -0.33621  -0.33497  -0.33245  -0.33186
 Alpha  occ. eigenvalues --   -0.32637  -0.32242  -0.32070  -0.31804  -0.30827
 Alpha  occ. eigenvalues --   -0.30360  -0.29160  -0.25835  -0.25013
 Alpha virt. eigenvalues --    0.02937   0.03921   0.07429   0.07936   0.08310
 Alpha virt. eigenvalues --    0.09287   0.09615   0.10804   0.11441   0.12145
 Alpha virt. eigenvalues --    0.12970   0.13851   0.14111   0.14664   0.15048

 Mulliken charges:
               1
     1  N   -0.311632
     2  C    0.181291
     3  C    0.031994
     4  N   -0.260259
     5  C    0.134471
     6  H    0.026625
     7  N   -0.292762
     8  C    0.141611
     9  H    0.005519
    10  N   -0.290100
    11  C    0.247552
    12  C    0.126840
    13  N   -0.059660
    14  H    0.108144
    15  H    0.087659
    16  H    0.024808
    17  H    0.034593
    18  H    0.026897
    19  N   -0.312780
    20  C    0.229810
    21  C    0.182121
    22  N   -0.092375
    23  H    0.117886
    24  H    0.107734
    25  N   -0.267584
    26  C    0.165244
    27  N   -0.099631
    28  H    0.113974
    29  C    0.133494
    30  O   -0.314226
    31  C    0.010219
    32  N   -0.218968
    33  C    0.124482
    34  H    0.029895
    35  H    0.027645
    36  H    0.026685
    37  H    0.024938
    38  H    0.061404
    39  H    0.058597
    40  H    0.075861
    41  H    0.032387
    42  C   -0.112462
    43  O   -0.263127
    44  C    0.172749
    45  H    0.134007
    46  N   -0.136147
    47  O   -0.345359
    48  C    0.357249
    49  H    0.048177
    50  C    0.167723
    51  C    0.044089
    52  N   -0.296670
    53  H    0.031105
    54  H    0.042724
    55  H    0.006291
    56  H    0.123641
    57  H    0.114955
    58  N   -0.070174
    59  C    0.092746
    60  C    0.198616
    61  N   -0.252532
    62  H    0.069916
    63  C    0.158048
    64  N   -0.297265
    65  H    0.032355
    66  C    0.125843
    67  N   -0.264936
    68  C    0.052106
    69  C    0.193735
    70  N   -0.307807
 Sum of Mulliken charges =  -0.00000

 Dipole moment (field-independent basis, Debye):
    X=              8.7653    Y=              4.5693    Z=              3.2102  Tot=             10.3931
 Quadrupole moment (field-independent basis, Debye-Ang):
   XX=           -157.2246   YY=           -211.4879   ZZ=           -253.5099
   XY=             -3.9882   XZ=              8.6066   YZ=            -10.5591

 Normal termination of Gaussian 16 at Fri Jan 26 22:09:35 2018.
