 Gaussian 16, Revision A.03,
 Gaussian 16:  EM64L-G16RevA.03 25-Dec-2016

 ---------------------------------------
 #p wb97xd/cc-pvdz sp scf=(maxcycles=20)
 ---------------------------------------

 ------------------
 Base pair stacking
 ------------------
 Symbolic Z-matrix:
 Charge =  0 Multiplicity = 1

                         Standard orientation:
 ---------------------------------------------------------------------
 Center     Atomic      Atomic             Coordinates (Angstroms)
 Number     Number       Type             X           Y           Z
 ---------------------------------------------------------------------
      1          7           0        4.275412   -2.246956   -1.866317
      2          6           0        5.687584   -1.890650   -2.104667
      3          6           0        2.093888   -2.150466   -1.603697
      4          7           0        2.447024   -3.481033   -1.431583
      5          6           0        3.747170   -3.485911   -1.596689
      6          1           0        4.377011   -4.373646   -1.532158
      7          7           0        0.850834   -0.153034   -1.771116
      8          6           0        2.012948    0.459670   -2.019414
      9          1           0        1.945940    1.533891   -2.186201
     10          7           0        3.239658   -0.052955   -2.092269
     11          6           0        3.210280   -1.377777   -1.872279
     12          6           0        0.854735   -1.486414   -1.553976
     13          7           0       -0.304313   -2.099821   -1.305957
     14          1           0       -0.348650   -3.085476   -1.139413
     15          1           0       -1.167363   -1.595334   -1.278175
     16          1           0        6.029520   -2.391569   -2.899870
     17          1           0        5.760197   -0.908267   -2.274288
     18          1           0        6.233935   -2.129880   -1.302007
     19          7           0        4.570179    3.257799    0.671618
     20          6           0        3.295642    2.771690    0.836886
     21          6           0        4.915356    4.658360    0.355417
     22          7           0       -0.137948    3.290640    0.890973
     23          1           0       -0.963470    2.748845    1.046562
     24          1           0       -0.264252    4.262263    0.689195
     25          7           0        2.153668    3.486097    0.738968
     26          6           0        1.083977    2.739892    0.950034
     27          7           0        1.127154    1.396663    1.235292
     28          1           0        0.258561    0.905783    1.382065
     29          6           0        2.290813    0.641269    1.340924
     30          8           0        2.219724   -0.565890    1.602572
     31          6           0        3.448271    1.429235    1.116717
     32          7           0        4.791608    1.079577    1.126921
     33          6           0        5.417723    2.193205    0.858591
     34          1           0        6.501064    2.294283    0.784883
     35          1           0        5.411612    4.693559   -0.511358
     36          1           0        4.077305    5.197177    0.280452
     37          1           0        5.488261    5.034567    1.082782
     38          1           0       -4.419422   -1.086454    1.369041
     39          1           0       -4.243303   -0.983151    3.119170
     40          1           0       -3.454099    0.205967    2.082578
     41          1           0       -1.630521   -4.917330    2.201472
     42          6           0       -1.542828   -3.833245    2.128663
     43          8           0        0.817434   -3.855618    1.892458
     44          6           0       -0.248785   -3.244969    1.963705
     45          1           0        0.645906   -1.415045    1.765652
     46          7           0       -0.250062   -1.867047    1.882503
     47          8           0       -1.240943    0.176207    1.861616
     48          6           0       -1.340171   -1.035471    1.943121
     49          1           0       -3.631085   -3.446055    2.315960
     50          6           0       -2.624786   -3.048360    2.191212
     51          6           0       -3.745843   -0.829803    2.173080
     52          7           0       -2.552400   -1.677464    2.103009
     53          1           0       -5.663024    4.346292   -1.860461
     54          1           0       -4.285134    4.209334   -0.997486
     55          1           0       -5.719645    4.337401   -0.229475
     56          1           0       -3.899375   -2.812496   -1.019762
     57          1           0       -5.512026   -2.258685   -1.072191
     58          7           0       -4.535914   -2.041365   -1.037666
     59          6           0       -4.103358   -0.778980   -1.016468
     60          6           0       -4.359166    1.586672   -1.013275
     61          7           0       -3.042491    1.848678   -0.966864
     62          1           0       -1.259985    0.838656   -0.910927
     63          6           0       -2.341632    0.716707   -0.948581
     64          7           0       -2.773006   -0.548624   -0.969751
     65          1           0       -7.527229    2.222638   -1.118552
     66          6           0       -6.544545    1.751162   -1.087286
     67          7           0       -6.338687    0.456823   -1.086771
     68          6           0       -4.957159    0.338784   -1.040065
     69          6           0       -5.253616    3.964410   -1.031882
     70          7           0       -5.390637    2.495034   -1.044001
 ---------------------------------------------------------------------

 SCF Done:  E(RwB97XD) =  -2048.74628917     A.U. after   15 cycles

 The electronic state is 1-A.
 Alpha  occ. eigenvalues --  -19.25138 -19.21187 -19.20483 -14.52622 -14.51765
 Alpha  occ. eigenvalues --  -14.49260 -14.48828 -14.48103 -14.47043 -14.46625
 Alpha  occ. eigenvalues --  -14.46343 -14.45539 -14.45058 -14.44975 -14.43104
 Alpha  occ. eigenvalues --  -14.41928 -14.40953 -14.40830 -14.40759 -14.40471
 Alpha  occ. eigenvalues --  -10.44740 -10.41047 -10.40639 -10.39301 -10.38130
 Alpha  occ. eigenvalues --  -10.38085 -10.37613 -10.37338 -10.36394 -10.35653
 Alpha  occ. eigenvalues --  -10.34383 -10.34299 -10.34001 -10.33563 -10.33393
 Alpha  occ. eigenvalues --  -10.33094 -10.32988 -10.32916 -10.31030 -10.30651
 Alpha  occ. eigenvalues --  -10.30000 -10.28310 -10.28056  -1.18704  -1.15424
 Alpha  occ. eigenvalues --   -1.13052  -1.12199  -1.10797  -1.10558  -1.10016
 Alpha  occ. eigenvalues --   -1.08646  -1.08376  -1.05546  -1.05137  -1.01697
 Alpha  occ. eigenvalues --   -1.01220  -1.00655  -0.99484  -0.98429  -0.97519
 Alpha  occ. eigenvalues --   -0.96590  -0.96506  -0.92817  -0.90507  -0.87983
 Alpha  occ. eigenvalues --   -0.86120  -0.84096  -0.83484  -0.82938  -0.82504
 Alpha  occ. eigenvalues --   -0.81753  -0.78273  -0.77518  -0.75339  -0.74537
 Alpha  occ. eigenvalues --   -0.73415  -0.72832  -0.72641  -0.70984  -0.70825
 Alpha  occ. eigenvalues --   -0.67396  -0.67181  -0.66233  -0.65909  -0.64733
 Alpha  occ. eigenvalues --   -0.64209  -0.63386  -0.62712  -0.62435  -0.61578
 Alpha  occ. eigenvalues --   -0.61005  -0.60668  -0.60008  -0.59777  -0.59072
 Alpha  occ. eigenvalues --   -0.58998  -0.58086  -0.56716  -0.56486  -0.55734
 Alpha  occ. eigenvalues --   -0.55543  -0.55530  -0.55478  -0.54962  -0.54016
 Alpha  occ. eigenvalues --   -0.53944  -0.53494  -0.53272  -0.53126  -0.52824
 Alpha  occ. eigenvalues --   -0.52523  -0.51823  -0.51262  -0.50384  -0.50302
 Alpha  occ. eigenvalues --   -0.50017  -0.49827  -0.49410  -0.48920  -0.48736
 Alpha  occ. eigenvalues --   -0.48614  -0.47916  -0.47720  -0.47584  -0.47017
 Alpha  occ. eigenvalues --   -0.46619  -0.45620  -0.45436  -0.44646  -0.43312
 Alpha  occ. eigenvalues --   -0.41125  -0.41055  -0.38870  -0.38216  -0.38015
 Alpha  occ. eigenvalues --   -0.37256  -0.37160  -0.36742  -0.35395  -0.35082
 Alpha  occ. eigenvalues --   -0.34972  -0.33886  -0.33328  -0.33206  -0.32772
 Alpha  occ. eigenvalues --   -0.32506  -0.32241  -0.31770  -0.31270  -0.30708
 Alpha  occ. eigenvalues --   -0.30531  -0.30248  -0.26119  -0.25138
 Alpha virt. eigenvalues --    0.03425   0.03734   0.06538   0.08058   0.09080
 Alpha virt. eigenvalues --    0.09390   0.09865   0.10328   0.11066   0.11235
 Alpha virt. eigenvalues --    0.13564   0.14540   0.14564   0.14814   0.14934

 Mulliken charges:
               1
     1  N   -0.313597
     2  C    0.184552
     3  C    0.059789
     4  N   -0.259958
     5  C    0.145003
     6  H    0.027852
     7  N   -0.291343
     8  C    0.124436
     9  H    0.015248
    10  N   -0.273677
    11  C    0.263939
    12  C    0.082452
    13  N   -0.072493
    14  H    0.109339
    15  H    0.083815
    16  H    0.019542
    17  H    0.034717
    18  H    0.033438
    19  N   -0.311414
    20  C    0.247261
    21  C    0.180860
    22  N   -0.116775
    23  H    0.117545
    24  H    0.116160
    25  N   -0.311305
    26  C    0.239531
    27  N   -0.134956
    28  H    0.116151
    29  C    0.176182
    30  O   -0.321005
    31  C   -0.000285
    32  N   -0.230835
    33  C    0.125136
    34  H    0.022735
    35  H    0.027045
    36  H    0.029297
    37  H    0.024865
    38  H    0.051324
    39  H    0.057355
    40  H    0.075561
    41  H    0.028928
    42  C   -0.113699
    43  O   -0.254322
    44  C    0.167594
    45  H    0.137034
    46  N   -0.126704
    47  O   -0.348253
    48  C    0.354661
    49  H    0.041837
    50  C    0.159250
    51  C    0.041914
    52  N   -0.283523
    53  H    0.034710
    54  H    0.038272
    55  H    0.031326
    56  H    0.117028
    57  H    0.121633
    58  N   -0.063411
    59  C    0.068178
    60  C    0.249234
    61  N   -0.278894
    62  H    0.024435
    63  C    0.187590
    64  N   -0.309725
    65  H    0.040040
    66  C    0.143796
    67  N   -0.260887
    68  C    0.031339
    69  C    0.180774
    70  N   -0.313645
 Sum of Mulliken charges =  -0.00000

 Dipole moment (field-independent basis, Debye):
    X=             -9.2323    Y=              5.4046    Z=             -0.8694  Tot=             10.7332
 Quadrupole moment (field-independent basis, Debye-Ang):
   XX=           -178.1518   YY=           -206.8907   ZZ=           -250.2607
   XY=              8.8346   XZ=            -18.8617   YZ=              4.4620

 Normal termination of Gaussian 16 at Sat Jan 27 12:08:34 2018.
