 Gaussian 16, Revision A.03,
 Gaussian 16:  EM64L-G16RevA.03 25-Dec-2016

 ---------------------------------------
 #p wb97xd/cc-pvdz sp scf=(maxcycles=20)
 ---------------------------------------

 ------------------
 Base pair stacking
 ------------------
 Symbolic Z-matrix:
 Charge =  0 Multiplicity = 1

                         Standard orientation:
 ---------------------------------------------------------------------
 Center     Atomic      Atomic             Coordinates (Angstroms)
 Number     Number       Type             X           Y           Z
 ---------------------------------------------------------------------
      1          7           0        4.619160   -2.086464   -1.714728
      2          6           0        6.038995   -1.696500   -1.814772
      3          6           0        2.423878   -2.034128   -1.590973
      4          7           0        2.783156   -3.373476   -1.548428
      5          6           0        4.091357   -3.351396   -1.624691
      6          1           0        4.727738   -4.236804   -1.619495
      7          7           0        1.167189   -0.038332   -1.612898
      8          6           0        2.334658    0.605932   -1.710431
      9          1           0        2.264021    1.691776   -1.757614
     10          7           0        3.570468    0.112590   -1.758206
     11          6           0        3.544865   -1.228885   -1.693433
     12          6           0        1.175088   -1.387784   -1.549673
     13          7           0        0.010712   -2.032707   -1.452287
     14          1           0       -0.030947   -3.031218   -1.402773
     15          1           0       -0.859170   -1.540035   -1.425528
     16          1           0        6.439939   -2.100667   -2.637011
     17          1           0        6.109121   -0.700706   -1.865798
     18          1           0        6.534021   -2.022997   -1.009575
     19          7           0        4.246634    3.255667    0.831572
     20          6           0        2.974272    2.744035    0.917582
     21          6           0        4.583861    4.652521    0.491309
     22          7           0       -0.464036    3.178908    0.692547
     23          1           0       -1.286831    2.622476    0.804942
     24          1           0       -0.596033    4.139462    0.446324
     25          7           0        1.827588    3.425936    0.707395
     26          6           0        0.761686    2.661140    0.864069
     27          7           0        0.812678    1.330151    1.200813
     28          1           0       -0.053504    0.823210    1.299305
     29          6           0        1.981298    0.608113    1.421840
     30          8           0        1.917168   -0.590592    1.721414
     31          6           0        3.134770    1.416362    1.257168
     32          7           0        4.480797    1.100821    1.381841
     33          6           0        5.100776    2.219672    1.121057
     34          1           0        6.184076    2.345056    1.125914
     35          1           0        5.144105    4.669831   -0.336115
     36          1           0        3.742265    5.167358    0.333424
     37          1           0        5.090935    5.067989    1.245672
     38          1           0       -4.671446   -1.284113    1.005200
     39          1           0       -4.632133   -1.115531    2.758684
     40          1           0       -3.792458    0.056022    1.741932
     41          1           0       -1.870195   -5.013033    2.186178
     42          6           0       -1.801243   -3.930294    2.080545
     43          8           0        0.570081   -3.902120    2.024663
     44          6           0       -0.511730   -3.316088    1.992577
     45          1           0        0.354707   -1.472466    1.795896
     46          7           0       -0.537340   -1.942291    1.861073
     47          8           0       -1.568771    0.073697    1.690376
     48          6           0       -1.647058   -1.136512    1.808479
     49          1           0       -3.905782   -3.588918    2.094909
     50          6           0       -2.901951   -3.170884    2.032212
     51          6           0       -4.067240   -0.982905    1.847983
     52          7           0       -2.853441   -1.802519    1.899566
     53          1           0       -5.387946    4.401523   -1.628271
     54          1           0       -4.068712    4.174783   -0.695366
     55          1           0       -5.552746    4.205003   -0.016558
     56          1           0       -3.585206   -2.795515   -1.493184
     57          1           0       -5.198317   -2.249238   -1.590988
     58          7           0       -4.229756   -2.031347   -1.465928
     59          6           0       -3.817075   -0.777128   -1.271507
     60          6           0       -4.105240    1.570880   -1.015511
     61          7           0       -2.798317    1.833878   -0.850534
     62          1           0       -1.009666    0.835052   -0.789852
     63          6           0       -2.084631    0.711616   -0.914269
     64          7           0       -2.496096   -0.545526   -1.108915
     65          1           0       -7.267789    2.195335   -1.261521
     66          6           0       -6.282924    1.729408   -1.217892
     67          7           0       -6.059665    0.444870   -1.351264
     68          6           0       -4.682809    0.330699   -1.224999
     69          6           0       -5.029283    3.929512   -0.822943
     70          7           0       -5.144845    2.470437   -1.012006
 ---------------------------------------------------------------------

 SCF Done:  E(RwB97XD) =  -2048.74585815     A.U. after   15 cycles

 The electronic state is 1-A.
 Alpha  occ. eigenvalues --  -19.25130 -19.21270 -19.20313 -14.52810 -14.51884
 Alpha  occ. eigenvalues --  -14.49361 -14.48610 -14.48203 -14.47159 -14.46376
 Alpha  occ. eigenvalues --  -14.45750 -14.45708 -14.45191 -14.45096 -14.43066
 Alpha  occ. eigenvalues --  -14.41691 -14.40973 -14.40675 -14.40651 -14.40358
 Alpha  occ. eigenvalues --  -10.44800 -10.40770 -10.40741 -10.39402 -10.38271
 Alpha  occ. eigenvalues --  -10.37882 -10.37793 -10.37376 -10.36642 -10.35621
 Alpha  occ. eigenvalues --  -10.34521 -10.34219 -10.34065 -10.33676 -10.33201
 Alpha  occ. eigenvalues --  -10.33161 -10.33007 -10.32836 -10.30867 -10.30701
 Alpha  occ. eigenvalues --  -10.30159 -10.28315 -10.27807  -1.18811  -1.15593
 Alpha  occ. eigenvalues --   -1.12836  -1.12294  -1.10874  -1.10344  -1.10128
 Alpha  occ. eigenvalues --   -1.08750  -1.08114  -1.05715  -1.05097  -1.01797
 Alpha  occ. eigenvalues --   -1.01383  -1.00616  -0.99099  -0.98206  -0.97667
 Alpha  occ. eigenvalues --   -0.96604  -0.96364  -0.92767  -0.90578  -0.88165
 Alpha  occ. eigenvalues --   -0.86310  -0.83868  -0.83530  -0.83054  -0.82312
 Alpha  occ. eigenvalues --   -0.81852  -0.78349  -0.77658  -0.75554  -0.74324
 Alpha  occ. eigenvalues --   -0.73124  -0.72857  -0.72726  -0.71111  -0.70871
 Alpha  occ. eigenvalues --   -0.67601  -0.66864  -0.66258  -0.65971  -0.64897
 Alpha  occ. eigenvalues --   -0.64084  -0.63395  -0.62729  -0.62367  -0.61276
 Alpha  occ. eigenvalues --   -0.61098  -0.60801  -0.60247  -0.59876  -0.59245
 Alpha  occ. eigenvalues --   -0.59025  -0.57734  -0.56767  -0.56358  -0.55823
 Alpha  occ. eigenvalues --   -0.55660  -0.55625  -0.55576  -0.54942  -0.54175
 Alpha  occ. eigenvalues --   -0.53854  -0.53535  -0.53261  -0.53181  -0.52677
 Alpha  occ. eigenvalues --   -0.52612  -0.51890  -0.51345  -0.50510  -0.50336
 Alpha  occ. eigenvalues --   -0.49886  -0.49815  -0.49672  -0.48909  -0.48806
 Alpha  occ. eigenvalues --   -0.48466  -0.47891  -0.47783  -0.47427  -0.46946
 Alpha  occ. eigenvalues --   -0.46630  -0.45725  -0.45388  -0.44282  -0.43396
 Alpha  occ. eigenvalues --   -0.41384  -0.41070  -0.38884  -0.38316  -0.38172
 Alpha  occ. eigenvalues --   -0.37296  -0.36988  -0.36505  -0.35610  -0.35223
 Alpha  occ. eigenvalues --   -0.34919  -0.33768  -0.33323  -0.33117  -0.32617
 Alpha  occ. eigenvalues --   -0.32297  -0.32250  -0.31615  -0.31428  -0.30782
 Alpha  occ. eigenvalues --   -0.30542  -0.30170  -0.26092  -0.24838
 Alpha virt. eigenvalues --    0.03156   0.03831   0.06322   0.07955   0.09117
 Alpha virt. eigenvalues --    0.09580   0.10005   0.10297   0.11128   0.11301
 Alpha virt. eigenvalues --    0.13192   0.14253   0.14626   0.14990   0.15369

 Mulliken charges:
               1
     1  N   -0.314462
     2  C    0.184408
     3  C    0.056112
     4  N   -0.263072
     5  C    0.142142
     6  H    0.027117
     7  N   -0.288693
     8  C    0.123311
     9  H    0.017698
    10  N   -0.271638
    11  C    0.264886
    12  C    0.089557
    13  N   -0.071811
    14  H    0.107921
    15  H    0.081599
    16  H    0.020196
    17  H    0.034601
    18  H    0.031840
    19  N   -0.309912
    20  C    0.241116
    21  C    0.180684
    22  N   -0.103144
    23  H    0.110669
    24  H    0.113056
    25  N   -0.308105
    26  C    0.225708
    27  N   -0.124955
    28  H    0.111737
    29  C    0.172126
    30  O   -0.321731
    31  C   -0.003047
    32  N   -0.226566
    33  C    0.125546
    34  H    0.021411
    35  H    0.027038
    36  H    0.028642
    37  H    0.024241
    38  H    0.049927
    39  H    0.059014
    40  H    0.074771
    41  H    0.029637
    42  C   -0.113955
    43  O   -0.257936
    44  C    0.176181
    45  H    0.136473
    46  N   -0.129433
    47  O   -0.344204
    48  C    0.355191
    49  H    0.042788
    50  C    0.160936
    51  C    0.042841
    52  N   -0.285371
    53  H    0.035542
    54  H    0.035624
    55  H    0.032557
    56  H    0.118196
    57  H    0.121905
    58  N   -0.060531
    59  C    0.065904
    60  C    0.252935
    61  N   -0.287967
    62  H    0.023105
    63  C    0.197612
    64  N   -0.308084
    65  H    0.040390
    66  C    0.142442
    67  N   -0.259594
    68  C    0.030190
    69  C    0.181288
    70  N   -0.314600
 Sum of Mulliken charges =  -0.00000

 Dipole moment (field-independent basis, Debye):
    X=             -9.4438    Y=              5.0325    Z=             -1.8402  Tot=             10.8580
 Quadrupole moment (field-independent basis, Debye-Ang):
   XX=           -174.3147   YY=           -208.3830   ZZ=           -252.7462
   XY=              8.7074   XZ=            -16.7180   YZ=              6.9776

 Normal termination of Gaussian 16 at Sat Jan 27 03:03:12 2018.
