 Gaussian 16, Revision A.03,
 Gaussian 16:  EM64L-G16RevA.03 25-Dec-2016

 ---------------------------------------
 #p wb97xd/cc-pvdz sp scf=(maxcycles=20)
 ---------------------------------------

 ------------------
 Base pair stacking
 ------------------
 Symbolic Z-matrix:
 Charge =  0 Multiplicity = 1

                         Standard orientation:
 ---------------------------------------------------------------------
 Center     Atomic      Atomic             Coordinates (Angstroms)
 Number     Number       Type             X           Y           Z
 ---------------------------------------------------------------------
      1          7           0       -6.523947   -1.644265    0.490333
      2          6           0       -7.931658   -1.201577    0.470386
      3          6           0       -4.336952   -1.702425    0.716059
      4          7           0       -4.716144   -2.964835    0.283337
      5          6           0       -6.018557   -2.879271    0.164656
      6          1           0       -6.666443   -3.694163   -0.159598
      7          7           0       -3.053578    0.143190    1.429950
      8          6           0       -4.205903    0.816497    1.509791
      9          1           0       -4.118211    1.850842    1.839497
     10          7           0       -5.444471    0.405876    1.244753
     11          6           0       -5.440416   -0.877550    0.848234
     12          6           0       -3.083019   -1.146199    1.027850
     13          7           0       -1.933789   -1.819986    0.947514
     14          1           0       -1.908245   -2.776398    0.654530
     15          1           0       -1.059634   -1.391968    1.177319
     16          1           0       -8.469766   -1.768866    1.093923
     17          1           0       -7.985587   -0.246356    0.759834
     18          1           0       -8.297477   -1.288478   -0.456230
     19          7           0       -2.109356    3.381499   -1.874594
     20          6           0       -0.880609    2.789337   -1.708538
     21          6           0       -2.366344    4.835514   -1.851908
     22          7           0        2.538832    3.058194   -1.163678
     23          1           0        3.321147    2.443284   -1.068219
     24          1           0        2.721506    4.039173   -1.092845
     25          7           0        0.289014    3.431118   -1.498436
     26          6           0        1.300079    2.589306   -1.377101
     27          7           0        1.177243    1.223180   -1.455232
     28          1           0        2.005100    0.656910   -1.350570
     29          6           0       -0.016236    0.541259   -1.670788
     30          8           0       -0.018175   -0.694806   -1.724452
     31          6           0       -1.111412    1.432292   -1.803118
     32          7           0       -2.457964    1.177620   -2.024098
     33          6           0       -3.009344    2.360398   -2.059028
     34          1           0       -4.072407    2.545539   -2.216820
     35          1           0       -3.007230    5.050962   -1.115942
     36          1           0       -1.507134    5.321315   -1.696946
     37          1           0       -2.755996    5.120505   -2.726986
     38          1           0        6.380764   -1.615795   -0.109145
     39          1           0        6.539809   -1.799733   -1.854289
     40          1           0        5.695454   -0.401152   -1.189134
     41          1           0        3.426686   -5.334954   -0.875889
     42          6           0        3.434864   -4.250849   -0.989408
     43          8           0        1.080905   -4.073128   -1.222661
     44          6           0        2.197207   -3.556975   -1.175332
     45          1           0        1.466937   -1.663768   -1.441422
     46          7           0        2.319934   -2.188579   -1.308371
     47          8           0        3.487429   -0.243228   -1.407004
     48          6           0        3.479522   -1.455034   -1.280004
     49          1           0        5.549930   -4.043206   -0.818530
     50          6           0        4.582209   -3.562978   -0.957338
     51          6           0        5.894884   -1.454558   -1.059935
     52          7           0        4.630906   -2.195330   -1.097051
     53          1           0        3.515724    4.018846    3.552658
     54          1           0        2.359795    4.112013    2.404932
     55          1           0        3.934398    4.213725    1.987363
     56          1           0        1.589131   -2.795874    1.336023
     57          1           0        3.177620   -2.393664    1.810425
     58          7           0        2.247462   -2.090810    1.599899
     59          6           0        1.901408   -0.803670    1.668326
     60          6           0        2.282550    1.512249    2.059469
     61          7           0        1.026115    1.889975    1.771188
     62          1           0       -0.752250    1.052019    1.191646
     63          6           0        0.285211    0.833945    1.441404
     64          7           0        0.629971   -0.455995    1.372282
     65          1           0        5.377499    1.855484    2.928744
     66          6           0        4.401940    1.477900    2.621080
     67          7           0        4.129783    0.216715    2.390821
     68          6           0        2.789170    0.224534    2.033844
     69          6           0        3.281014    3.782567    2.609743
     70          7           0        3.329984    2.317401    2.439748
 ---------------------------------------------------------------------

 SCF Done:  E(RwB97XD) =  -2048.74149158     A.U. after   15 cycles

 The electronic state is 1-A.
 Alpha  occ. eigenvalues --  -19.26300 -19.22786 -19.20850 -14.52970 -14.51608
 Alpha  occ. eigenvalues --  -14.48959 -14.48310 -14.48204 -14.47348 -14.47269
 Alpha  occ. eigenvalues --  -14.47206 -14.44662 -14.43265 -14.43253 -14.42313
 Alpha  occ. eigenvalues --  -14.41622 -14.40967 -14.40964 -14.40356 -14.39621
 Alpha  occ. eigenvalues --  -10.45921 -10.41576 -10.40774 -10.38990 -10.38461
 Alpha  occ. eigenvalues --  -10.38450 -10.37217 -10.36235 -10.35497 -10.34867
 Alpha  occ. eigenvalues --  -10.34677 -10.34577 -10.33636 -10.33405 -10.33250
 Alpha  occ. eigenvalues --  -10.32863 -10.32558 -10.31789 -10.31735 -10.31088
 Alpha  occ. eigenvalues --  -10.30574 -10.28335 -10.28024  -1.19880  -1.14323
 Alpha  occ. eigenvalues --   -1.13742  -1.13472  -1.10877  -1.10787  -1.09854
 Alpha  occ. eigenvalues --   -1.08885  -1.08345  -1.04440  -1.03944  -1.02966
 Alpha  occ. eigenvalues --   -1.00219  -1.00126  -0.99881  -0.98785  -0.96772
 Alpha  occ. eigenvalues --   -0.96506  -0.95841  -0.92084  -0.91643  -0.86749
 Alpha  occ. eigenvalues --   -0.85129  -0.84339  -0.84029  -0.83472  -0.82712
 Alpha  occ. eigenvalues --   -0.81862  -0.79435  -0.76174  -0.74879  -0.74022
 Alpha  occ. eigenvalues --   -0.73855  -0.73828  -0.72401  -0.70544  -0.69585
 Alpha  occ. eigenvalues --   -0.67720  -0.67025  -0.65955  -0.65804  -0.64873
 Alpha  occ. eigenvalues --   -0.64083  -0.63441  -0.62971  -0.62186  -0.62097
 Alpha  occ. eigenvalues --   -0.60136  -0.59990  -0.59821  -0.59729  -0.59023
 Alpha  occ. eigenvalues --   -0.58814  -0.58700  -0.56836  -0.56353  -0.56078
 Alpha  occ. eigenvalues --   -0.55964  -0.54920  -0.54860  -0.54735  -0.54388
 Alpha  occ. eigenvalues --   -0.53967  -0.53797  -0.53244  -0.52923  -0.52806
 Alpha  occ. eigenvalues --   -0.52723  -0.51962  -0.51324  -0.50469  -0.50238
 Alpha  occ. eigenvalues --   -0.49877  -0.49723  -0.49273  -0.49092  -0.48871
 Alpha  occ. eigenvalues --   -0.48528  -0.48418  -0.48282  -0.47958  -0.47680
 Alpha  occ. eigenvalues --   -0.46463  -0.45745  -0.44626  -0.44561  -0.43783
 Alpha  occ. eigenvalues --   -0.40610  -0.39854  -0.39766  -0.37652  -0.37506
 Alpha  occ. eigenvalues --   -0.37359  -0.36667  -0.36601  -0.35818  -0.34479
 Alpha  occ. eigenvalues --   -0.33902  -0.33843  -0.33340  -0.33082  -0.32948
 Alpha  occ. eigenvalues --   -0.32768  -0.32646  -0.32531  -0.32000  -0.30394
 Alpha  occ. eigenvalues --   -0.29871  -0.29128  -0.25759  -0.25193
 Alpha virt. eigenvalues --    0.02365   0.04869   0.07640   0.08209   0.08522
 Alpha virt. eigenvalues --    0.09113   0.09417   0.11253   0.11634   0.11770
 Alpha virt. eigenvalues --    0.12375   0.14211   0.14300   0.14829   0.15088

 Mulliken charges:
               1
     1  N   -0.311358
     2  C    0.181313
     3  C    0.033387
     4  N   -0.258165
     5  C    0.132792
     6  H    0.024831
     7  N   -0.296741
     8  C    0.139447
     9  H    0.007425
    10  N   -0.292573
    11  C    0.245313
    12  C    0.125626
    13  N   -0.054294
    14  H    0.112100
    15  H    0.090049
    16  H    0.024112
    17  H    0.033940
    18  H    0.025399
    19  N   -0.312518
    20  C    0.248389
    21  C    0.181522
    22  N   -0.121784
    23  H    0.116107
    24  H    0.116137
    25  N   -0.304241
    26  C    0.237428
    27  N   -0.134085
    28  H    0.112801
    29  C    0.164497
    30  O   -0.317283
    31  C    0.002356
    32  N   -0.222105
    33  C    0.129101
    34  H    0.029498
    35  H    0.028948
    36  H    0.028091
    37  H    0.025288
    38  H    0.064180
    39  H    0.059523
    40  H    0.076825
    41  H    0.033700
    42  C   -0.106356
    43  O   -0.264015
    44  C    0.140787
    45  H    0.134874
    46  N   -0.117375
    47  O   -0.345160
    48  C    0.348945
    49  H    0.050568
    50  C    0.162728
    51  C    0.043381
    52  N   -0.289863
    53  H    0.032279
    54  H    0.045594
    55  H    0.018991
    56  H    0.130013
    57  H    0.112539
    58  N   -0.070322
    59  C    0.087391
    60  C    0.235184
    61  N   -0.260400
    62  H    0.047577
    63  C    0.162802
    64  N   -0.302076
    65  H    0.032076
    66  C    0.132753
    67  N   -0.269119
    68  C    0.033353
    69  C    0.179238
    70  N   -0.311366
 Sum of Mulliken charges =  -0.00000

 Dipole moment (field-independent basis, Debye):
    X=              9.7717    Y=              4.7158    Z=              1.1381  Tot=             10.9096
 Quadrupole moment (field-independent basis, Debye-Ang):
   XX=           -159.4731   YY=           -208.4490   ZZ=           -249.6754
   XY=             -6.1611   XZ=              6.2800   YZ=             -4.8155

 Normal termination of Gaussian 16 at Thu Feb  1 14:05:50 2018.
