 Gaussian 16, Revision A.03,
 Gaussian 16:  EM64L-G16RevA.03 25-Dec-2016

 ---------------------------------------
 #p wb97xd/cc-pvdz sp scf=(maxcycles=20)
 ---------------------------------------

 ------------------
 Base pair stacking
 ------------------
 Symbolic Z-matrix:
 Charge =  0 Multiplicity = 1

                         Standard orientation:
 ---------------------------------------------------------------------
 Center     Atomic      Atomic             Coordinates (Angstroms)
 Number     Number       Type             X           Y           Z
 ---------------------------------------------------------------------
      1          7           0        4.995052   -2.196269   -1.572000
      2          6           0        6.396362   -1.842759   -1.870920
      3          6           0        2.806858   -2.136230   -1.358606
      4          7           0        3.208725   -3.378018   -0.888295
      5          6           0        4.510947   -3.364490   -1.035677
      6          1           0        5.173877   -4.187510   -0.767148
      7          7           0        1.489608   -0.281993   -1.982787
      8          6           0        2.631212    0.308269   -2.351436
      9          1           0        2.525168    1.313855   -2.756178
     10          7           0        3.878285   -0.154960   -2.295450
     11          6           0        3.896877   -1.396701   -1.783429
     12          6           0        1.541837   -1.531295   -1.471300
     13          7           0        0.403340   -2.122176   -1.102727
     14          1           0        0.394667   -3.046324   -0.719207
     15          1           0       -0.479249   -1.661494   -1.197341
     16          1           0        6.772645   -2.494269   -2.529798
     17          1           0        6.433479   -0.921273   -2.256432
     18          1           0        6.936472   -1.872378   -1.029850
     19          7           0        3.840939    3.503666    1.064263
     20          6           0        2.578802    2.977720    1.200049
     21          6           0        4.152473    4.931310    0.851032
     22          7           0       -0.865031    3.412810    1.311570
     23          1           0       -1.677112    2.842296    1.431074
     24          1           0       -1.014451    4.393588    1.183202
     25          7           0        1.420492    3.671183    1.161786
     26          6           0        0.369273    2.887202    1.322782
     27          7           0        0.444486    1.527854    1.507268
     28          1           0       -0.411848    1.007769    1.622005
     29          6           0        1.625451    0.793441    1.550061
     30          8           0        1.583225   -0.431092    1.721736
     31          6           0        2.763387    1.622040    1.378563
     32          7           0        4.114226    1.303301    1.355328
     33          6           0        4.713380    2.447740    1.166967
     34          1           0        5.793634    2.578671    1.094958
     35          1           0        4.641553    5.041954   -0.013473
     36          1           0        3.302085    5.454950    0.820928
     37          1           0        4.722081    5.265535    1.601132
     38          1           0       -5.044161   -1.084151    1.487024
     39          1           0       -4.857749   -1.106854    3.238993
     40          1           0       -4.102800    0.173510    2.289207
     41          1           0       -2.164489   -4.901606    2.017213
     42          6           0       -2.101560   -3.813386    2.024609
     43          8           0        0.256845   -3.764380    1.774308
     44          6           0       -0.822184   -3.185157    1.896626
     45          1           0        0.029976   -1.325658    1.830047
     46          7           0       -0.854810   -1.805393    1.917973
     47          8           0       -1.891183    0.210670    2.054365
     48          6           0       -1.962748   -1.005666    2.046219
     49          1           0       -4.196521   -3.488851    2.251724
     50          6           0       -3.200285   -3.060161    2.151278
     51          6           0       -4.370690   -0.872502    2.304161
     52          7           0       -3.159156   -1.685215    2.164720
     53          1           0       -5.193278    3.801319   -3.143782
     54          1           0       -3.827570    3.920172   -2.259025
     55          1           0       -5.280220    4.156097   -1.553188
     56          1           0       -3.165674   -2.904785   -0.697846
     57          1           0       -4.797578   -2.445971   -0.888843
     58          7           0       -3.831590   -2.185116   -0.894784
     59          6           0       -3.449486   -0.932915   -1.153925
     60          6           0       -3.798116    1.360087   -1.685272
     61          7           0       -2.493867    1.681599   -1.686440
     62          1           0       -0.674398    0.786648   -1.387810
     63          6           0       -1.749516    0.613449   -1.407368
     64          7           0       -2.130329   -0.641557   -1.147535
     65          1           0       -6.986189    1.820848   -1.961049
     66          6           0       -5.986488    1.410648   -1.815189
     67          7           0       -5.729944    0.159374   -1.521645
     68          6           0       -4.345974    0.113711   -1.436417
     69          6           0       -4.784852    3.632796   -2.246679
     70          7           0       -4.863740    2.193683   -1.929329
 ---------------------------------------------------------------------

 SCF Done:  E(RwB97XD) =  -2048.74296768     A.U. after   15 cycles

 The electronic state is 1-A.
 Alpha  occ. eigenvalues --  -19.25718 -19.22094 -19.20639 -14.52459 -14.52312
 Alpha  occ. eigenvalues --  -14.48944 -14.48676 -14.47771 -14.47759 -14.46988
 Alpha  occ. eigenvalues --  -14.46757 -14.45311 -14.44537 -14.44374 -14.42131
 Alpha  occ. eigenvalues --  -14.41942 -14.41000 -14.40350 -14.40143 -14.39715
 Alpha  occ. eigenvalues --  -10.45426 -10.41346 -10.40205 -10.40126 -10.38292
 Alpha  occ. eigenvalues --  -10.38158 -10.37891 -10.37167 -10.35776 -10.35094
 Alpha  occ. eigenvalues --  -10.34863 -10.34477 -10.33728 -10.33440 -10.33107
 Alpha  occ. eigenvalues --  -10.32707 -10.32472 -10.32367 -10.31445 -10.31103
 Alpha  occ. eigenvalues --  -10.30016 -10.28222 -10.27678  -1.19333  -1.15089
 Alpha  occ. eigenvalues --   -1.13281  -1.13093  -1.10705  -1.10369  -1.09544
 Alpha  occ. eigenvalues --   -1.09297  -1.08640  -1.05016  -1.04382  -1.02448
 Alpha  occ. eigenvalues --   -1.00907  -0.99842  -0.99827  -0.98646  -0.96992
 Alpha  occ. eigenvalues --   -0.96732  -0.96044  -0.92076  -0.91310  -0.87578
 Alpha  occ. eigenvalues --   -0.85799  -0.84249  -0.83596  -0.83043  -0.82651
 Alpha  occ. eigenvalues --   -0.81449  -0.79016  -0.77088  -0.74870  -0.74734
 Alpha  occ. eigenvalues --   -0.73734  -0.73372  -0.72207  -0.70516  -0.70262
 Alpha  occ. eigenvalues --   -0.67481  -0.66950  -0.66594  -0.65614  -0.64578
 Alpha  occ. eigenvalues --   -0.64318  -0.63884  -0.62740  -0.62034  -0.61854
 Alpha  occ. eigenvalues --   -0.60641  -0.60209  -0.59905  -0.59649  -0.59379
 Alpha  occ. eigenvalues --   -0.59206  -0.58452  -0.56769  -0.55989  -0.55931
 Alpha  occ. eigenvalues --   -0.55387  -0.55216  -0.54926  -0.54526  -0.54271
 Alpha  occ. eigenvalues --   -0.53774  -0.53726  -0.53496  -0.53191  -0.53064
 Alpha  occ. eigenvalues --   -0.52767  -0.52441  -0.50944  -0.50292  -0.49968
 Alpha  occ. eigenvalues --   -0.49803  -0.49570  -0.49403  -0.49221  -0.48897
 Alpha  occ. eigenvalues --   -0.48440  -0.48271  -0.48120  -0.47841  -0.47374
 Alpha  occ. eigenvalues --   -0.46161  -0.45710  -0.45295  -0.44204  -0.43972
 Alpha  occ. eigenvalues --   -0.40635  -0.40440  -0.39360  -0.37766  -0.37563
 Alpha  occ. eigenvalues --   -0.37379  -0.37373  -0.36277  -0.35797  -0.34842
 Alpha  occ. eigenvalues --   -0.34438  -0.34044  -0.33252  -0.32759  -0.32728
 Alpha  occ. eigenvalues --   -0.32666  -0.32539  -0.32193  -0.31947  -0.30252
 Alpha  occ. eigenvalues --   -0.30108  -0.29709  -0.25602  -0.25105
 Alpha virt. eigenvalues --    0.02462   0.04283   0.06875   0.08483   0.08790
 Alpha virt. eigenvalues --    0.09197   0.09695   0.10668   0.11069   0.11754
 Alpha virt. eigenvalues --    0.13260   0.14445   0.14490   0.14770   0.15245

 Mulliken charges:
               1
     1  N   -0.313140
     2  C    0.182784
     3  C    0.049192
     4  N   -0.253430
     5  C    0.138292
     6  H    0.024681
     7  N   -0.302646
     8  C    0.138236
     9  H    0.008534
    10  N   -0.286964
    11  C    0.259493
    12  C    0.108004
    13  N   -0.069547
    14  H    0.112444
    15  H    0.081309
    16  H    0.021213
    17  H    0.032815
    18  H    0.028207
    19  N   -0.311667
    20  C    0.248985
    21  C    0.180788
    22  N   -0.119201
    23  H    0.115286
    24  H    0.116618
    25  N   -0.311562
    26  C    0.247449
    27  N   -0.151342
    28  H    0.120726
    29  C    0.198658
    30  O   -0.321137
    31  C   -0.015026
    32  N   -0.226768
    33  C    0.128424
    34  H    0.024405
    35  H    0.027996
    36  H    0.029166
    37  H    0.025154
    38  H    0.050258
    39  H    0.060887
    40  H    0.076064
    41  H    0.031827
    42  C   -0.114966
    43  O   -0.256716
    44  C    0.165989
    45  H    0.134032
    46  N   -0.123661
    47  O   -0.348325
    48  C    0.349040
    49  H    0.044286
    50  C    0.151228
    51  C    0.041996
    52  N   -0.277098
    53  H    0.034209
    54  H    0.042296
    55  H    0.028348
    56  H    0.115670
    57  H    0.117166
    58  N   -0.062999
    59  C    0.095948
    60  C    0.248249
    61  N   -0.272176
    62  H    0.038537
    63  C    0.176163
    64  N   -0.318578
    65  H    0.038181
    66  C    0.141203
    67  N   -0.266703
    68  C    0.027078
    69  C    0.179324
    70  N   -0.313185
 Sum of Mulliken charges =  -0.00000

 Dipole moment (field-independent basis, Debye):
    X=             -9.4625    Y=              5.4268    Z=              0.1035  Tot=             10.9087
 Quadrupole moment (field-independent basis, Debye-Ang):
   XX=           -172.7717   YY=           -206.6248   ZZ=           -248.5184
   XY=              7.3317   XZ=            -11.6357   YZ=             -0.7395

 Normal termination of Gaussian 16 at Sat Jan 27 02:39:11 2018.
