 Gaussian 16, Revision A.03,
 Gaussian 16:  EM64L-G16RevA.03 25-Dec-2016

 ---------------------------------------
 #p wb97xd/cc-pvdz sp scf=(maxcycles=20)
 ---------------------------------------

 ------------------
 Base pair stacking
 ------------------
 Symbolic Z-matrix:
 Charge =  0 Multiplicity = 1

                         Standard orientation:
 ---------------------------------------------------------------------
 Center     Atomic      Atomic             Coordinates (Angstroms)
 Number     Number       Type             X           Y           Z
 ---------------------------------------------------------------------
      1          7           0       -6.756160   -1.616552    0.329126
      2          6           0       -8.159939   -1.171192    0.233956
      3          6           0       -4.577690   -1.666861    0.627547
      4          7           0       -4.950481   -2.954874    0.271503
      5          6           0       -6.248011   -2.873014    0.105964
      6          1           0       -6.890143   -3.706090   -0.181424
      7          7           0       -3.306602    0.219170    1.252175
      8          6           0       -4.456926    0.900599    1.248631
      9          1           0       -4.373583    1.955002    1.508503
     10          7           0       -5.688944    0.477073    0.973549
     11          6           0       -5.679922   -0.830789    0.667214
     12          6           0       -3.330930   -1.094903    0.939630
     13          7           0       -2.183693   -1.776818    0.942621
     14          1           0       -2.154560   -2.751347    0.717556
     15          1           0       -1.314705   -1.337061    1.169818
     16          1           0       -8.720643   -1.691863    0.877929
     17          1           0       -8.217348   -0.197994    0.454684
     18          1           0       -8.497021   -1.320880   -0.695543
     19          7           0       -1.859690    3.278482   -1.900408
     20          6           0       -0.632845    2.698040   -1.685935
     21          6           0       -2.132307    4.729710   -1.882661
     22          7           0        2.758192    2.999015   -0.998887
     23          1           0        3.542152    2.391625   -0.873531
     24          1           0        2.927698    3.981476   -0.916685
     25          7           0        0.520438    3.350669   -1.425049
     26          6           0        1.534207    2.518585   -1.265272
     27          7           0        1.428739    1.151644   -1.353798
     28          1           0        2.257330    0.593303   -1.217171
     29          6           0        0.252264    0.458653   -1.621278
     30          8           0        0.265235   -0.777126   -1.679837
     31          6           0       -0.845600    1.339155   -1.795335
     32          7           0       -2.179173    1.071863   -2.072894
     33          6           0       -2.740750    2.249161   -2.125968
     34          1           0       -3.798213    2.424244   -2.326916
     35          1           0       -2.805277    4.935463   -1.173022
     36          1           0       -1.285279    5.223479   -1.690329
     37          1           0       -2.488332    5.014563   -2.771994
     38          1           0        6.600988   -1.640496    0.195425
     39          1           0        6.833973   -1.815208   -1.542342
     40          1           0        5.948515   -0.428145   -0.907225
     41          1           0        3.719504   -5.385909   -0.707629
     42          6           0        3.721236   -4.301294   -0.816435
     43          8           0        1.377241   -4.146331   -1.146276
     44          6           0        2.485273   -3.619147   -1.050727
     45          1           0        1.747239   -1.732258   -1.339375
     46          7           0        2.599339   -2.249020   -1.173183
     47          8           0        3.749888   -0.291569   -1.215717
     48          6           0        3.749168   -1.503928   -1.093926
     49          1           0        5.825179   -4.073049   -0.557303
     50          6           0        4.859151   -3.602029   -0.734180
     51          6           0        6.153229   -1.480031   -0.774019
     52          7           0        4.899547   -2.233353   -0.866366
     53          1           0        3.215374    4.208898    3.308440
     54          1           0        2.096575    4.226379    2.120967
     55          1           0        3.684063    4.293124    1.747465
     56          1           0        1.319556   -2.736200    1.509255
     57          1           0        2.894695   -2.307813    2.004760
     58          7           0        1.973390   -2.016918    1.744391
     59          6           0        1.632864   -0.726883    1.712485
     60          6           0        2.015054    1.609191    1.954150
     61          7           0        0.770492    1.970573    1.600714
     62          1           0       -0.993667    1.100890    1.024537
     63          6           0        0.034159    0.896899    1.321567
     64          7           0        0.373388   -0.395977    1.352924
     65          1           0        5.083161    2.000683    2.895207
     66          6           0        4.115552    1.606207    2.583669
     67          7           0        3.843396    0.333079    2.432823
     68          6           0        2.514706    0.320973    2.033850
     69          6           0        3.008979    3.908583    2.377194
     70          7           0        3.054724    2.434984    2.310739
 ---------------------------------------------------------------------

 SCF Done:  E(RwB97XD) =  -2048.74097828     A.U. after   15 cycles

 The electronic state is 1-A.
 Alpha  occ. eigenvalues --  -19.26212 -19.22617 -19.20852 -14.52883 -14.51443
 Alpha  occ. eigenvalues --  -14.48983 -14.48524 -14.48211 -14.47422 -14.47199
 Alpha  occ. eigenvalues --  -14.47121 -14.44496 -14.43021 -14.42997 -14.42337
 Alpha  occ. eigenvalues --  -14.41845 -14.41201 -14.40983 -14.40576 -14.39817
 Alpha  occ. eigenvalues --  -10.45851 -10.41616 -10.40657 -10.38776 -10.38481
 Alpha  occ. eigenvalues --  -10.38320 -10.37067 -10.36035 -10.35490 -10.35090
 Alpha  occ. eigenvalues --  -10.34595 -10.34424 -10.33862 -10.33439 -10.33179
 Alpha  occ. eigenvalues --  -10.33091 -10.32766 -10.31611 -10.31605 -10.31094
 Alpha  occ. eigenvalues --  -10.30735 -10.28383 -10.28262  -1.19805  -1.14171
 Alpha  occ. eigenvalues --   -1.13597  -1.13496  -1.11101  -1.10813  -1.09763
 Alpha  occ. eigenvalues --   -1.08947  -1.08109  -1.04657  -1.03709  -1.02912
 Alpha  occ. eigenvalues --   -1.00329  -1.00112  -0.99947  -0.98799  -0.96796
 Alpha  occ. eigenvalues --   -0.96715  -0.95630  -0.92299  -0.91531  -0.86591
 Alpha  occ. eigenvalues --   -0.85000  -0.84373  -0.83988  -0.83682  -0.82740
 Alpha  occ. eigenvalues --   -0.82064  -0.79339  -0.75986  -0.74910  -0.74075
 Alpha  occ. eigenvalues --   -0.73772  -0.73650  -0.72617  -0.70760  -0.69392
 Alpha  occ. eigenvalues --   -0.67773  -0.66966  -0.66021  -0.65752  -0.64824
 Alpha  occ. eigenvalues --   -0.64085  -0.63237  -0.62986  -0.62393  -0.62186
 Alpha  occ. eigenvalues --   -0.60023  -0.59959  -0.59922  -0.59531  -0.59013
 Alpha  occ. eigenvalues --   -0.58932  -0.58569  -0.56881  -0.56305  -0.56260
 Alpha  occ. eigenvalues --   -0.56152  -0.55109  -0.54871  -0.54754  -0.54281
 Alpha  occ. eigenvalues --   -0.53967  -0.53744  -0.53247  -0.52779  -0.52745
 Alpha  occ. eigenvalues --   -0.52475  -0.51806  -0.51501  -0.50459  -0.50444
 Alpha  occ. eigenvalues --   -0.49915  -0.49804  -0.49215  -0.49078  -0.48825
 Alpha  occ. eigenvalues --   -0.48560  -0.48478  -0.48292  -0.47892  -0.47680
 Alpha  occ. eigenvalues --   -0.46671  -0.45674  -0.44801  -0.44534  -0.43451
 Alpha  occ. eigenvalues --   -0.40847  -0.39785  -0.39608  -0.37761  -0.37522
 Alpha  occ. eigenvalues --   -0.37149  -0.36885  -0.36437  -0.35667  -0.34670
 Alpha  occ. eigenvalues --   -0.33723  -0.33583  -0.33270  -0.33161  -0.33005
 Alpha  occ. eigenvalues --   -0.32881  -0.32603  -0.32461  -0.32033  -0.30613
 Alpha  occ. eigenvalues --   -0.30057  -0.28924  -0.25755  -0.25457
 Alpha virt. eigenvalues --    0.02536   0.04984   0.07745   0.08210   0.08263
 Alpha virt. eigenvalues --    0.09284   0.09332   0.11193   0.11477   0.11993
 Alpha virt. eigenvalues --    0.12490   0.14140   0.14346   0.14688   0.14999

 Mulliken charges:
               1
     1  N   -0.311160
     2  C    0.181224
     3  C    0.031100
     4  N   -0.258693
     5  C    0.133059
     6  H    0.025590
     7  N   -0.294193
     8  C    0.137368
     9  H    0.007573
    10  N   -0.291408
    11  C    0.244197
    12  C    0.126596
    13  N   -0.055843
    14  H    0.110724
    15  H    0.090366
    16  H    0.024615
    17  H    0.034437
    18  H    0.025722
    19  N   -0.312445
    20  C    0.247780
    21  C    0.181964
    22  N   -0.118875
    23  H    0.116884
    24  H    0.116926
    25  N   -0.297439
    26  C    0.226345
    27  N   -0.125450
    28  H    0.114446
    29  C    0.157152
    30  O   -0.316898
    31  C    0.000731
    32  N   -0.220346
    33  C    0.129310
    34  H    0.030469
    35  H    0.029173
    36  H    0.027725
    37  H    0.025269
    38  H    0.063368
    39  H    0.059622
    40  H    0.076528
    41  H    0.033255
    42  C   -0.109699
    43  O   -0.266521
    44  C    0.153704
    45  H    0.134628
    46  N   -0.124355
    47  O   -0.346064
    48  C    0.353481
    49  H    0.050213
    50  C    0.167711
    51  C    0.043640
    52  N   -0.294505
    53  H    0.032545
    54  H    0.046600
    55  H    0.012929
    56  H    0.129103
    57  H    0.111941
    58  N   -0.068714
    59  C    0.089946
    60  C    0.232203
    61  N   -0.257412
    62  H    0.053494
    63  C    0.153431
    64  N   -0.297671
    65  H    0.030370
    66  C    0.128045
    67  N   -0.267543
    68  C    0.031365
    69  C    0.177117
    70  N   -0.306748
 Sum of Mulliken charges =  -0.00000

 Dipole moment (field-independent basis, Debye):
    X=              9.4820    Y=              4.6761    Z=              1.5811  Tot=             10.6899
 Quadrupole moment (field-independent basis, Debye-Ang):
   XX=           -156.7946   YY=           -209.3899   ZZ=           -250.1251
   XY=             -4.7670   XZ=              8.9045   YZ=             -6.8785

 Normal termination of Gaussian 16 at Fri Jan 26 22:32:02 2018.
