 Gaussian 16, Revision A.03,
 Gaussian 16:  EM64L-G16RevA.03 25-Dec-2016

 ---------------------------------------
 #p wb97xd/cc-pvdz sp scf=(maxcycles=20)
 ---------------------------------------

 ------------------
 Base pair stacking
 ------------------
 Symbolic Z-matrix:
 Charge =  0 Multiplicity = 1

                         Standard orientation:
 ---------------------------------------------------------------------
 Center     Atomic      Atomic             Coordinates (Angstroms)
 Number     Number       Type             X           Y           Z
 ---------------------------------------------------------------------
      1          7           0       -7.161150   -1.634056    0.116181
      2          6           0       -8.544773   -1.205298   -0.166212
      3          6           0       -5.007357   -1.641200    0.561615
      4          7           0       -5.389286   -2.971842    0.470801
      5          6           0       -6.671581   -2.914283    0.206084
      6          1           0       -7.315187   -3.783116    0.065250
      7          7           0       -3.730918    0.322085    0.843051
      8          6           0       -4.861458    0.998506    0.615206
      9          1           0       -4.768183    2.083272    0.644126
     10          7           0       -6.084179    0.538286    0.358214
     11          6           0       -6.088756   -0.804940    0.345351
     12          6           0       -3.768524   -1.028206    0.823290
     13          7           0       -2.641030   -1.705194    1.050498
     14          1           0       -2.622263   -2.705612    1.045507
     15          1           0       -1.777142   -1.235715    1.233360
     16          1           0       -9.157192   -1.566296    0.537221
     17          1           0       -8.591523   -0.206831   -0.167024
     18          1           0       -8.827105   -1.551238   -1.060978
     19          7           0       -1.488885    3.061504   -1.779273
     20          6           0       -0.261640    2.517473   -1.486100
     21          6           0       -1.831771    4.494787   -1.685364
     22          7           0        3.029406    2.904928   -0.446555
     23          1           0        3.826180    2.322577   -0.287651
     24          1           0        3.142569    3.884509   -0.278215
     25          7           0        0.828430    3.195417   -1.066359
     26          6           0        1.861241    2.396062   -0.866495
     27          7           0        1.830930    1.036532   -1.062140
     28          1           0        2.668618    0.504037   -0.884139
     29          6           0        0.720382    0.317921   -1.493593
     30          8           0        0.798611   -0.908310   -1.638411
     31          6           0       -0.397005    1.163145   -1.712515
     32          7           0       -1.683358    0.862960   -2.139244
     33          6           0       -2.293492    2.016799   -2.163781
     34          1           0       -3.334054    2.162910   -2.455606
     35          1           0       -2.578809    4.618471   -1.033103
     36          1           0       -1.031926    5.007047   -1.375349
     37          1           0       -2.114256    4.831161   -2.583061
     38          1           0        6.959734   -1.649538    0.789521
     39          1           0        7.366383   -1.682688   -0.924595
     40          1           0        6.358139   -0.385190   -0.283264
     41          1           0        4.362464   -5.431365   -0.659123
     42          6           0        4.322194   -4.342481   -0.689728
     43          8           0        2.015871   -4.259597   -1.238462
     44          6           0        3.082868   -3.695992   -0.996233
     45          1           0        2.285581   -1.824663   -1.221563
     46          7           0        3.141797   -2.317002   -1.008915
     47          8           0        4.195173   -0.316261   -0.797712
     48          6           0        4.241379   -1.533368   -0.763222
     49          1           0        6.378116   -4.048111   -0.207687
     50          6           0        5.411864   -3.605207   -0.445475
     51          6           0        6.599731   -1.434827   -0.205647
     52          7           0        5.398545   -2.229953   -0.475234
     53          1           0        2.748134    4.594961    2.407230
     54          1           0        1.706036    4.364038    1.173208
     55          1           0        3.314827    4.330337    0.899823
     56          1           0        0.795272   -2.554782    2.042606
     57          1           0        2.346783   -2.045240    2.535844
     58          7           0        1.450950   -1.808537    2.158109
     59          6           0        1.145316   -0.553209    1.823595
     60          6           0        1.569842    1.774862    1.575377
     61          7           0        0.359030    2.063433    1.070310
     62          1           0       -1.387057    1.107680    0.582134
     63          6           0       -0.385072    0.962656    0.983687
     64          7           0       -0.080762   -0.295554    1.318199
     65          1           0        4.582381    2.329931    2.609130
     66          6           0        3.626457    1.887228    2.327773
     67          7           0        3.332561    0.614963    2.440184
     68          6           0        2.031328    0.530065    1.966559
     69          6           0        2.592563    4.100279    1.552194
     70          7           0        2.605612    2.647484    1.811441
 ---------------------------------------------------------------------

 SCF Done:  E(RwB97XD) =  -2048.64533651     A.U. after   15 cycles

 The electronic state is 1-A.
 Alpha  occ. eigenvalues --  -19.26007 -19.22145 -19.20982 -14.52615 -14.51142
 Alpha  occ. eigenvalues --  -14.49141 -14.49015 -14.48078 -14.47079 -14.46958
 Alpha  occ. eigenvalues --  -14.46364 -14.44357 -14.42729 -14.42461 -14.42273
 Alpha  occ. eigenvalues --  -14.42218 -14.41733 -14.41127 -14.41086 -14.40373
 Alpha  occ. eigenvalues --  -10.45654 -10.41371 -10.40270 -10.38617 -10.38549
 Alpha  occ. eigenvalues --  -10.37959 -10.36745 -10.35731 -10.35679 -10.35418
 Alpha  occ. eigenvalues --  -10.34506 -10.34383 -10.34163 -10.33646 -10.33633
 Alpha  occ. eigenvalues --  -10.33452 -10.33324 -10.31268 -10.31264 -10.31189
 Alpha  occ. eigenvalues --  -10.31097 -10.28836 -10.28576  -1.19599  -1.14918
 Alpha  occ. eigenvalues --   -1.13316  -1.13169  -1.11619  -1.10949  -1.09506
 Alpha  occ. eigenvalues --   -1.09256  -1.07973  -1.05228  -1.03557  -1.02702
 Alpha  occ. eigenvalues --   -1.01858  -1.00692  -0.99137  -0.98881  -0.97226
 Alpha  occ. eigenvalues --   -0.96957  -0.95465  -0.92874  -0.91219  -0.87301
 Alpha  occ. eigenvalues --   -0.85501  -0.84452  -0.84181  -0.83832  -0.82874
 Alpha  occ. eigenvalues --   -0.82541  -0.79062  -0.75977  -0.75135  -0.74580
 Alpha  occ. eigenvalues --   -0.73578  -0.73535  -0.73164  -0.71310  -0.69539
 Alpha  occ. eigenvalues --   -0.68038  -0.66795  -0.66562  -0.66002  -0.64812
 Alpha  occ. eigenvalues --   -0.64359  -0.63983  -0.63279  -0.62963  -0.62906
 Alpha  occ. eigenvalues --   -0.60861  -0.60431  -0.59839  -0.59731  -0.59689
 Alpha  occ. eigenvalues --   -0.59032  -0.58554  -0.56843  -0.56684  -0.56573
 Alpha  occ. eigenvalues --   -0.56183  -0.55653  -0.54776  -0.54606  -0.54278
 Alpha  occ. eigenvalues --   -0.53833  -0.53485  -0.53294  -0.52814  -0.52592
 Alpha  occ. eigenvalues --   -0.51982  -0.51902  -0.51328  -0.50951  -0.50460
 Alpha  occ. eigenvalues --   -0.50405  -0.49615  -0.49375  -0.49061  -0.48840
 Alpha  occ. eigenvalues --   -0.48655  -0.48529  -0.48298  -0.47652  -0.47203
 Alpha  occ. eigenvalues --   -0.47119  -0.45465  -0.45344  -0.44163  -0.42757
 Alpha  occ. eigenvalues --   -0.41431  -0.40283  -0.39646  -0.38178  -0.37626
 Alpha  occ. eigenvalues --   -0.37419  -0.36710  -0.36006  -0.35518  -0.35071
 Alpha  occ. eigenvalues --   -0.33805  -0.33733  -0.33371  -0.33160  -0.32968
 Alpha  occ. eigenvalues --   -0.32276  -0.32132  -0.31999  -0.31784  -0.31163
 Alpha  occ. eigenvalues --   -0.30576  -0.28097  -0.26060  -0.25486
 Alpha virt. eigenvalues --    0.02955   0.05083   0.06909   0.07715   0.08283
 Alpha virt. eigenvalues --    0.08842   0.10418   0.10695   0.10912   0.12558
 Alpha virt. eigenvalues --    0.13609   0.13734   0.14198   0.14258   0.14908

 Mulliken charges:
               1
     1  N   -0.311045
     2  C    0.181100
     3  C    0.028593
     4  N   -0.259945
     5  C    0.134467
     6  H    0.027445
     7  N   -0.290287
     8  C    0.134946
     9  H    0.006488
    10  N   -0.288398
    11  C    0.244619
    12  C    0.123855
    13  N   -0.058974
    14  H    0.107515
    15  H    0.088587
    16  H    0.025548
    17  H    0.035479
    18  H    0.026836
    19  N   -0.307994
    20  C    0.252913
    21  C    0.183657
    22  N   -0.078194
    23  H    0.110178
    24  H    0.113485
    25  N   -0.242561
    26  C    0.117742
    27  N   -0.091472
    28  H    0.121131
    29  C    0.159763
    30  O   -0.317467
    31  C   -0.020569
    32  N   -0.212454
    33  C    0.126228
    34  H    0.030862
    35  H    0.029851
    36  H    0.026024
    37  H    0.025486
    38  H    0.061132
    39  H    0.059986
    40  H    0.075674
    41  H    0.032767
    42  C   -0.112038
    43  O   -0.264523
    44  C    0.176419
    45  H    0.134469
    46  N   -0.141198
    47  O   -0.347087
    48  C    0.361221
    49  H    0.048590
    50  C    0.170353
    51  C    0.043043
    52  N   -0.299090
    53  H    0.021265
    54  H    0.046102
    55  H   -0.015244
    56  H    0.121594
    57  H    0.113162
    58  N   -0.068854
    59  C    0.097648
    60  C    0.200692
    61  N   -0.252705
    62  H    0.046907
    63  C    0.161290
    64  N   -0.296387
    65  H    0.025596
    66  C    0.099871
    67  N   -0.255339
    68  C    0.045561
    69  C    0.209055
    70  N   -0.283368
 Sum of Mulliken charges =  -0.00000

 Dipole moment (field-independent basis, Debye):
    X=              8.3501    Y=              4.6982    Z=              2.9865  Tot=             10.0358
 Quadrupole moment (field-independent basis, Debye-Ang):
   XX=           -152.4045   YY=           -212.2630   ZZ=           -252.5816
   XY=             -1.3461   XZ=             13.2449   YZ=            -11.7990

 Normal termination of Gaussian 16 at Fri Jan 26 23:38:58 2018.
