 Gaussian 16, Revision A.03,
 Gaussian 16:  EM64L-G16RevA.03 25-Dec-2016

 ---------------------------------------
 #p wb97xd/cc-pvdz sp scf=(maxcycles=20)
 ---------------------------------------

 ------------------
 Base pair stacking
 ------------------
 Symbolic Z-matrix:
 Charge =  0 Multiplicity = 1

                         Standard orientation:
 ---------------------------------------------------------------------
 Center     Atomic      Atomic             Coordinates (Angstroms)
 Number     Number       Type             X           Y           Z
 ---------------------------------------------------------------------
      1          7           0       -6.228930   -1.694731    0.746373
      2          6           0       -7.633541   -1.243369    0.709579
      3          6           0       -4.038814   -1.751267    0.940042
      4          7           0       -4.434566   -3.044462    0.630572
      5          6           0       -5.738190   -2.958633    0.526281
      6          1           0       -6.397475   -3.793944    0.288485
      7          7           0       -2.729962    0.140342    1.461245
      8          6           0       -3.875843    0.828207    1.498542
      9          1           0       -3.774974    1.887458    1.731080
     10          7           0       -5.121756    0.406032    1.292695
     11          6           0       -5.133836   -0.908143    1.014811
     12          6           0       -2.775686   -1.179992    1.178908
     13          7           0       -1.632902   -1.868335    1.141221
     14          1           0       -1.619362   -2.847636    0.936269
     15          1           0       -0.751837   -1.428858    1.316469
     16          1           0       -8.164815   -1.746804    1.391106
     17          1           0       -7.675541   -0.265330    0.911600
     18          1           0       -8.016018   -1.411043   -0.199036
     19          7           0       -2.491422    3.363138   -1.732503
     20          6           0       -1.253182    2.783193   -1.596520
     21          6           0       -2.773049    4.808980   -1.627983
     22          7           0        2.160023    3.077967   -1.026542
     23          1           0        2.952420    2.471838   -0.963737
     24          1           0        2.325896    4.056258   -0.899470
     25          7           0       -0.095061    3.431524   -1.346602
     26          6           0        0.929854    2.601257   -1.270155
     27          7           0        0.830336    1.239919   -1.426211
     28          1           0        1.667439    0.682588   -1.351319
     29          6           0       -0.350943    0.551427   -1.683933
     30          8           0       -0.331830   -0.679432   -1.807790
     31          6           0       -1.460773    1.430040   -1.768821
     32          7           0       -2.802333    1.165787   -2.008158
     33          6           0       -3.373585    2.339216   -1.977513
     34          1           0       -4.439284    2.515164   -2.127856
     35          1           0       -3.419095    4.971415   -0.882978
     36          1           0       -1.922521    5.299536   -1.442964
     37          1           0       -3.165564    5.136718   -2.486659
     38          1           0        6.078257   -1.583298   -0.227403
     39          1           0        6.244189   -1.664947   -1.979677
     40          1           0        5.374831   -0.320848   -1.238735
     41          1           0        3.189277   -5.301867   -1.213624
     42          6           0        3.179331   -4.213075   -1.265295
     43          8           0        0.823215   -4.061915   -1.495445
     44          6           0        1.930510   -3.530616   -1.415349
     45          1           0        1.168867   -1.637862   -1.575657
     46          7           0        2.030322   -2.155005   -1.469984
     47          8           0        3.164920   -0.187869   -1.454196
     48          6           0        3.177263   -1.404899   -1.396319
     49          1           0        5.290198   -3.980017   -1.076260
     50          6           0        4.314797   -3.508988   -1.190572
     51          6           0        5.591782   -1.376412   -1.169007
     52          7           0        4.340623   -2.134973   -1.252139
     53          1           0        3.903001    4.135395    3.112197
     54          1           0        2.728025    4.133832    1.980149
     55          1           0        4.295821    4.183312    1.528901
     56          1           0        1.889098   -2.835648    1.558400
     57          1           0        3.488443   -2.405878    1.967661
     58          7           0        2.556987   -2.115296    1.745910
     59          6           0        2.221463   -0.824286    1.702470
     60          6           0        2.626034    1.514189    1.874462
     61          7           0        1.367536    1.875110    1.573892
     62          1           0       -0.426615    1.003504    1.102824
     63          6           0        0.613422    0.799977    1.354123
     64          7           0        0.947612   -0.493877    1.397162
     65          1           0        5.738019    1.907983    2.657204
     66          6           0        4.754561    1.512530    2.401520
     67          7           0        4.469346    0.238055    2.291747
     68          6           0        3.122830    0.225096    1.957909
     69          6           0        3.650262    3.816325    2.198786
     70          7           0        3.685699    2.341402    2.162274
 ---------------------------------------------------------------------

 SCF Done:  E(RwB97XD) =  -2048.74102447     A.U. after   15 cycles

 The electronic state is 1-A.
 Alpha  occ. eigenvalues --  -19.26098 -19.22332 -19.20739 -14.52683 -14.52025
 Alpha  occ. eigenvalues --  -14.48871 -14.48291 -14.48038 -14.47987 -14.47021
 Alpha  occ. eigenvalues --  -14.46896 -14.45030 -14.43709 -14.43529 -14.42168
 Alpha  occ. eigenvalues --  -14.41820 -14.40955 -14.40870 -14.40379 -14.39706
 Alpha  occ. eigenvalues --  -10.45709 -10.41335 -10.40415 -10.39457 -10.38324
 Alpha  occ. eigenvalues --  -10.38157 -10.37561 -10.36610 -10.35255 -10.35110
 Alpha  occ. eigenvalues --  -10.34957 -10.34455 -10.33705 -10.33631 -10.33322
 Alpha  occ. eigenvalues --  -10.32865 -10.32597 -10.32136 -10.31476 -10.31029
 Alpha  occ. eigenvalues --  -10.30549 -10.28207 -10.28042  -1.19661  -1.14720
 Alpha  occ. eigenvalues --   -1.13350  -1.13321  -1.10864  -1.10685  -1.09579
 Alpha  occ. eigenvalues --   -1.08844  -1.08661  -1.04508  -1.04354  -1.02712
 Alpha  occ. eigenvalues --   -1.00572  -0.99966  -0.99954  -0.98660  -0.96673
 Alpha  occ. eigenvalues --   -0.96558  -0.96244  -0.92162  -0.91365  -0.87153
 Alpha  occ. eigenvalues --   -0.85561  -0.84216  -0.83774  -0.83470  -0.82615
 Alpha  occ. eigenvalues --   -0.81871  -0.79161  -0.76588  -0.74750  -0.74296
 Alpha  occ. eigenvalues --   -0.73828  -0.73577  -0.72452  -0.70580  -0.70008
 Alpha  occ. eigenvalues --   -0.67537  -0.66766  -0.66402  -0.65863  -0.64649
 Alpha  occ. eigenvalues --   -0.63928  -0.63881  -0.62844  -0.62257  -0.61916
 Alpha  occ. eigenvalues --   -0.60193  -0.60008  -0.59960  -0.59744  -0.59379
 Alpha  occ. eigenvalues --   -0.59058  -0.58587  -0.56790  -0.56169  -0.56151
 Alpha  occ. eigenvalues --   -0.55934  -0.55121  -0.54934  -0.54702  -0.54558
 Alpha  occ. eigenvalues --   -0.53813  -0.53690  -0.53202  -0.53102  -0.52956
 Alpha  occ. eigenvalues --   -0.52555  -0.52321  -0.51341  -0.50307  -0.50246
 Alpha  occ. eigenvalues --   -0.49767  -0.49628  -0.49323  -0.49011  -0.48869
 Alpha  occ. eigenvalues --   -0.48460  -0.48393  -0.48358  -0.47992  -0.47509
 Alpha  occ. eigenvalues --   -0.46478  -0.45754  -0.44590  -0.44245  -0.44174
 Alpha  occ. eigenvalues --   -0.40651  -0.40173  -0.39629  -0.37681  -0.37371
 Alpha  occ. eigenvalues --   -0.37266  -0.36971  -0.36680  -0.36006  -0.34681
 Alpha  occ. eigenvalues --   -0.33982  -0.33561  -0.33416  -0.33077  -0.32966
 Alpha  occ. eigenvalues --   -0.32702  -0.32470  -0.32282  -0.31904  -0.30389
 Alpha  occ. eigenvalues --   -0.29930  -0.29489  -0.25729  -0.25141
 Alpha virt. eigenvalues --    0.02682   0.04512   0.07668   0.08186   0.08506
 Alpha virt. eigenvalues --    0.09061   0.09513   0.11010   0.11555   0.11606
 Alpha virt. eigenvalues --    0.12171   0.13967   0.14337   0.14802   0.15005

 Mulliken charges:
               1
     1  N   -0.312053
     2  C    0.181528
     3  C    0.036181
     4  N   -0.258866
     5  C    0.133873
     6  H    0.025034
     7  N   -0.296365
     8  C    0.143525
     9  H    0.006354
    10  N   -0.292389
    11  C    0.250089
    12  C    0.124270
    13  N   -0.057371
    14  H    0.110926
    15  H    0.085558
    16  H    0.023741
    17  H    0.033457
    18  H    0.026132
    19  N   -0.313004
    20  C    0.247091
    21  C    0.181373
    22  N   -0.108386
    23  H    0.115773
    24  H    0.114002
    25  N   -0.302273
    26  C    0.226595
    27  N   -0.131586
    28  H    0.113509
    29  C    0.165330
    30  O   -0.317187
    31  C    0.004473
    32  N   -0.223655
    33  C    0.128600
    34  H    0.028067
    35  H    0.028496
    36  H    0.028129
    37  H    0.025039
    38  H    0.062454
    39  H    0.058788
    40  H    0.076363
    41  H    0.032666
    42  C   -0.110604
    43  O   -0.262286
    44  C    0.158687
    45  H    0.134108
    46  N   -0.124754
    47  O   -0.345647
    48  C    0.348546
    49  H    0.048597
    50  C    0.161224
    51  C    0.042574
    52  N   -0.288491
    53  H    0.035071
    54  H    0.044512
    55  H    0.021751
    56  H    0.126224
    57  H    0.114882
    58  N   -0.069932
    59  C    0.083606
    60  C    0.223253
    61  N   -0.258247
    62  H    0.044089
    63  C    0.165517
    64  N   -0.303894
    65  H    0.034292
    66  C    0.134721
    67  N   -0.269523
    68  C    0.045880
    69  C    0.173046
    70  N   -0.311479
 Sum of Mulliken charges =  -0.00000

 Dipole moment (field-independent basis, Debye):
    X=              9.4945    Y=              4.7885    Z=              1.6484  Tot=             10.7607
 Quadrupole moment (field-independent basis, Debye-Ang):
   XX=           -162.0373   YY=           -208.5011   ZZ=           -251.9803
   XY=             -6.5867   XZ=              2.7773   YZ=             -6.2378

 Normal termination of Gaussian 16 at Sat Jan 27 09:20:35 2018.
