 Gaussian 16, Revision A.03,
 Gaussian 16:  EM64L-G16RevA.03 25-Dec-2016

 ---------------------------------------
 #p wb97xd/cc-pvdz sp scf=(maxcycles=20)
 ---------------------------------------

 ------------------
 Base pair stacking
 ------------------
 Symbolic Z-matrix:
 Charge =  0 Multiplicity = 1

                         Standard orientation:
 ---------------------------------------------------------------------
 Center     Atomic      Atomic             Coordinates (Angstroms)
 Number     Number       Type             X           Y           Z
 ---------------------------------------------------------------------
      1          7           0        4.267071   -2.339238   -1.890727
      2          6           0        5.667525   -2.009282   -2.219163
      3          6           0        2.095708   -2.218413   -1.562262
      4          7           0        2.463360   -3.519628   -1.251796
      5          6           0        3.756812   -3.540337   -1.462112
      6          1           0        4.394296   -4.413334   -1.319144
      7          7           0        0.834562   -0.256278   -1.912273
      8          6           0        1.983111    0.326644   -2.270907
      9          1           0        1.903234    1.374494   -2.557072
     10          7           0        3.209742   -0.188051   -2.328856
     11          6           0        3.196801   -1.478989   -1.957696
     12          6           0        0.854842   -1.555960   -1.544168
     13          7           0       -0.290647   -2.139610   -1.185842
     14          1           0       -0.322631   -3.099774   -0.906052
     15          1           0       -1.155406   -1.637297   -1.184852
     16          1           0        5.984159   -2.597262   -2.963609
     17          1           0        5.727686   -1.052660   -2.502661
     18          1           0        6.243648   -2.153610   -1.414653
     19          7           0        4.568765    3.308324    0.672238
     20          6           0        3.296814    2.830111    0.875930
     21          6           0        4.916753    4.715424    0.389976
     22          7           0       -0.124763    3.382822    1.097458
     23          1           0       -0.949247    2.844585    1.270009
     24          1           0       -0.247991    4.362200    0.935143
     25          7           0        2.160336    3.559449    0.852646
     26          6           0        1.091875    2.817547    1.084139
     27          7           0        1.131200    1.464753    1.320572
     28          1           0        0.263917    0.978160    1.487955
     29          6           0        2.289178    0.693957    1.349209
     30          8           0        2.214972   -0.520821    1.571754
     31          6           0        3.445258    1.477126    1.102206
     32          7           0        4.783482    1.113254    1.041786
     33          6           0        5.410766    2.228993    0.785154
     34          1           0        6.491048    2.321223    0.667859
     35          1           0        5.375522    4.775823   -0.495843
     36          1           0        4.082783    5.265292    0.370283
     37          1           0        5.525008    5.059828    1.104279
     38          1           0       -4.433837   -0.963211    1.609742
     39          1           0       -4.181102   -0.923273    3.353071
     40          1           0       -3.423166    0.293173    2.324882
     41          1           0       -1.657773   -4.849992    2.186783
     42          6           0       -1.560312   -3.765007    2.147795
     43          8           0        0.787119   -3.803827    1.808373
     44          6           0       -0.267622   -3.184897    1.947096
     45          1           0        0.639586   -1.358632    1.773738
     46          7           0       -0.255866   -1.805040    1.913781
     47          8           0       -1.222129    0.247975    2.006824
     48          6           0       -1.332285   -0.964713    2.050574
     49          1           0       -3.633730   -3.362738    2.439163
     50          6           0       -2.629061   -2.971487    2.284548
     51          6           0       -3.723146   -0.742031    2.392088
     52          7           0       -2.544094   -1.599174    2.240792
     53          1           0       -5.707365    4.187764   -2.280876
     54          1           0       -4.298754    4.153909   -1.458217
     55          1           0       -5.705804    4.365807   -0.658616
     56          1           0       -3.868536   -2.823242   -0.690271
     57          1           0       -5.485591   -2.282896   -0.747482
     58          7           0       -4.510296   -2.060744   -0.773341
     59          6           0       -4.085454   -0.803238   -0.912476
     60          6           0       -4.356303    1.546563   -1.170930
     61          7           0       -3.040540    1.815264   -1.202413
     62          1           0       -1.250662    0.822523   -1.095617
     63          6           0       -2.332151    0.694510   -1.079963
     64          7           0       -2.755801   -0.565914   -0.940513
     65          1           0       -7.530159    2.158796   -1.233832
     66          6           0       -6.543950    1.696333   -1.184292
     67          7           0       -6.329819    0.411082   -1.043022
     68          6           0       -4.946771    0.302432   -1.033032
     69          6           0       -5.266243    3.904377   -1.429350
     70          7           0       -5.394079    2.442983   -1.268188
 ---------------------------------------------------------------------

 SCF Done:  E(RwB97XD) =  -2048.74324400     A.U. after   15 cycles

 The electronic state is 1-A.
 Alpha  occ. eigenvalues --  -19.25262 -19.21345 -19.20586 -14.52487 -14.51900
 Alpha  occ. eigenvalues --  -14.49130 -14.48946 -14.47925 -14.47144 -14.46801
 Alpha  occ. eigenvalues --  -14.46572 -14.45424 -14.44953 -14.44756 -14.42869
 Alpha  occ. eigenvalues --  -14.42049 -14.41066 -14.40591 -14.40580 -14.40292
 Alpha  occ. eigenvalues --  -10.44869 -10.41218 -10.40497 -10.39435 -10.38216
 Alpha  occ. eigenvalues --  -10.38026 -10.37522 -10.37449 -10.36195 -10.35450
 Alpha  occ. eigenvalues --  -10.34529 -10.34442 -10.33865 -10.33497 -10.33340
 Alpha  occ. eigenvalues --  -10.32971 -10.32805 -10.32768 -10.31112 -10.30829
 Alpha  occ. eigenvalues --  -10.29918 -10.28194 -10.28100  -1.18814  -1.15289
 Alpha  occ. eigenvalues --   -1.13189  -1.12349  -1.10685  -1.10603  -1.09865
 Alpha  occ. eigenvalues --   -1.08781  -1.08526  -1.05384  -1.04945  -1.01820
 Alpha  occ. eigenvalues --   -1.01095  -1.00458  -0.99679  -0.98566  -0.97358
 Alpha  occ. eigenvalues --   -0.96713  -0.96310  -0.92634  -0.90674  -0.87837
 Alpha  occ. eigenvalues --   -0.85986  -0.84223  -0.83307  -0.83058  -0.82619
 Alpha  occ. eigenvalues --   -0.81611  -0.78423  -0.77381  -0.75178  -0.74671
 Alpha  occ. eigenvalues --   -0.73590  -0.72778  -0.72636  -0.70826  -0.70653
 Alpha  occ. eigenvalues --   -0.67366  -0.67232  -0.66089  -0.66007  -0.64598
 Alpha  occ. eigenvalues --   -0.64333  -0.63512  -0.62570  -0.62526  -0.61747
 Alpha  occ. eigenvalues --   -0.60883  -0.60511  -0.59857  -0.59606  -0.59144
 Alpha  occ. eigenvalues --   -0.59090  -0.58285  -0.56767  -0.56338  -0.55646
 Alpha  occ. eigenvalues --   -0.55550  -0.55407  -0.55330  -0.54812  -0.54116
 Alpha  occ. eigenvalues --   -0.53848  -0.53534  -0.53407  -0.53004  -0.52955
 Alpha  occ. eigenvalues --   -0.52628  -0.51937  -0.51115  -0.50299  -0.50178
 Alpha  occ. eigenvalues --   -0.50042  -0.49700  -0.49396  -0.49013  -0.48725
 Alpha  occ. eigenvalues --   -0.48563  -0.48038  -0.47849  -0.47659  -0.47127
 Alpha  occ. eigenvalues --   -0.46460  -0.45600  -0.45380  -0.44625  -0.43486
 Alpha  occ. eigenvalues --   -0.40947  -0.40886  -0.38974  -0.38099  -0.37871
 Alpha  occ. eigenvalues --   -0.37345  -0.37276  -0.36595  -0.35337  -0.35096
 Alpha  occ. eigenvalues --   -0.34781  -0.33997  -0.33125  -0.33018  -0.32878
 Alpha  occ. eigenvalues --   -0.32602  -0.32353  -0.31881  -0.31427  -0.30578
 Alpha  occ. eigenvalues --   -0.30400  -0.30085  -0.25931  -0.25260
 Alpha virt. eigenvalues --    0.03257   0.03857   0.06679   0.08264   0.08970
 Alpha virt. eigenvalues --    0.09304   0.09770   0.10431   0.11168   0.11245
 Alpha virt. eigenvalues --    0.13672   0.14436   0.14663   0.14735   0.15011

 Mulliken charges:
               1
     1  N   -0.313445
     2  C    0.184111
     3  C    0.057499
     4  N   -0.254939
     5  C    0.144050
     6  H    0.027174
     7  N   -0.296033
     8  C    0.130304
     9  H    0.011953
    10  N   -0.278729
    11  C    0.263522
    12  C    0.086451
    13  N   -0.071655
    14  H    0.110981
    15  H    0.083457
    16  H    0.019678
    17  H    0.033968
    18  H    0.032761
    19  N   -0.311430
    20  C    0.248976
    21  C    0.180845
    22  N   -0.121148
    23  H    0.118718
    24  H    0.117081
    25  N   -0.312401
    26  C    0.247327
    27  N   -0.144822
    28  H    0.118898
    29  C    0.188107
    30  O   -0.321282
    31  C   -0.009211
    32  N   -0.230537
    33  C    0.125946
    34  H    0.023534
    35  H    0.027352
    36  H    0.029540
    37  H    0.025162
    38  H    0.050828
    39  H    0.057960
    40  H    0.075122
    41  H    0.029246
    42  C   -0.113276
    43  O   -0.249074
    44  C    0.156565
    45  H    0.137170
    46  N   -0.123437
    47  O   -0.350856
    48  C    0.354304
    49  H    0.041651
    50  C    0.157419
    51  C    0.042102
    52  N   -0.283169
    53  H    0.034365
    54  H    0.040207
    55  H    0.030345
    56  H    0.116795
    57  H    0.121184
    58  N   -0.066781
    59  C    0.080564
    60  C    0.249079
    61  N   -0.276046
    62  H    0.032742
    63  C    0.181459
    64  N   -0.314262
    65  H    0.039531
    66  C    0.143783
    67  N   -0.262005
    68  C    0.027760
    69  C    0.180193
    70  N   -0.313232
 Sum of Mulliken charges =  -0.00000

 Dipole moment (field-independent basis, Debye):
    X=             -9.1175    Y=              5.6016    Z=             -0.1247  Tot=             10.7016
 Quadrupole moment (field-independent basis, Debye-Ang):
   XX=           -178.6556   YY=           -206.2367   ZZ=           -248.5719
   XY=              8.1390   XZ=            -18.1501   YZ=              1.7907

 Normal termination of Gaussian 16 at Sat Jan 27 12:30:26 2018.
