 Gaussian 16, Revision A.03,
 Gaussian 16:  EM64L-G16RevA.03 25-Dec-2016

 ---------------------------------------
 #p wb97xd/cc-pvdz sp scf=(maxcycles=20)
 ---------------------------------------

 ------------------
 Base pair stacking
 ------------------
 Symbolic Z-matrix:
 Charge =  0 Multiplicity = 1

                         Standard orientation:
 ---------------------------------------------------------------------
 Center     Atomic      Atomic             Coordinates (Angstroms)
 Number     Number       Type             X           Y           Z
 ---------------------------------------------------------------------
      1          7           0        4.266494   -2.450189   -1.890150
      2          6           0        5.652380   -2.160970   -2.306880
      3          6           0        2.107538   -2.293179   -1.500822
      4          7           0        2.493691   -3.545917   -1.046659
      5          6           0        3.778926   -3.590368   -1.299392
      6          1           0        4.426219   -4.438283   -1.073587
      7          7           0        0.823182   -0.390696   -2.042977
      8          6           0        1.954760    0.145515   -2.511580
      9          1           0        1.858572    1.150212   -2.920956
     10          7           0        3.181564   -0.370592   -2.550222
     11          6           0        3.189464   -1.606238   -2.023394
     12          6           0        0.864223   -1.635347   -1.519302
     13          7           0       -0.264310   -2.172302   -1.051032
     14          1           0       -0.280644   -3.090922   -0.654674
     15          1           0       -1.131435   -1.674936   -1.080420
     16          1           0        5.945757   -2.835395   -2.984564
     17          1           0        5.696763   -1.246271   -2.707492
     18          1           0        6.257657   -2.204631   -1.512063
     19          7           0        4.558597    3.368930    0.646961
     20          6           0        3.290688    2.899622    0.892329
     21          6           0        4.911677    4.779323    0.388421
     22          7           0       -0.111076    3.484533    1.276537
     23          1           0       -0.934046    2.951048    1.469814
     24          1           0       -0.228934    4.469379    1.146466
     25          7           0        2.163441    3.642100    0.938084
     26          6           0        1.096721    2.906157    1.195217
     27          7           0        1.129288    1.546959    1.392751
     28          1           0        0.263989    1.065715    1.584124
     29          6           0        2.277736    0.762653    1.350268
     30          8           0        2.197991   -0.456934    1.542587
     31          6           0        3.431828    1.539291    1.074976
     32          7           0        4.761589    1.162164    0.946863
     33          6           0        5.391134    2.277453    0.693896
     34          1           0        6.466460    2.360715    0.532588
     35          1           0        5.332738    4.859137   -0.514427
     36          1           0        4.084547    5.338903    0.419805
     37          1           0        5.554251    5.096860    1.084897
     38          1           0       -4.448067   -0.825173    1.855841
     39          1           0       -4.120299   -0.836551    3.587052
     40          1           0       -3.392060    0.399369    2.560631
     41          1           0       -1.698473   -4.757560    2.206112
     42          6           0       -1.589253   -3.673067    2.192562
     43          8           0        0.740783   -3.728923    1.751056
     44          6           0       -0.299236   -3.102237    1.952079
     45          1           0        0.622404   -1.282201    1.789547
     46          7           0       -0.271719   -1.722203    1.955935
     47          8           0       -1.207423    0.338201    2.146621
     48          6           0       -1.330720   -0.873916    2.162001
     49          1           0       -3.643099   -3.255697    2.584141
     50          6           0       -2.641176   -2.871652    2.396976
     51          6           0       -3.701762   -0.633842    2.612479
     52          7           0       -2.541066   -1.499708    2.387040
     53          1           0       -5.753806    3.964872   -2.717237
     54          1           0       -4.316587    4.034304   -1.948011
     55          1           0       -5.695484    4.340652   -1.130160
     56          1           0       -3.818173   -2.795224   -0.346602
     57          1           0       -5.439396   -2.268379   -0.411215
     58          7           0       -4.466970   -2.049647   -0.499298
     59          6           0       -4.054767   -0.818083   -0.806770
     60          6           0       -4.348509    1.481832   -1.341376
     61          7           0       -3.036305    1.746586   -1.453027
     62          1           0       -1.237937    0.777101   -1.290001
     63          6           0       -2.317415    0.650370   -1.219761
     64          7           0       -2.728386   -0.584035   -0.911666
     65          1           0       -7.526146    2.077040   -1.364271
     66          6           0       -6.536087    1.625606   -1.294047
     67          7           0       -6.309486    0.367724   -1.004109
     68          6           0       -4.926340    0.263166   -1.030800
     69          6           0       -5.280944    3.788772   -1.853874
     70          7           0       -5.394354    2.358007   -1.510273
 ---------------------------------------------------------------------

 SCF Done:  E(RwB97XD) =  -2048.73943767     A.U. after   15 cycles

 The electronic state is 1-A.
 Alpha  occ. eigenvalues --  -19.25426 -19.21586 -19.20697 -14.52349 -14.52090
 Alpha  occ. eigenvalues --  -14.49051 -14.49003 -14.47734 -14.47311 -14.46963
 Alpha  occ. eigenvalues --  -14.46771 -14.45306 -14.44824 -14.44557 -14.42569
 Alpha  occ. eigenvalues --  -14.42178 -14.41161 -14.40401 -14.40306 -14.40075
 Alpha  occ. eigenvalues --  -10.45049 -10.41378 -10.40355 -10.39641 -10.38339
 Alpha  occ. eigenvalues --  -10.37912 -10.37767 -10.37291 -10.36007 -10.35218
 Alpha  occ. eigenvalues --  -10.34699 -10.34565 -10.33722 -10.33589 -10.33099
 Alpha  occ. eigenvalues --  -10.32838 -10.32604 -10.32587 -10.31189 -10.31070
 Alpha  occ. eigenvalues --  -10.29827 -10.28316 -10.27868  -1.18983  -1.15153
 Alpha  occ. eigenvalues --   -1.13324  -1.12593  -1.10795  -1.10400  -1.09722
 Alpha  occ. eigenvalues --   -1.08971  -1.08674  -1.05231  -1.04727  -1.02009
 Alpha  occ. eigenvalues --   -1.00966  -1.00231  -0.99857  -0.98698  -0.97203
 Alpha  occ. eigenvalues --   -0.96826  -0.96097  -0.92425  -0.90906  -0.87693
 Alpha  occ. eigenvalues --   -0.85846  -0.84340  -0.83226  -0.83114  -0.82726
 Alpha  occ. eigenvalues --   -0.81453  -0.78636  -0.77245  -0.75025  -0.74799
 Alpha  occ. eigenvalues --   -0.73752  -0.72973  -0.72428  -0.70674  -0.70461
 Alpha  occ. eigenvalues --   -0.67516  -0.67101  -0.66246  -0.65841  -0.64492
 Alpha  occ. eigenvalues --   -0.64441  -0.63684  -0.62709  -0.62331  -0.61901
 Alpha  occ. eigenvalues --   -0.60769  -0.60355  -0.59724  -0.59442  -0.59332
 Alpha  occ. eigenvalues --   -0.59148  -0.58467  -0.56854  -0.56151  -0.55789
 Alpha  occ. eigenvalues --   -0.55395  -0.55272  -0.55181  -0.54659  -0.54258
 Alpha  occ. eigenvalues --   -0.53737  -0.53621  -0.53563  -0.53091  -0.52862
 Alpha  occ. eigenvalues --   -0.52767  -0.52105  -0.50952  -0.50311  -0.50092
 Alpha  occ. eigenvalues --   -0.49910  -0.49572  -0.49396  -0.49101  -0.48831
 Alpha  occ. eigenvalues --   -0.48393  -0.48198  -0.47971  -0.47743  -0.47265
 Alpha  occ. eigenvalues --   -0.46273  -0.45655  -0.45291  -0.44526  -0.43682
 Alpha  occ. eigenvalues --   -0.40750  -0.40706  -0.39125  -0.37969  -0.37725
 Alpha  occ. eigenvalues --   -0.37471  -0.37400  -0.36398  -0.35460  -0.34989
 Alpha  occ. eigenvalues --   -0.34594  -0.34149  -0.33015  -0.32892  -0.32809
 Alpha  occ. eigenvalues --   -0.32705  -0.32488  -0.31998  -0.31644  -0.30436
 Alpha  occ. eigenvalues --   -0.30221  -0.29871  -0.25838  -0.25246
 Alpha virt. eigenvalues --    0.02997   0.04002   0.06842   0.08464   0.08808
 Alpha virt. eigenvalues --    0.09191   0.09652   0.10551   0.11134   0.11476
 Alpha virt. eigenvalues --    0.13771   0.14339   0.14540   0.14848   0.15216

 Mulliken charges:
               1
     1  N   -0.313236
     2  C    0.183574
     3  C    0.054906
     4  N   -0.249132
     5  C    0.142461
     6  H    0.026181
     7  N   -0.299691
     8  C    0.133763
     9  H    0.010383
    10  N   -0.282315
    11  C    0.262041
    12  C    0.090286
    13  N   -0.070141
    14  H    0.111186
    15  H    0.082900
    16  H    0.019806
    17  H    0.033329
    18  H    0.031791
    19  N   -0.311343
    20  C    0.249088
    21  C    0.180816
    22  N   -0.122889
    23  H    0.118486
    24  H    0.117876
    25  N   -0.312258
    26  C    0.249505
    27  N   -0.150168
    28  H    0.120859
    29  C    0.195368
    30  O   -0.321097
    31  C   -0.013788
    32  N   -0.229848
    33  C    0.126320
    34  H    0.024270
    35  H    0.027616
    36  H    0.029702
    37  H    0.025443
    38  H    0.050227
    39  H    0.058450
    40  H    0.075026
    41  H    0.029969
    42  C   -0.110848
    43  O   -0.243306
    44  C    0.143993
    45  H    0.137177
    46  N   -0.119825
    47  O   -0.352180
    48  C    0.353893
    49  H    0.041970
    50  C    0.154193
    51  C    0.042606
    52  N   -0.282366
    53  H    0.033935
    54  H    0.041867
    55  H    0.029630
    56  H    0.115948
    57  H    0.120643
    58  N   -0.069740
    59  C    0.091738
    60  C    0.249430
    61  N   -0.273481
    62  H    0.036547
    63  C    0.179581
    64  N   -0.318299
    65  H    0.038980
    66  C    0.143636
    67  N   -0.263128
    68  C    0.024734
    69  C    0.179879
    70  N   -0.312932
 Sum of Mulliken charges =  -0.00000

 Dipole moment (field-independent basis, Debye):
    X=             -8.9933    Y=              5.7928    Z=              0.6094  Tot=             10.7149
 Quadrupole moment (field-independent basis, Debye-Ang):
   XX=           -179.0927   YY=           -206.0836   ZZ=           -246.3669
   XY=              7.2723   XZ=            -17.3648   YZ=             -1.1544

 Normal termination of Gaussian 16 at Sat Jan 27 04:09:55 2018.
