 Gaussian 16, Revision A.03,
 Gaussian 16:  EM64L-G16RevA.03 25-Dec-2016

 ---------------------------------------
 #p wb97xd/cc-pvdz sp scf=(maxcycles=20)
 ---------------------------------------

 ------------------
 Base pair stacking
 ------------------
 Symbolic Z-matrix:
 Charge =  0 Multiplicity = 1

                         Standard orientation:
 ---------------------------------------------------------------------
 Center     Atomic      Atomic             Coordinates (Angstroms)
 Number     Number       Type             X           Y           Z
 ---------------------------------------------------------------------
      1          7           0        5.873744   -1.740011   -1.014907
      2          6           0        7.275318   -1.294862   -0.890666
      3          6           0        3.683647   -1.772735   -1.214196
      4          7           0        4.088890   -3.098728   -1.166929
      5          6           0        5.392128   -3.025943   -1.048756
      6          1           0        6.057605   -3.887075   -0.981406
      7          7           0        2.360781    0.175226   -1.349914
      8          6           0        3.501859    0.865026   -1.251317
      9          1           0        3.393261    1.948593   -1.269669
     10          7           0        4.751071    0.419360   -1.134030
     11          6           0        4.772731   -0.923698   -1.121579
     12          6           0        2.416129   -1.174503   -1.334348
     13          7           0        1.278158   -1.864818   -1.432642
     14          1           0        1.271744   -2.865379   -1.425430
     15          1           0        0.393732   -1.405643   -1.516813
     16          1           0        7.808532   -1.649759   -1.658726
     17          1           0        7.310203   -0.295916   -0.895275
     18          1           0        7.660914   -1.636204   -0.033471
     19          7           0        2.943420    3.263735    1.488083
     20          6           0        1.694781    2.703043    1.367380
     21          6           0        3.267616    4.684826    1.251229
     22          7           0       -1.689175    3.021519    0.653796
     23          1           0       -2.495428    2.431352    0.623817
     24          1           0       -1.824131    3.986012    0.425203
     25          7           0        0.563356    3.350907    1.014958
     26          6           0       -0.480886    2.542018    0.985508
     27          7           0       -0.423615    1.200956    1.278426
     28          1           0       -1.272817    0.659210    1.230072
     29          6           0        0.729586    0.513364    1.643371
     30          8           0        0.672932   -0.698249    1.887309
     31          6           0        1.859722    1.369157    1.679368
     32          7           0        3.185253    1.097889    1.989698
     33          6           0        3.789028    2.248391    1.863162
     34          1           0        4.853787    2.412782    2.032056
     35          1           0        3.941308    4.756763    0.516540
     36          1           0        2.437154    5.174812    0.989510
     37          1           0        3.641332    5.086855    2.086400
     38          1           0       -5.705745   -1.600694    0.183792
     39          1           0       -5.929684   -1.503576    1.928812
     40          1           0       -5.000743   -0.261144    1.089303
     41          1           0       -2.952348   -5.270978    1.631003
     42          6           0       -2.914330   -4.183006    1.575329
     43          8           0       -0.563504   -4.066311    1.870523
     44          6           0       -1.652757   -3.519189    1.700283
     45          1           0       -0.845209   -1.638710    1.699256
     46          7           0       -1.716659   -2.142963    1.615491
     47          8           0       -2.796029   -0.160484    1.366635
     48          6           0       -2.839751   -1.376582    1.428707
     49          1           0       -5.010930   -3.919287    1.291586
     50          6           0       -4.027174   -3.462783    1.392428
     51          6           0       -5.244112   -1.312881    1.116601
     52          7           0       -4.017419   -2.089237    1.317236
     53          1           0       -4.302879    4.370561   -2.172789
     54          1           0       -3.125445    4.153505   -1.064345
     55          1           0       -4.692560    4.101582   -0.610987
     56          1           0       -2.238066   -2.755571   -2.030125
     57          1           0       -3.841191   -2.264732   -2.345025
     58          7           0       -2.911251   -2.017135   -2.070922
     59          6           0       -2.584460   -0.757860   -1.773242
     60          6           0       -3.005356    1.565495   -1.478979
     61          7           0       -1.748692    1.868793   -1.113955
     62          1           0        0.052393    0.934027   -0.826010
     63          6           0       -0.986782    0.776825   -1.111785
     64          7           0       -1.312227   -0.485298   -1.409621
     65          1           0       -6.121650    2.084156   -2.165899
     66          6           0       -5.134963    1.652960   -1.994259
     67          7           0       -4.840825    0.384007   -2.138984
     68          6           0       -3.493527    0.314870   -1.815353
     69          6           0       -4.045968    3.878954   -1.340733
     70          7           0       -4.071268    2.425725   -1.596645
 ---------------------------------------------------------------------

 SCF Done:  E(RwB97XD) =  -2048.67126977     A.U. after   15 cycles

 The electronic state is 1-A.
 Alpha  occ. eigenvalues --  -19.25756 -19.21781 -19.20558 -14.52723 -14.52319
 Alpha  occ. eigenvalues --  -14.48694 -14.48394 -14.48238 -14.47702 -14.46741
 Alpha  occ. eigenvalues --  -14.45785 -14.45479 -14.43928 -14.43135 -14.42278
 Alpha  occ. eigenvalues --  -14.41881 -14.41105 -14.40656 -14.40515 -14.39950
 Alpha  occ. eigenvalues --  -10.45368 -10.40558 -10.39920 -10.39607 -10.38086
 Alpha  occ. eigenvalues --  -10.37992 -10.37738 -10.36972 -10.35239 -10.35088
 Alpha  occ. eigenvalues --  -10.34956 -10.34753 -10.34195 -10.33778 -10.33154
 Alpha  occ. eigenvalues --  -10.33003 -10.32757 -10.32437 -10.31069 -10.30914
 Alpha  occ. eigenvalues --  -10.30595 -10.28220 -10.27947  -1.19345  -1.15355
 Alpha  occ. eigenvalues --   -1.13255  -1.12821  -1.10988  -1.10529  -1.09378
 Alpha  occ. eigenvalues --   -1.09188  -1.08464  -1.04870  -1.04725  -1.02320
 Alpha  occ. eigenvalues --   -1.01200  -1.00241  -0.99907  -0.98502  -0.96741
 Alpha  occ. eigenvalues --   -0.96572  -0.96406  -0.92414  -0.90966  -0.87736
 Alpha  occ. eigenvalues --   -0.86323  -0.84030  -0.83596  -0.83443  -0.82467
 Alpha  occ. eigenvalues --   -0.82003  -0.78783  -0.77041  -0.75242  -0.74499
 Alpha  occ. eigenvalues --   -0.73494  -0.73198  -0.72672  -0.70781  -0.70567
 Alpha  occ. eigenvalues --   -0.67444  -0.66927  -0.66432  -0.66088  -0.64530
 Alpha  occ. eigenvalues --   -0.64322  -0.63678  -0.62911  -0.62503  -0.61796
 Alpha  occ. eigenvalues --   -0.60886  -0.60355  -0.60288  -0.59556  -0.59451
 Alpha  occ. eigenvalues --   -0.59411  -0.58620  -0.57029  -0.56275  -0.56047
 Alpha  occ. eigenvalues --   -0.55988  -0.55864  -0.55291  -0.55081  -0.54382
 Alpha  occ. eigenvalues --   -0.54113  -0.53549  -0.53211  -0.53061  -0.52873
 Alpha  occ. eigenvalues --   -0.52563  -0.52205  -0.51449  -0.50466  -0.50080
 Alpha  occ. eigenvalues --   -0.49925  -0.49582  -0.49403  -0.49132  -0.48714
 Alpha  occ. eigenvalues --   -0.48648  -0.48168  -0.47878  -0.47771  -0.47253
 Alpha  occ. eigenvalues --   -0.46576  -0.46136  -0.44774  -0.44143  -0.43773
 Alpha  occ. eigenvalues --   -0.41435  -0.40849  -0.39388  -0.38176  -0.37883
 Alpha  occ. eigenvalues --   -0.37151  -0.36869  -0.36761  -0.35672  -0.35084
 Alpha  occ. eigenvalues --   -0.34369  -0.33395  -0.33256  -0.32969  -0.32533
 Alpha  occ. eigenvalues --   -0.32282  -0.31840  -0.31726  -0.30552  -0.30395
 Alpha  occ. eigenvalues --   -0.30016  -0.29087  -0.25624  -0.24316
 Alpha virt. eigenvalues --    0.03115   0.04360   0.07000   0.08280   0.08442
 Alpha virt. eigenvalues --    0.09325   0.09658   0.10923   0.11474   0.11548
 Alpha virt. eigenvalues --    0.12135   0.13908   0.14506   0.14650   0.14956

 Mulliken charges:
               1
     1  N   -0.313049
     2  C    0.182093
     3  C    0.038263
     4  N   -0.261249
     5  C    0.135534
     6  H    0.025683
     7  N   -0.294082
     8  C    0.150727
     9  H    0.006366
    10  N   -0.288232
    11  C    0.255868
    12  C    0.120127
    13  N   -0.063133
    14  H    0.107192
    15  H    0.082586
    16  H    0.023305
    17  H    0.033007
    18  H    0.027668
    19  N   -0.309321
    20  C    0.239071
    21  C    0.181477
    22  N   -0.049338
    23  H    0.110852
    24  H    0.109672
    25  N   -0.298678
    26  C    0.204059
    27  N   -0.139593
    28  H    0.127121
    29  C    0.169981
    30  O   -0.320274
    31  C    0.007073
    32  N   -0.220729
    33  C    0.124600
    34  H    0.024508
    35  H    0.027655
    36  H    0.027709
    37  H    0.024618
    38  H    0.058164
    39  H    0.058954
    40  H    0.076732
    41  H    0.031558
    42  C   -0.112597
    43  O   -0.260593
    44  C    0.175703
    45  H    0.132926
    46  N   -0.128471
    47  O   -0.345842
    48  C    0.347590
    49  H    0.046226
    50  C    0.164128
    51  C    0.042109
    52  N   -0.289191
    53  H    0.040899
    54  H    0.022587
    55  H    0.034258
    56  H    0.118150
    57  H    0.115409
    58  N   -0.068598
    59  C    0.081990
    60  C    0.239659
    61  N   -0.307160
    62  H    0.039843
    63  C    0.167805
    64  N   -0.300435
    65  H    0.036798
    66  C    0.135647
    67  N   -0.264778
    68  C    0.045000
    69  C    0.173355
    70  N   -0.316958
 Sum of Mulliken charges =  -0.00000

 Dipole moment (field-independent basis, Debye):
    X=             -9.1495    Y=              4.9304    Z=             -2.6902  Tot=             10.7359
 Quadrupole moment (field-independent basis, Debye-Ang):
   XX=           -163.8786   YY=           -209.5334   ZZ=           -255.6763
   XY=              6.4033   XZ=             -2.1743   YZ=              9.1930

 Normal termination of Gaussian 16 at Sat Jan 27 00:23:31 2018.
