 Gaussian 16, Revision A.03,
 Gaussian 16:  EM64L-G16RevA.03 25-Dec-2016

 ---------------------------------------
 #p wb97xd/cc-pvdz sp scf=(maxcycles=20)
 ---------------------------------------

 ------------------
 Base pair stacking
 ------------------
 Symbolic Z-matrix:
 Charge =  0 Multiplicity = 1

                         Standard orientation:
 ---------------------------------------------------------------------
 Center     Atomic      Atomic             Coordinates (Angstroms)
 Number     Number       Type             X           Y           Z
 ---------------------------------------------------------------------
      1          7           0       -5.007876   -2.241355    1.549312
      2          6           0       -6.405106   -1.908638    1.888471
      3          6           0       -2.822560   -2.166650    1.312363
      4          7           0       -3.230916   -3.375356    0.767376
      5          6           0       -4.531139   -3.371982    0.931945
      6          1           0       -5.197786   -4.176056    0.618890
      7          7           0       -1.496675   -0.356430    2.039057
      8          6           0       -2.633240    0.208110    2.459891
      9          1           0       -2.521617    1.185262    2.927849
     10          7           0       -3.881110   -0.251008    2.389791
     11          6           0       -3.906754   -1.456792    1.798312
     12          6           0       -1.555952   -1.569797    1.448039
     13          7           0       -0.422497   -2.134953    1.027287
     14          1           0       -0.419101   -3.032183    0.584340
     15          1           0        0.461417   -1.681044    1.140412
     16          1           0       -6.773230   -2.601817    2.508293
     17          1           0       -6.436921   -1.014222    2.333593
     18          1           0       -6.955926   -1.883674    1.054223
     19          7           0       -3.820762    3.552832   -1.046809
     20          6           0       -2.560801    3.027093   -1.202189
     21          6           0       -4.130034    4.982138   -0.841525
     22          7           0        0.879573    3.465195   -1.385606
     23          1           0        1.689934    2.894503   -1.515434
     24          1           0        1.030115    4.447364   -1.269843
     25          7           0       -1.402934    3.722294   -1.193503
     26          6           0       -0.353988    2.938015   -1.367416
     27          7           0       -0.430920    1.576829   -1.537034
     28          1           0        0.423720    1.056671   -1.663453
     29          6           0       -1.611467    0.840625   -1.549407
     30          8           0       -1.570915   -0.385493   -1.709847
     31          6           0       -2.746974    1.669500   -1.363731
     32          7           0       -4.096646    1.349393   -1.310840
     33          6           0       -4.693576    2.494912   -1.121989
     34          1           0       -5.772385    2.625245   -1.030055
     35          1           0       -4.602202    5.100699    0.031289
     36          1           0       -3.279953    5.507071   -0.833275
     37          1           0       -4.714722    5.308284   -1.583532
     38          1           0        5.060708   -1.028271   -1.598965
     39          1           0        4.839970   -1.068438   -3.346627
     40          1           0        4.102027    0.220306   -2.394809
     41          1           0        2.176491   -4.854203   -2.034989
     42          6           0        2.111906   -3.766194   -2.051833
     43          8           0       -0.241193   -3.717541   -1.755734
     44          6           0        0.834432   -3.138259   -1.904905
     45          1           0       -0.018850   -1.279219   -1.839858
     46          7           0        0.864702   -1.758740   -1.940438
     47          8           0        1.895397    0.257128   -2.116947
     48          6           0        1.968804   -0.958983   -2.098269
     49          1           0        4.201560   -3.441395   -2.323230
     50          6           0        3.206893   -3.012929   -2.207444
     51          6           0        4.371022   -0.825479   -2.404752
     52          7           0        3.163596   -1.638228   -2.233564
     53          1           0        5.202179    3.645426    3.378008
     54          1           0        3.825335    3.821058    2.520369
     55          1           0        5.268954    4.103040    1.812907
     56          1           0        3.140730   -2.888070    0.526790
     57          1           0        4.775131   -2.441984    0.726401
     58          7           0        3.809404   -2.182469    0.761637
     59          6           0        3.431159   -0.949947    1.106603
     60          6           0        3.787497    1.303741    1.781609
     61          7           0        2.483506    1.623960    1.820345
     62          1           0        0.659998    0.749583    1.487337
     63          6           0        1.735202    0.575926    1.481857
     64          7           0        2.112151   -0.659343    1.136034
     65          1           0        6.979014    1.746904    2.046075
     66          6           0        5.977369    1.346650    1.886598
     67          7           0        5.716583    0.117036    1.515506
     68          6           0        4.331618    0.076435    1.445171
     69          6           0        4.782255    3.535500    2.477129
     70          7           0        4.856493    2.120119    2.065787
 ---------------------------------------------------------------------

 SCF Done:  E(RwB97XD) =  -2048.74154480     A.U. after   15 cycles

 The electronic state is 1-A.
 Alpha  occ. eigenvalues --  -19.25858 -19.22291 -19.20708 -14.52600 -14.52222
 Alpha  occ. eigenvalues --  -14.48998 -14.48567 -14.47933 -14.47668 -14.47076
 Alpha  occ. eigenvalues --  -14.46869 -14.45234 -14.44448 -14.44261 -14.42208
 Alpha  occ. eigenvalues --  -14.41711 -14.41051 -14.40233 -14.40043 -14.39591
 Alpha  occ. eigenvalues --  -10.45570 -10.41433 -10.40403 -10.40031 -10.38359
 Alpha  occ. eigenvalues --  -10.38339 -10.37812 -10.37072 -10.35671 -10.35212
 Alpha  occ. eigenvalues --  -10.34720 -10.34538 -10.33632 -10.33491 -10.33000
 Alpha  occ. eigenvalues --  -10.32617 -10.32370 -10.32266 -10.31612 -10.31144
 Alpha  occ. eigenvalues --  -10.29961 -10.28285 -10.27561  -1.19475  -1.15001
 Alpha  occ. eigenvalues --   -1.13359  -1.13296  -1.10766  -1.10270  -1.09598
 Alpha  occ. eigenvalues --   -1.09309  -1.08724  -1.04924  -1.04255  -1.02613
 Alpha  occ. eigenvalues --   -1.00822  -0.99932  -0.99691  -0.98719  -0.96899
 Alpha  occ. eigenvalues --   -0.96790  -0.95934  -0.91947  -0.91487  -0.87488
 Alpha  occ. eigenvalues --   -0.85707  -0.84312  -0.83731  -0.82948  -0.82707
 Alpha  occ. eigenvalues --   -0.81358  -0.79178  -0.77004  -0.74819  -0.74761
 Alpha  occ. eigenvalues --   -0.73826  -0.73529  -0.72089  -0.70431  -0.70152
 Alpha  occ. eigenvalues --   -0.67569  -0.66872  -0.66741  -0.65494  -0.64689
 Alpha  occ. eigenvalues --   -0.64246  -0.63980  -0.62823  -0.61940  -0.61907
 Alpha  occ. eigenvalues --   -0.60595  -0.60135  -0.59927  -0.59770  -0.59353
 Alpha  occ. eigenvalues --   -0.59098  -0.58552  -0.56817  -0.56093  -0.55831
 Alpha  occ. eigenvalues --   -0.55318  -0.55120  -0.54854  -0.54600  -0.54226
 Alpha  occ. eigenvalues --   -0.53853  -0.53746  -0.53463  -0.53288  -0.53147
 Alpha  occ. eigenvalues --   -0.52683  -0.52571  -0.50858  -0.50366  -0.49888
 Alpha  occ. eigenvalues --   -0.49721  -0.49647  -0.49380  -0.49160  -0.48987
 Alpha  occ. eigenvalues --   -0.48544  -0.48313  -0.48063  -0.47905  -0.47462
 Alpha  occ. eigenvalues --   -0.46063  -0.45754  -0.45284  -0.44160  -0.44016
 Alpha  occ. eigenvalues --   -0.40537  -0.40317  -0.39481  -0.37671  -0.37482
 Alpha  occ. eigenvalues --   -0.37455  -0.37436  -0.36193  -0.35935  -0.34759
 Alpha  occ. eigenvalues --   -0.34341  -0.34131  -0.33416  -0.32834  -0.32689
 Alpha  occ. eigenvalues --   -0.32611  -0.32491  -0.32345  -0.32008  -0.30155
 Alpha  occ. eigenvalues --   -0.30007  -0.29599  -0.25673  -0.24975
 Alpha virt. eigenvalues --    0.02283   0.04339   0.06992   0.08341   0.08864
 Alpha virt. eigenvalues --    0.09146   0.09622   0.10750   0.11027   0.11876
 Alpha virt. eigenvalues --    0.13386   0.14387   0.14536   0.14765   0.15342

 Mulliken charges:
               1
     1  N   -0.313008
     2  C    0.182615
     3  C    0.048424
     4  N   -0.251825
     5  C    0.137704
     6  H    0.024187
     7  N   -0.303403
     8  C    0.138129
     9  H    0.008138
    10  N   -0.288148
    11  C    0.258373
    12  C    0.108244
    13  N   -0.069570
    14  H    0.112498
    15  H    0.081636
    16  H    0.021191
    17  H    0.032693
    18  H    0.027712
    19  N   -0.311587
    20  C    0.249059
    21  C    0.180795
    22  N   -0.121438
    23  H    0.115813
    24  H    0.117279
    25  N   -0.311644
    26  C    0.248851
    27  N   -0.152681
    28  H    0.120917
    29  C    0.200415
    30  O   -0.320749
    31  C   -0.015476
    32  N   -0.226530
    33  C    0.128268
    34  H    0.024838
    35  H    0.028088
    36  H    0.029235
    37  H    0.025305
    38  H    0.050804
    39  H    0.061059
    40  H    0.076468
    41  H    0.032638
    42  C   -0.114788
    43  O   -0.257468
    44  C    0.166311
    45  H    0.134089
    46  N   -0.122323
    47  O   -0.348140
    48  C    0.348812
    49  H    0.045050
    50  C    0.148128
    51  C    0.042068
    52  N   -0.275045
    53  H    0.033836
    54  H    0.042992
    55  H    0.028082
    56  H    0.114586
    57  H    0.116461
    58  N   -0.063178
    59  C    0.099574
    60  C    0.248221
    61  N   -0.271842
    62  H    0.039067
    63  C    0.177022
    64  N   -0.320583
    65  H    0.037777
    66  C    0.141105
    67  N   -0.267428
    68  C    0.025742
    69  C    0.179480
    70  N   -0.312925
 Sum of Mulliken charges =  -0.00000

 Dipole moment (field-independent basis, Debye):
    X=              9.4948    Y=              5.4977    Z=             -0.4782  Tot=             10.9820
 Quadrupole moment (field-independent basis, Debye-Ang):
   XX=           -173.0324   YY=           -206.7243   ZZ=           -247.1757
   XY=             -7.2203   XZ=            -11.3778   YZ=              2.3315

 Normal termination of Gaussian 16 at Sat Jan 27 06:52:34 2018.
