 Gaussian 16, Revision A.03,
 Gaussian 16:  EM64L-G16RevA.03 25-Dec-2016

 ---------------------------------------
 #p wb97xd/cc-pvdz sp scf=(maxcycles=20)
 ---------------------------------------

 ------------------
 Base pair stacking
 ------------------
 Symbolic Z-matrix:
 Charge =  0 Multiplicity = 1

                         Standard orientation:
 ---------------------------------------------------------------------
 Center     Atomic      Atomic             Coordinates (Angstroms)
 Number     Number       Type             X           Y           Z
 ---------------------------------------------------------------------
      1          7           0        4.270283   -2.291118   -1.881023
      2          6           0        5.676948   -1.946358   -2.164616
      3          6           0        2.093558   -2.183816   -1.584953
      4          7           0        2.453459   -3.501846   -1.344178
      5          6           0        3.750449   -3.513749   -1.532183
      6          1           0        4.383834   -4.395276   -1.428869
      7          7           0        0.842086   -0.201303   -1.842731
      8          6           0        1.997843    0.398424   -2.146259
      9          1           0        1.924840    1.461351   -2.372360
     10          7           0        3.224489   -0.115304   -2.212096
     11          6           0        3.202779   -1.425580   -1.916960
     12          6           0        0.853628   -1.520235   -1.550555
     13          7           0       -0.299053   -2.120672   -1.247318
     14          1           0       -0.337632   -3.095389   -1.024469
     15          1           0       -1.162890   -1.616972   -1.232571
     16          1           0        6.005992   -2.490917   -2.936215
     17          1           0        5.743749   -0.975032   -2.390865
     18          1           0        6.238267   -2.138744   -1.359684
     19          7           0        4.570618    3.281854    0.674396
     20          6           0        3.297186    2.799692    0.858580
     21          6           0        4.916945    4.686073    0.376184
     22          7           0       -0.131364    3.336057    0.996926
     23          1           0       -0.956439    2.795967    1.160640
     24          1           0       -0.256389    4.311862    0.815605
     25          7           0        2.157507    3.521898    0.798560
     26          6           0        1.088344    2.777744    1.019329
     27          7           0        1.129946    1.429314    1.279191
     28          1           0        0.261909    0.940528    1.435942
     29          6           0        2.291228    0.665869    1.345708
     30          8           0        2.218859   -0.545464    1.586925
     31          6           0        3.448090    1.451547    1.110631
     32          7           0        4.789278    1.094527    1.085206
     33          6           0        5.415864    2.209482    0.823515
     34          1           0        6.497915    2.306046    0.728042
     35          1           0        5.394467    4.734413   -0.500422
     36          1           0        4.080602    5.230675    0.329293
     37          1           0        5.507682    5.045847    1.097582
     38          1           0       -4.426696   -1.025908    1.488831
     39          1           0       -4.212035   -0.955509    3.236291
     40          1           0       -3.438650    0.248063    2.204461
     41          1           0       -1.642585   -4.886306    2.190666
     42          6           0       -1.550223   -3.801566    2.135619
     43          8           0        0.804185   -3.832337    1.847631
     44          6           0       -0.256682   -3.217355    1.953181
     45          1           0        0.644070   -1.388963    1.768863
     46          7           0       -0.251757   -1.838191    1.897010
     47          8           0       -1.231016    0.210421    1.934775
     48          6           0       -1.335461   -1.002003    1.996457
     49          1           0       -3.631651   -3.406604    2.375403
     50          6           0       -2.626014   -3.012122    2.235970
     51          6           0       -3.734345   -0.787600    2.282509
     52          7           0       -2.547626   -1.640258    2.171074
     53          1           0       -5.684944    4.274058   -2.069108
     54          1           0       -4.291425    4.188678   -1.224771
     55          1           0       -5.712308    4.357483   -0.439476
     56          1           0       -3.886391   -2.822428   -0.856409
     57          1           0       -5.501281   -2.275376   -0.910991
     58          7           0       -4.525312   -2.054691   -0.906447
     59          6           0       -4.096005   -0.792357   -0.964573
     60          6           0       -4.358364    1.569203   -1.090701
     61          7           0       -3.041808    1.835775   -1.082971
     62          1           0       -1.255752    0.833748   -1.002117
     63          6           0       -2.337554    0.707914   -1.013281
     64          7           0       -2.765681   -0.557342   -0.954986
     65          1           0       -7.529580    2.192505   -1.174618
     66          6           0       -6.545167    1.725323   -1.134451
     67          7           0       -6.335692    0.433461   -1.064375
     68          6           0       -4.953227    0.320740   -1.035996
     69          6           0       -5.259677    3.940474   -1.227764
     70          7           0       -5.392766    2.472524   -1.154190
 ---------------------------------------------------------------------

 SCF Done:  E(RwB97XD) =  -2048.74495398     A.U. after   15 cycles

 The electronic state is 1-A.
 Alpha  occ. eigenvalues --  -19.25197 -19.21257 -19.20531 -14.52555 -14.51827
 Alpha  occ. eigenvalues --  -14.49193 -14.48888 -14.48015 -14.47086 -14.46714
 Alpha  occ. eigenvalues --  -14.46461 -14.45482 -14.45007 -14.44862 -14.42993
 Alpha  occ. eigenvalues --  -14.41986 -14.41011 -14.40707 -14.40679 -14.40388
 Alpha  occ. eigenvalues --  -10.44800 -10.41133 -10.40567 -10.39361 -10.38151
 Alpha  occ. eigenvalues --  -10.38079 -10.37529 -10.37423 -10.36293 -10.35555
 Alpha  occ. eigenvalues --  -10.34455 -10.34373 -10.33934 -10.33454 -10.33446
 Alpha  occ. eigenvalues --  -10.33034 -10.32899 -10.32847 -10.31072 -10.30733
 Alpha  occ. eigenvalues --  -10.29959 -10.28208 -10.28127  -1.18752  -1.15356
 Alpha  occ. eigenvalues --   -1.13119  -1.12265  -1.10706  -1.10617  -1.09939
 Alpha  occ. eigenvalues --   -1.08708  -1.08450  -1.05463  -1.05044  -1.01752
 Alpha  occ. eigenvalues --   -1.01158  -1.00560  -0.99583  -0.98497  -0.97437
 Alpha  occ. eigenvalues --   -0.96652  -0.96410  -0.92729  -0.90584  -0.87909
 Alpha  occ. eigenvalues --   -0.86054  -0.84160  -0.83397  -0.82993  -0.82562
 Alpha  occ. eigenvalues --   -0.81684  -0.78341  -0.77449  -0.75256  -0.74604
 Alpha  occ. eigenvalues --   -0.73503  -0.72745  -0.72694  -0.70905  -0.70741
 Alpha  occ. eigenvalues --   -0.67333  -0.67254  -0.66148  -0.65967  -0.64665
 Alpha  occ. eigenvalues --   -0.64270  -0.63443  -0.62623  -0.62497  -0.61664
 Alpha  occ. eigenvalues --   -0.60943  -0.60589  -0.59931  -0.59691  -0.59077
 Alpha  occ. eigenvalues --   -0.59065  -0.58187  -0.56730  -0.56422  -0.55653
 Alpha  occ. eigenvalues --   -0.55570  -0.55472  -0.55407  -0.54888  -0.54052
 Alpha  occ. eigenvalues --   -0.53908  -0.53503  -0.53336  -0.53068  -0.52889
 Alpha  occ. eigenvalues --   -0.52570  -0.51874  -0.51190  -0.50339  -0.50228
 Alpha  occ. eigenvalues --   -0.50047  -0.49766  -0.49405  -0.48964  -0.48680
 Alpha  occ. eigenvalues --   -0.48640  -0.47973  -0.47785  -0.47618  -0.47069
 Alpha  occ. eigenvalues --   -0.46543  -0.45598  -0.45412  -0.44647  -0.43396
 Alpha  occ. eigenvalues --   -0.41041  -0.40971  -0.38916  -0.38159  -0.37943
 Alpha  occ. eigenvalues --   -0.37290  -0.37216  -0.36680  -0.35345  -0.35100
 Alpha  occ. eigenvalues --   -0.34878  -0.33930  -0.33231  -0.33118  -0.32825
 Alpha  occ. eigenvalues --   -0.32551  -0.32292  -0.31824  -0.31343  -0.30644
 Alpha  occ. eigenvalues --   -0.30473  -0.30175  -0.26018  -0.25211
 Alpha virt. eigenvalues --    0.03354   0.03790   0.06605   0.08159   0.09031
 Alpha virt. eigenvalues --    0.09354   0.09823   0.10377   0.11139   0.11203
 Alpha virt. eigenvalues --    0.13614   0.14491   0.14629   0.14797   0.14924

 Mulliken charges:
               1
     1  N   -0.313519
     2  C    0.184348
     3  C    0.058925
     4  N   -0.257639
     5  C    0.144609
     6  H    0.027551
     7  N   -0.293702
     8  C    0.127449
     9  H    0.013376
    10  N   -0.276266
    11  C    0.263700
    12  C    0.084368
    13  N   -0.072223
    14  H    0.110318
    15  H    0.083679
    16  H    0.019606
    17  H    0.034332
    18  H    0.033136
    19  N   -0.311448
    20  C    0.248543
    21  C    0.180849
    22  N   -0.119351
    23  H    0.118307
    24  H    0.116634
    25  N   -0.312178
    26  C    0.244488
    27  N   -0.140627
    28  H    0.117519
    29  C    0.183123
    30  O   -0.321331
    31  C   -0.005657
    32  N   -0.230700
    33  C    0.125609
    34  H    0.023142
    35  H    0.027205
    36  H    0.029429
    37  H    0.025016
    38  H    0.051054
    39  H    0.057697
    40  H    0.075408
    41  H    0.029052
    42  C   -0.113695
    43  O   -0.251816
    44  C    0.162348
    45  H    0.137102
    46  N   -0.125016
    47  O   -0.349672
    48  C    0.354450
    49  H    0.041707
    50  C    0.158541
    51  C    0.041890
    52  N   -0.283412
    53  H    0.034551
    54  H    0.039238
    55  H    0.030811
    56  H    0.116942
    57  H    0.121420
    58  N   -0.065218
    59  C    0.074617
    60  C    0.249080
    61  N   -0.277439
    62  H    0.029348
    63  C    0.183820
    64  N   -0.312036
    65  H    0.039792
    66  C    0.143801
    67  N   -0.261448
    68  C    0.029409
    69  C    0.180454
    70  N   -0.313405
 Sum of Mulliken charges =  -0.00000

 Dipole moment (field-independent basis, Debye):
    X=             -9.1767    Y=              5.5043    Z=             -0.4959  Tot=             10.7124
 Quadrupole moment (field-independent basis, Debye-Ang):
   XX=           -178.4151   YY=           -206.5062   ZZ=           -249.4683
   XY=              8.5097   XZ=            -18.5205   YZ=              3.1583

 Normal termination of Gaussian 16 at Fri Jan 26 20:05:00 2018.
