 Gaussian 16, Revision A.03,
 Gaussian 16:  EM64L-G16RevA.03 25-Dec-2016

 ---------------------------------------
 #p wb97xd/cc-pvdz sp scf=(maxcycles=20)
 ---------------------------------------

 ------------------
 Base pair stacking
 ------------------
 Symbolic Z-matrix:
 Charge =  0 Multiplicity = 1

                         Standard orientation:
 ---------------------------------------------------------------------
 Center     Atomic      Atomic             Coordinates (Angstroms)
 Number     Number       Type             X           Y           Z
 ---------------------------------------------------------------------
      1          7           0       -6.537712   -1.643946    0.461520
      2          6           0       -7.948007   -1.209333    0.474445
      3          6           0       -4.349007   -1.701183    0.670379
      4          7           0       -4.723773   -2.940250    0.171396
      5          6           0       -6.027386   -2.856177    0.065527
      6          1           0       -6.672685   -3.655966   -0.298966
      7          7           0       -3.071617    0.110253    1.476558
      8          6           0       -4.227225    0.771208    1.600232
      9          1           0       -4.143309    1.786443    1.985622
     10          7           0       -5.465103    0.368249    1.320630
     11          6           0       -5.456277   -0.891464    0.854309
     12          6           0       -3.096289   -1.155318    1.004544
     13          7           0       -1.943781   -1.816733    0.880384
     14          1           0       -1.914675   -2.755482    0.535244
     15          1           0       -1.070630   -1.396684    1.127980
     16          1           0       -8.478865   -1.813183    1.069203
     17          1           0       -8.005520   -0.271756    0.816170
     18          1           0       -8.319271   -1.247538   -0.453294
     19          7           0       -2.071686    3.423801   -1.896192
     20          6           0       -0.845420    2.823938   -1.739725
     21          6           0       -2.315850    4.880197   -1.895943
     22          7           0        2.584850    3.072459   -1.256781
     23          1           0        3.363383    2.452500   -1.163061
     24          1           0        2.777045    4.052920   -1.207021
     25          7           0        0.332999    3.459081   -1.560903
     26          6           0        1.338734    2.610722   -1.440946
     27          7           0        1.202956    1.244529   -1.491924
     28          1           0        2.027601    0.672972   -1.390654
     29          6           0        0.000266    0.569371   -1.675061
     30          8           0       -0.013123   -0.667405   -1.705974
     31          6           0       -1.089344    1.467476   -1.805517
     32          7           0       -2.441539    1.220729   -1.999392
     33          6           0       -2.983321    2.407500   -2.046868
     34          1           0       -4.047260    2.599112   -2.190342
     35          1           0       -2.942448    5.114670   -1.153515
     36          1           0       -1.450043    5.361136   -1.764219
     37          1           0       -2.717680    5.152633   -2.769509
     38          1           0        6.403924   -1.615301   -0.180578
     39          1           0        6.532102   -1.832396   -1.924444
     40          1           0        5.710985   -0.414528   -1.271148
     41          1           0        3.405802   -5.321570   -0.829711
     42          6           0        3.421312   -4.239836   -0.963233
     43          8           0        1.065371   -4.045600   -1.160578
     44          6           0        2.186675   -3.538549   -1.141275
     45          1           0        1.468219   -1.644122   -1.429922
     46          7           0        2.318807   -2.173948   -1.301448
     47          8           0        3.501044   -0.241102   -1.455170
     48          6           0        3.484929   -1.450275   -1.305824
     49          1           0        5.540636   -4.047799   -0.831366
     50          6           0        4.574863   -3.561649   -0.962871
     51          6           0        5.903558   -1.467124   -1.125958
     52          7           0        4.632870   -2.197253   -1.128456
     53          1           0        3.488987    3.903359    3.768539
     54          1           0        2.325213    4.052304    2.634712
     55          1           0        3.896498    4.186256    2.213754
     56          1           0        1.587062   -2.791154    1.193320
     57          1           0        3.176239   -2.405961    1.679373
     58          7           0        2.243048   -2.097647    1.491449
     59          6           0        1.890112   -0.818309    1.632459
     60          6           0        2.260559    1.474959    2.147681
     61          7           0        1.000163    1.860321    1.888206
     62          1           0       -0.777074    1.044661    1.274430
     63          6           0        0.263188    0.819489    1.505539
     64          7           0        0.614834   -0.462617    1.363683
     65          1           0        5.359023    1.788728    3.015594
     66          6           0        4.383670    1.422684    2.693637
     67          7           0        4.117227    0.174388    2.396235
     68          6           0        2.774332    0.193664    2.048391
     69          6           0        3.249582    3.717696    2.815535
     70          7           0        3.305808    2.264367    2.565156
 ---------------------------------------------------------------------

 SCF Done:  E(RwB97XD) =  -2048.73931519     A.U. after   15 cycles

 The electronic state is 1-A.
 Alpha  occ. eigenvalues --  -19.26402 -19.23030 -19.20897 -14.53109 -14.51505
 Alpha  occ. eigenvalues --  -14.48996 -14.48283 -14.48246 -14.47294 -14.47287
 Alpha  occ. eigenvalues --  -14.47151 -14.44570 -14.43184 -14.43156 -14.42367
 Alpha  occ. eigenvalues --  -14.41488 -14.40998 -14.40897 -14.40276 -14.39535
 Alpha  occ. eigenvalues --  -10.46023 -10.41635 -10.40959 -10.38861 -10.38606
 Alpha  occ. eigenvalues --  -10.38512 -10.37122 -10.36141 -10.35591 -10.34770
 Alpha  occ. eigenvalues --  -10.34619 -10.34582 -10.33566 -10.33440 -10.33130
 Alpha  occ. eigenvalues --  -10.32789 -10.32480 -10.31878 -10.31690 -10.31116
 Alpha  occ. eigenvalues --  -10.30527 -10.28375 -10.27945  -1.19992  -1.14222
 Alpha  occ. eigenvalues --   -1.13971  -1.13521  -1.10828  -1.10808  -1.09990
 Alpha  occ. eigenvalues --   -1.08935  -1.08238  -1.04355  -1.03882  -1.03071
 Alpha  occ. eigenvalues --   -1.00238  -1.00043  -0.99783  -0.98838  -0.96813
 Alpha  occ. eigenvalues --   -0.96429  -0.95738  -0.91992  -0.91791  -0.86647
 Alpha  occ. eigenvalues --   -0.85020  -0.84379  -0.84143  -0.83405  -0.82746
 Alpha  occ. eigenvalues --   -0.81794  -0.79578  -0.76079  -0.74924  -0.74093
 Alpha  occ. eigenvalues --   -0.73939  -0.73749  -0.72317  -0.70464  -0.69491
 Alpha  occ. eigenvalues --   -0.67773  -0.67152  -0.65853  -0.65716  -0.64984
 Alpha  occ. eigenvalues --   -0.64143  -0.63360  -0.63028  -0.62132  -0.62097
 Alpha  occ. eigenvalues --   -0.60247  -0.60110  -0.59731  -0.59639  -0.58914
 Alpha  occ. eigenvalues --   -0.58824  -0.58602  -0.56856  -0.56441  -0.55995
 Alpha  occ. eigenvalues --   -0.55912  -0.54990  -0.54806  -0.54713  -0.54299
 Alpha  occ. eigenvalues --   -0.54029  -0.53850  -0.53301  -0.52936  -0.52853
 Alpha  occ. eigenvalues --   -0.52679  -0.51873  -0.51259  -0.50552  -0.50169
 Alpha  occ. eigenvalues --   -0.50006  -0.49649  -0.49396  -0.49015  -0.48992
 Alpha  occ. eigenvalues --   -0.48574  -0.48336  -0.48193  -0.47955  -0.47750
 Alpha  occ. eigenvalues --   -0.46390  -0.45763  -0.44747  -0.44498  -0.43743
 Alpha  occ. eigenvalues --   -0.40522  -0.39934  -0.39698  -0.37656  -0.37560
 Alpha  occ. eigenvalues --   -0.37480  -0.36591  -0.36500  -0.35732  -0.34548
 Alpha  occ. eigenvalues --   -0.34068  -0.33792  -0.33246  -0.33078  -0.32887
 Alpha  occ. eigenvalues --   -0.32791  -0.32726  -0.32584  -0.32036  -0.30331
 Alpha  occ. eigenvalues --   -0.29791  -0.28999  -0.25796  -0.25105
 Alpha virt. eigenvalues --    0.02183   0.04972   0.07558   0.08229   0.08609
 Alpha virt. eigenvalues --    0.09099   0.09419   0.11336   0.11694   0.11793
 Alpha virt. eigenvalues --    0.12513   0.14249   0.14351   0.14877   0.15214

 Mulliken charges:
               1
     1  N   -0.311195
     2  C    0.181295
     3  C    0.033231
     4  N   -0.257790
     5  C    0.132373
     6  H    0.024514
     7  N   -0.297192
     8  C    0.138595
     9  H    0.007823
    10  N   -0.292679
    11  C    0.244385
    12  C    0.125010
    13  N   -0.053157
    14  H    0.112773
    15  H    0.091193
    16  H    0.024047
    17  H    0.033935
    18  H    0.025092
    19  N   -0.312378
    20  C    0.249464
    21  C    0.181423
    22  N   -0.123734
    23  H    0.115962
    24  H    0.116457
    25  N   -0.306319
    26  C    0.240593
    27  N   -0.137107
    28  H    0.113546
    29  C    0.170136
    30  O   -0.318394
    31  C    0.000034
    32  N   -0.222178
    33  C    0.129329
    34  H    0.029619
    35  H    0.029057
    36  H    0.028202
    37  H    0.025404
    38  H    0.064793
    39  H    0.059999
    40  H    0.077208
    41  H    0.034282
    42  C   -0.102734
    43  O   -0.263460
    44  C    0.130962
    45  H    0.134987
    46  N   -0.112405
    47  O   -0.344646
    48  C    0.346867
    49  H    0.051389
    50  C    0.161703
    51  C    0.043227
    52  N   -0.288493
    53  H    0.031647
    54  H    0.045139
    55  H    0.020425
    56  H    0.129699
    57  H    0.111854
    58  N   -0.070075
    59  C    0.089236
    60  C    0.239747
    61  N   -0.263247
    62  H    0.046169
    63  C    0.163646
    64  N   -0.302317
    65  H    0.031704
    66  C    0.133105
    67  N   -0.269653
    68  C    0.029354
    69  C    0.180688
    70  N   -0.312170
 Sum of Mulliken charges =  -0.00000

 Dipole moment (field-independent basis, Debye):
    X=              9.9564    Y=              4.6945    Z=              0.7812  Tot=             11.0353
 Quadrupole moment (field-independent basis, Debye-Ang):
   XX=           -159.4748   YY=           -208.1696   ZZ=           -248.6629
   XY=             -6.5820   XZ=              6.3533   YZ=             -3.5630

 Normal termination of Gaussian 16 at Sat Jan 27 05:55:53 2018.
