 Gaussian 16, Revision A.03,
 Gaussian 16:  EM64L-G16RevA.03 25-Dec-2016

 ---------------------------------------
 #p wb97xd/cc-pvdz sp scf=(maxcycles=20)
 ---------------------------------------

 ------------------
 Base pair stacking
 ------------------
 Symbolic Z-matrix:
 Charge =  0 Multiplicity = 1

                         Standard orientation:
 ---------------------------------------------------------------------
 Center     Atomic      Atomic             Coordinates (Angstroms)
 Number     Number       Type             X           Y           Z
 ---------------------------------------------------------------------
      1          7           0        4.947516   -1.994996   -1.573167
      2          6           0        6.364731   -1.586034   -1.620437
      3          6           0        2.748736   -1.971894   -1.526786
      4          7           0        3.123885   -3.306737   -1.480158
      5          6           0        4.433559   -3.267235   -1.509965
      6          1           0        5.080948   -4.144349   -1.487952
      7          7           0        1.467446    0.007592   -1.580346
      8          6           0        2.629047    0.667551   -1.632390
      9          1           0        2.545833    1.752690   -1.675075
     10          7           0        3.872158    0.190575   -1.639599
     11          6           0        3.861944   -1.151543   -1.584375
     12          6           0        1.490867   -1.342045   -1.525528
     13          7           0        0.332369   -2.002611   -1.473520
     14          1           0        0.302136   -3.001903   -1.431913
     15          1           0       -0.544324   -1.521430   -1.474376
     16          1           0        6.799725   -1.979321   -2.430557
     17          1           0        6.423511   -0.589088   -1.662562
     18          1           0        6.835308   -1.911632   -0.800347
     19          7           0        3.921347    3.284224    1.011850
     20          6           0        2.653587    2.755609    1.049529
     21          6           0        4.251953    4.687627    0.692691
     22          7           0       -0.780069    3.147537    0.705841
     23          1           0       -1.598922    2.579756    0.785497
     24          1           0       -0.915929    4.107974    0.461270
     25          7           0        1.506165    3.424060    0.803303
     26          6           0        0.445548    2.644489    0.917276
     27          7           0        0.502141    1.311997    1.247066
     28          1           0       -0.360229    0.793237    1.311612
     29          6           0        1.671640    0.603613    1.504647
     30          8           0        1.612764   -0.597842    1.794068
     31          6           0        2.819465    1.427818    1.386056
     32          7           0        4.164293    1.128853    1.556223
     33          6           0        4.778306    2.257391    1.324708
     34          1           0        5.859017    2.396731    1.368674
     35          1           0        4.840759    4.717875   -0.114278
     36          1           0        3.409747    5.192625    0.508446
     37          1           0        4.726589    5.104419    1.467163
     38          1           0       -4.936786   -1.371542    0.840881
     39          1           0       -4.961575   -1.214525    2.595704
     40          1           0       -4.102049   -0.025243    1.616813
     41          1           0       -2.130097   -5.071967    2.096251
     42          6           0       -2.071725   -3.987731    2.000058
     43          8           0        0.299517   -3.928513    2.028246
     44          6           0       -0.788107   -3.356308    1.961683
     45          1           0        0.060390   -1.500341    1.807597
     46          7           0       -0.827141   -1.982094    1.838172
     47          8           0       -1.878351    0.021518    1.644043
     48          6           0       -1.944822   -1.190375    1.751536
     49          1           0       -4.179771   -3.673694    1.942179
     50          6           0       -3.179942   -3.242289    1.917700
     51          6           0       -4.366702   -1.068350    1.706418
     52          7           0       -3.144797   -1.872540    1.795634
     53          1           0       -5.140934    4.362344   -1.799030
     54          1           0       -3.852561    4.146269   -0.821530
     55          1           0       -5.359886    4.152636   -0.195446
     56          1           0       -3.249516   -2.811548   -1.646441
     57          1           0       -4.865223   -2.285508   -1.797722
     58          7           0       -3.904628   -2.055981   -1.637095
     59          6           0       -3.515606   -0.797898   -1.420162
     60          6           0       -3.843500    1.544383   -1.159465
     61          7           0       -2.546786    1.823106   -0.946679
     62          1           0       -0.748397    0.847097   -0.829203
     63          6           0       -1.816585    0.710625   -0.992342
     64          7           0       -2.204347   -0.550363   -1.209476
     65          1           0       -7.003346    2.129572   -1.513144
     66          6           0       -6.014586    1.676126   -1.437704
     67          7           0       -5.769884    0.395527   -1.571336
     68          6           0       -4.396947    0.298309   -1.397195
     69          6           0       -4.804722    3.889483   -0.984566
     70          7           0       -4.894340    2.430370   -1.186954
 ---------------------------------------------------------------------

 SCF Done:  E(RwB97XD) =  -2048.74082967     A.U. after   15 cycles

 The electronic state is 1-A.
 Alpha  occ. eigenvalues --  -19.25221 -19.21430 -19.20218 -14.52869 -14.52042
 Alpha  occ. eigenvalues --  -14.49265 -14.48516 -14.48190 -14.47300 -14.46323
 Alpha  occ. eigenvalues --  -14.45762 -14.45307 -14.44992 -14.44983 -14.42838
 Alpha  occ. eigenvalues --  -14.41508 -14.40942 -14.40534 -14.40490 -14.40178
 Alpha  occ. eigenvalues --  -10.44937 -10.40705 -10.40578 -10.39565 -10.38332
 Alpha  occ. eigenvalues --  -10.37815 -10.37753 -10.37517 -10.36540 -10.35469
 Alpha  occ. eigenvalues --  -10.34719 -10.34360 -10.33978 -10.33634 -10.33191
 Alpha  occ. eigenvalues --  -10.33023 -10.32925 -10.32734 -10.30845 -10.30787
 Alpha  occ. eigenvalues --  -10.30255 -10.28199 -10.27681  -1.18943  -1.15627
 Alpha  occ. eigenvalues --   -1.12744  -1.12451  -1.10832  -1.10254  -1.10042
 Alpha  occ. eigenvalues --   -1.08904  -1.07989  -1.05662  -1.04932  -1.01944
 Alpha  occ. eigenvalues --   -1.01426  -1.00444  -0.98927  -0.98113  -0.97582
 Alpha  occ. eigenvalues --   -0.96564  -0.96266  -0.92607  -0.90725  -0.88177
 Alpha  occ. eigenvalues --   -0.86387  -0.83752  -0.83472  -0.83197  -0.82227
 Alpha  occ. eigenvalues --   -0.81848  -0.78497  -0.77634  -0.75562  -0.74225
 Alpha  occ. eigenvalues --   -0.73039  -0.72848  -0.72747  -0.71093  -0.70765
 Alpha  occ. eigenvalues --   -0.67604  -0.66745  -0.66156  -0.66081  -0.64910
 Alpha  occ. eigenvalues --   -0.64091  -0.63424  -0.62611  -0.62397  -0.61207
 Alpha  occ. eigenvalues --   -0.61017  -0.60752  -0.60318  -0.59805  -0.59359
 Alpha  occ. eigenvalues --   -0.59130  -0.57652  -0.56709  -0.56258  -0.55826
 Alpha  occ. eigenvalues --   -0.55702  -0.55691  -0.55516  -0.54766  -0.54317
 Alpha  occ. eigenvalues --   -0.53875  -0.53577  -0.53298  -0.53130  -0.52791
 Alpha  occ. eigenvalues --   -0.52533  -0.51998  -0.51329  -0.50503  -0.50221
 Alpha  occ. eigenvalues --   -0.49885  -0.49808  -0.49745  -0.48980  -0.48756
 Alpha  occ. eigenvalues --   -0.48434  -0.47922  -0.47852  -0.47264  -0.46935
 Alpha  occ. eigenvalues --   -0.46512  -0.45703  -0.45369  -0.44123  -0.43567
 Alpha  occ. eigenvalues --   -0.41423  -0.40959  -0.38929  -0.38318  -0.38163
 Alpha  occ. eigenvalues --   -0.37181  -0.36885  -0.36500  -0.35629  -0.35079
 Alpha  occ. eigenvalues --   -0.34899  -0.33372  -0.33288  -0.32964  -0.32622
 Alpha  occ. eigenvalues --   -0.32258  -0.32119  -0.31619  -0.31536  -0.30766
 Alpha  occ. eigenvalues --   -0.30514  -0.30130  -0.25768  -0.24797
 Alpha virt. eigenvalues --    0.02877   0.03957   0.06173   0.08149   0.09022
 Alpha virt. eigenvalues --    0.09666   0.10123   0.10281   0.11219   0.11272
 Alpha virt. eigenvalues --    0.12810   0.14105   0.14677   0.15143   0.15299

 Mulliken charges:
               1
     1  N   -0.314331
     2  C    0.183796
     3  C    0.050006
     4  N   -0.262704
     5  C    0.139792
     6  H    0.026314
     7  N   -0.293989
     8  C    0.133656
     9  H    0.015355
    10  N   -0.276836
    11  C    0.264390
    12  C    0.101787
    13  N   -0.069788
    14  H    0.107886
    15  H    0.079355
    16  H    0.021028
    17  H    0.033904
    18  H    0.030314
    19  N   -0.308908
    20  C    0.240764
    21  C    0.180600
    22  N   -0.089171
    23  H    0.108191
    24  H    0.110800
    25  N   -0.308609
    26  C    0.220597
    27  N   -0.137162
    28  H    0.113503
    29  C    0.186468
    30  O   -0.323781
    31  C   -0.020081
    32  N   -0.222020
    33  C    0.127453
    34  H    0.020929
    35  H    0.027293
    36  H    0.028315
    37  H    0.023983
    38  H    0.048551
    39  H    0.060866
    40  H    0.075775
    41  H    0.030299
    42  C   -0.114070
    43  O   -0.258449
    44  C    0.177339
    45  H    0.134966
    46  N   -0.129985
    47  O   -0.343309
    48  C    0.352006
    49  H    0.043394
    50  C    0.161484
    51  C    0.042582
    52  N   -0.285690
    53  H    0.036504
    54  H    0.033796
    55  H    0.032806
    56  H    0.118733
    57  H    0.120869
    58  N   -0.060758
    59  C    0.076571
    60  C    0.259906
    61  N   -0.293269
    62  H    0.043929
    63  C    0.180381
    64  N   -0.306645
    65  H    0.040308
    66  C    0.140957
    67  N   -0.260232
    68  C    0.025482
    69  C    0.180905
    70  N   -0.315100
 Sum of Mulliken charges =  -0.00000

 Dipole moment (field-independent basis, Debye):
    X=             -9.5722    Y=              4.9018    Z=             -2.1515  Tot=             10.9674
 Quadrupole moment (field-independent basis, Debye-Ang):
   XX=           -171.1640   YY=           -208.7841   ZZ=           -253.7896
   XY=              7.9920   XZ=            -13.4386   YZ=              7.1923

 Normal termination of Gaussian 16 at Sat Jan 27 02:17:33 2018.
