 Gaussian 16, Revision A.03,
 Gaussian 16:  EM64L-G16RevA.03 25-Dec-2016

 ---------------------------------------
 #p wb97xd/cc-pvdz sp scf=(maxcycles=20)
 ---------------------------------------

 ------------------
 Base pair stacking
 ------------------
 Symbolic Z-matrix:
 Charge =  0 Multiplicity = 1

                         Standard orientation:
 ---------------------------------------------------------------------
 Center     Atomic      Atomic             Coordinates (Angstroms)
 Number     Number       Type             X           Y           Z
 ---------------------------------------------------------------------
      1          7           0       -7.004497   -1.601935    0.138232
      2          6           0       -8.411652   -1.167540    0.042239
      3          6           0       -4.829425   -1.641427    0.462017
      4          7           0       -5.184152   -2.918736    0.052897
      5          6           0       -6.480352   -2.843812   -0.125792
      6          1           0       -7.110050   -3.671860   -0.452536
      7          7           0       -3.586165    0.232371    1.173444
      8          6           0       -4.743516    0.901741    1.181112
      9          1           0       -4.674558    1.946336    1.481664
     10          7           0       -5.967517    0.476474    0.874713
     11          6           0       -5.940875   -0.818671    0.519330
     12          6           0       -3.592727   -1.069094    0.811200
     13          7           0       -2.438431   -1.738958    0.802914
     14          1           0       -2.396207   -2.703919    0.541589
     15          1           0       -1.577001   -1.299342    1.057508
     16          1           0       -8.974637   -1.717903    0.658949
     17          1           0       -8.482082   -0.204048    0.298831
     18          1           0       -8.735737   -1.285296   -0.896431
     19          7           0       -1.553332    3.247711   -1.953233
     20          6           0       -0.330843    2.667534   -1.714544
     21          6           0       -1.816757    4.700333   -1.987667
     22          7           0        3.060032    2.971398   -1.027982
     23          1           0        3.839748    2.363924   -0.878780
     24          1           0        3.235556    3.955076   -0.980041
     25          7           0        0.825810    3.321756   -1.473294
     26          6           0        1.833790    2.489515   -1.281018
     27          7           0        1.719876    1.120981   -1.321489
     28          1           0        2.544491    0.562652   -1.162618
     29          6           0        0.539791    0.426345   -1.567965
     30          8           0        0.545062   -0.810785   -1.582739
     31          6           0       -0.551933    1.306996   -1.776472
     32          7           0       -1.886371    1.038412   -2.048572
     33          6           0       -2.440272    2.216582   -2.145003
     34          1           0       -3.496018    2.391068   -2.355320
     35          1           0       -2.490448    4.935282   -1.287855
     36          1           0       -0.967158    5.195285   -1.810284
     37          1           0       -2.168377    4.955766   -2.887627
     38          1           0        6.869726   -1.646933    0.341657
     39          1           0        7.106620   -1.884481   -1.388113
     40          1           0        6.228182   -0.470286   -0.805211
     41          1           0        3.967067   -5.403834   -0.437373
     42          6           0        3.976028   -4.323779   -0.584470
     43          8           0        1.634034   -4.165905   -0.926893
     44          6           0        2.745118   -3.642620   -0.846589
     45          1           0        2.019958   -1.762540   -1.204089
     46          7           0        2.868258   -2.278419   -1.017064
     47          8           0        4.031373   -0.330946   -1.125209
     48          6           0        4.022585   -1.538216   -0.960622
     49          1           0        6.080612   -4.099696   -0.326999
     50          6           0        5.118129   -3.629174   -0.523434
     51          6           0        6.425809   -1.518069   -0.634258
     52          7           0        5.167620   -2.266323   -0.703817
     53          1           0        2.867471    4.207219    3.461126
     54          1           0        1.763159    4.258355    2.261133
     55          1           0        3.354302    4.355303    1.910484
     56          1           0        1.067602   -2.683552    1.377083
     57          1           0        2.631934   -2.258313    1.908265
     58          7           0        1.710837   -1.967117    1.647465
     59          6           0        1.357064   -0.680318    1.660021
     60          6           0        1.711452    1.648681    1.994557
     61          7           0        0.467552    2.010561    1.639336
     62          1           0       -1.280098    1.145491    1.008497
     63          6           0       -0.253885    0.940822    1.310561
     64          7           0        0.098637   -0.348807    1.297334
     65          1           0        4.763497    2.035316    2.988390
     66          6           0        3.804016    1.643135    2.649979
     67          7           0        3.547246    0.373939    2.447731
     68          6           0        2.223739    0.363495    2.031837
     69          6           0        2.675682    3.940346    2.516679
     70          7           0        2.737869    2.470861    2.395189
 ---------------------------------------------------------------------

 SCF Done:  E(RwB97XD) =  -2048.74145757     A.U. after   15 cycles

 The electronic state is 1-A.
 Alpha  occ. eigenvalues --  -19.26288 -19.22821 -19.20996 -14.52995 -14.51056
 Alpha  occ. eigenvalues --  -14.49076 -14.48611 -14.48401 -14.47591 -14.47437
 Alpha  occ. eigenvalues --  -14.46543 -14.44139 -14.42638 -14.42547 -14.42522
 Alpha  occ. eigenvalues --  -14.41839 -14.41295 -14.41069 -14.40640 -14.39866
 Alpha  occ. eigenvalues --  -10.45957 -10.41790 -10.40843 -10.38640 -10.38420
 Alpha  occ. eigenvalues --  -10.38294 -10.36684 -10.35651 -10.35626 -10.35144
 Alpha  occ. eigenvalues --  -10.34689 -10.34075 -10.33952 -10.33536 -10.33176
 Alpha  occ. eigenvalues --  -10.32824 -10.32803 -10.31695 -10.31165 -10.31148
 Alpha  occ. eigenvalues --  -10.30798 -10.28484 -10.28350  -1.19910  -1.13838
 Alpha  occ. eigenvalues --   -1.13794  -1.13591  -1.11190  -1.10925  -1.09876
 Alpha  occ. eigenvalues --   -1.09116  -1.07637  -1.04719  -1.03341  -1.03005
 Alpha  occ. eigenvalues --   -1.00458  -1.00157  -0.99571  -0.98952  -0.96902
 Alpha  occ. eigenvalues --   -0.96782  -0.95191  -0.92353  -0.91639  -0.86197
 Alpha  occ. eigenvalues --   -0.84612  -0.84467  -0.84120  -0.83759  -0.82824
 Alpha  occ. eigenvalues --   -0.82136  -0.79457  -0.75569  -0.75025  -0.74219
 Alpha  occ. eigenvalues --   -0.73916  -0.73233  -0.72679  -0.70827  -0.68965
 Alpha  occ. eigenvalues --   -0.67917  -0.67100  -0.66076  -0.65327  -0.64945
 Alpha  occ. eigenvalues --   -0.64189  -0.63114  -0.62810  -0.62416  -0.62307
 Alpha  occ. eigenvalues --   -0.60090  -0.60048  -0.59966  -0.59100  -0.59056
 Alpha  occ. eigenvalues --   -0.58676  -0.58198  -0.56928  -0.56409  -0.56285
 Alpha  occ. eigenvalues --   -0.56230  -0.55126  -0.54912  -0.54723  -0.54081
 Alpha  occ. eigenvalues --   -0.53964  -0.53786  -0.53355  -0.52881  -0.52433
 Alpha  occ. eigenvalues --   -0.52182  -0.51545  -0.51430  -0.50588  -0.50522
 Alpha  occ. eigenvalues --   -0.49967  -0.49933  -0.49361  -0.49052  -0.48935
 Alpha  occ. eigenvalues --   -0.48645  -0.48522  -0.48131  -0.47842  -0.47684
 Alpha  occ. eigenvalues --   -0.46733  -0.45481  -0.44882  -0.44639  -0.43267
 Alpha  occ. eigenvalues --   -0.40920  -0.39876  -0.39307  -0.37768  -0.37666
 Alpha  occ. eigenvalues --   -0.37071  -0.36954  -0.36090  -0.35561  -0.35001
 Alpha  occ. eigenvalues --   -0.33925  -0.33395  -0.33294  -0.33092  -0.32955
 Alpha  occ. eigenvalues --   -0.32681  -0.32626  -0.32404  -0.32167  -0.30721
 Alpha  occ. eigenvalues --   -0.30096  -0.28480  -0.25878  -0.25529
 Alpha virt. eigenvalues --    0.02417   0.05377   0.07774   0.08206   0.08376
 Alpha virt. eigenvalues --    0.09196   0.09373   0.11236   0.11489   0.12193
 Alpha virt. eigenvalues --    0.12662   0.14076   0.14511   0.14662   0.15150

 Mulliken charges:
               1
     1  N   -0.310868
     2  C    0.181163
     3  C    0.028739
     4  N   -0.258488
     5  C    0.132743
     6  H    0.025811
     7  N   -0.292871
     8  C    0.134233
     9  H    0.009061
    10  N   -0.290426
    11  C    0.242403
    12  C    0.125026
    13  N   -0.055268
    14  H    0.110401
    15  H    0.091167
    16  H    0.024940
    17  H    0.034881
    18  H    0.025536
    19  N   -0.311162
    20  C    0.256156
    21  C    0.182304
    22  N   -0.119346
    23  H    0.117327
    24  H    0.117823
    25  N   -0.299198
    26  C    0.221832
    27  N   -0.126885
    28  H    0.119208
    29  C    0.168555
    30  O   -0.320528
    31  C   -0.011970
    32  N   -0.218484
    33  C    0.129734
    34  H    0.031246
    35  H    0.029859
    36  H    0.027443
    37  H    0.025432
    38  H    0.063281
    39  H    0.060635
    40  H    0.076662
    41  H    0.033791
    42  C   -0.107831
    43  O   -0.269308
    44  C    0.154460
    45  H    0.134405
    46  N   -0.126611
    47  O   -0.347006
    48  C    0.355300
    49  H    0.051015
    50  C    0.170889
    51  C    0.042904
    52  N   -0.296388
    53  H    0.030479
    54  H    0.045015
    55  H    0.011581
    56  H    0.128463
    57  H    0.110314
    58  N   -0.063781
    59  C    0.092539
    60  C    0.237861
    61  N   -0.261184
    62  H    0.045394
    63  C    0.158329
    64  N   -0.296083
    65  H    0.027855
    66  C    0.124999
    67  N   -0.267271
    68  C    0.025495
    69  C    0.182281
    70  N   -0.306012
 Sum of Mulliken charges =  -0.00000

 Dipole moment (field-independent basis, Debye):
    X=              9.6036    Y=              4.6272    Z=              1.2516  Tot=             10.7335
 Quadrupole moment (field-independent basis, Debye-Ang):
   XX=           -153.8299   YY=           -209.6157   ZZ=           -248.7041
   XY=             -3.8287   XZ=             11.2620   YZ=             -6.4549

 Normal termination of Gaussian 16 at Sat Jan 27 03:14:06 2018.
