 Gaussian 16, Revision A.03,
 Gaussian 16:  EM64L-G16RevA.03 25-Dec-2016

 ---------------------------------------
 #p wb97xd/cc-pvdz sp scf=(maxcycles=20)
 ---------------------------------------

 ------------------
 Base pair stacking
 ------------------
 Symbolic Z-matrix:
 Charge =  0 Multiplicity = 1

                         Standard orientation:
 ---------------------------------------------------------------------
 Center     Atomic      Atomic             Coordinates (Angstroms)
 Number     Number       Type             X           Y           Z
 ---------------------------------------------------------------------
      1          7           0       -6.705633   -1.627686    0.399471
      2          6           0       -8.098424   -1.179773    0.205807
      3          6           0       -4.534942   -1.666564    0.751476
      4          7           0       -4.925173   -2.987708    0.587136
      5          6           0       -6.217320   -2.911418    0.381646
      6          1           0       -6.869429   -3.768246    0.209817
      7          7           0       -3.240668    0.272202    1.110631
      8          6           0       -4.377402    0.963331    0.977340
      9          1           0       -4.279066    2.043577    1.075614
     10          7           0       -5.611566    0.522477    0.741991
     11          6           0       -5.621512   -0.816784    0.638452
     12          6           0       -3.283940   -1.073610    1.001157
     13          7           0       -2.150284   -1.765257    1.133907
     14          1           0       -2.135354   -2.763052    1.060423
     15          1           0       -1.277741   -1.309890    1.311236
     16          1           0       -8.681794   -1.587163    0.908576
     17          1           0       -8.141556   -0.183513    0.274556
     18          1           0       -8.419637   -1.464073   -0.697513
     19          7           0       -1.976710    3.185871   -1.797622
     20          6           0       -0.745588    2.622599   -1.562839
     21          6           0       -2.290299    4.625330   -1.696041
     22          7           0        2.599611    2.959613   -0.692339
     23          1           0        3.393476    2.364619   -0.569804
     24          1           0        2.737550    3.938057   -0.536328
     25          7           0        0.375448    3.284183   -1.202794
     26          6           0        1.403425    2.468417   -1.049765
     27          7           0        1.340470    1.108504   -1.234707
     28          1           0        2.176984    0.562783   -1.095479
     29          6           0        0.197707    0.406558   -1.605150
     30          8           0        0.247931   -0.821644   -1.745651
     31          6           0       -0.914918    1.269516   -1.773268
     32          7           0       -2.225959    0.988957   -2.132921
     33          6           0       -2.817086    2.152902   -2.134388
     34          1           0       -3.868392    2.315139   -2.374576
     35          1           0       -3.001404    4.765506   -1.007934
     36          1           0       -1.467378    5.125589   -1.429926
     37          1           0       -2.611880    4.961342   -2.580628
     38          1           0        6.510042   -1.654312    0.374826
     39          1           0        6.829355   -1.704216   -1.357280
     40          1           0        5.876582   -0.386013   -0.674689
     41          1           0        3.780006   -5.399350   -0.916748
     42          6           0        3.756563   -4.310128   -0.952456
     43          8           0        1.427273   -4.190924   -1.385275
     44          6           0        2.514424   -3.644298   -1.200615
     45          1           0        1.738379   -1.760913   -1.397935
     46          7           0        2.595811   -2.266608   -1.225307
     47          8           0        3.691950   -0.283018   -1.080389
     48          6           0        3.719370   -1.500512   -1.040254
     49          1           0        5.838780   -4.048242   -0.576151
     50          6           0        4.869367   -3.590230   -0.768050
     51          6           0        6.104106   -1.439166   -0.602408
     52          7           0        4.877690   -2.215146   -0.806134
     53          1           0        3.314170    4.424547    2.683646
     54          1           0        2.219919    4.278538    1.482228
     55          1           0        3.815561    4.262274    1.139073
     56          1           0        1.321859   -2.682631    1.919309
     57          1           0        2.894689   -2.208810    2.379527
     58          7           0        1.984530   -1.946405    2.057083
     59          6           0        1.669535   -0.671070    1.821582
     60          6           0        2.091555    1.668163    1.713680
     61          7           0        0.861488    1.991174    1.281203
     62          1           0       -0.907149    1.071968    0.804114
     63          6           0        0.110424    0.899339    1.151987
     64          7           0        0.424087   -0.378868    1.387344
     65          1           0        5.147156    2.149714    2.653664
     66          6           0        4.178586    1.727788    2.383873
     67          7           0        3.885127    0.451035    2.422312
     68          6           0        2.564709    0.399375    1.999748
     69          6           0        3.120743    3.989055    1.804481
     70          7           0        3.139521    2.522023    1.964021
 ---------------------------------------------------------------------

 SCF Done:  E(RwB97XD) =  -2048.71296251     A.U. after   15 cycles

 The electronic state is 1-A.
 Alpha  occ. eigenvalues --  -19.26023 -19.22192 -19.20711 -14.52629 -14.51799
 Alpha  occ. eigenvalues --  -14.48855 -14.48708 -14.48028 -14.47612 -14.46851
 Alpha  occ. eigenvalues --  -14.46701 -14.44795 -14.43365 -14.42880 -14.42204
 Alpha  occ. eigenvalues --  -14.41947 -14.41404 -14.40860 -14.40807 -14.40062
 Alpha  occ. eigenvalues --  -10.45653 -10.41381 -10.40302 -10.39172 -10.38295
 Alpha  occ. eigenvalues --  -10.38024 -10.37431 -10.36249 -10.35360 -10.35309
 Alpha  occ. eigenvalues --  -10.34641 -10.34436 -10.34061 -10.33839 -10.33324
 Alpha  occ. eigenvalues --  -10.33301 -10.33003 -10.31942 -10.31331 -10.31013
 Alpha  occ. eigenvalues --  -10.30866 -10.28490 -10.28237  -1.19603  -1.14682
 Alpha  occ. eigenvalues --   -1.13344  -1.13207  -1.11296  -1.10686  -1.09513
 Alpha  occ. eigenvalues --   -1.08891  -1.08454  -1.04902  -1.04018  -1.02674
 Alpha  occ. eigenvalues --   -1.00883  -1.00385  -0.99776  -0.98583  -0.96932
 Alpha  occ. eigenvalues --   -0.96653  -0.96030  -0.92556  -0.91257  -0.87085
 Alpha  occ. eigenvalues --   -0.85625  -0.84253  -0.83875  -0.83774  -0.82649
 Alpha  occ. eigenvalues --   -0.82254  -0.79077  -0.76395  -0.74800  -0.74033
 Alpha  occ. eigenvalues --   -0.73989  -0.73529  -0.72855  -0.70992  -0.69836
 Alpha  occ. eigenvalues --   -0.67656  -0.66733  -0.66266  -0.66200  -0.64617
 Alpha  occ. eigenvalues --   -0.63933  -0.63727  -0.62851  -0.62650  -0.62476
 Alpha  occ. eigenvalues --   -0.60250  -0.60021  -0.59885  -0.59685  -0.59490
 Alpha  occ. eigenvalues --   -0.59170  -0.58807  -0.56982  -0.56489  -0.56302
 Alpha  occ. eigenvalues --   -0.56098  -0.55479  -0.55391  -0.54683  -0.54481
 Alpha  occ. eigenvalues --   -0.53796  -0.53548  -0.53228  -0.53060  -0.52568
 Alpha  occ. eigenvalues --   -0.52502  -0.52051  -0.51689  -0.50647  -0.50272
 Alpha  occ. eigenvalues --   -0.50131  -0.49574  -0.49337  -0.48946  -0.48753
 Alpha  occ. eigenvalues --   -0.48715  -0.48487  -0.48319  -0.48031  -0.47497
 Alpha  occ. eigenvalues --   -0.46881  -0.45761  -0.45016  -0.44192  -0.42976
 Alpha  occ. eigenvalues --   -0.41096  -0.39827  -0.39536  -0.38112  -0.37312
 Alpha  occ. eigenvalues --   -0.37109  -0.36907  -0.36606  -0.35695  -0.34431
 Alpha  occ. eigenvalues --   -0.33792  -0.33550  -0.33405  -0.33337  -0.33222
 Alpha  occ. eigenvalues --   -0.32739  -0.32389  -0.32155  -0.31896  -0.30780
 Alpha  occ. eigenvalues --   -0.30286  -0.29138  -0.25751  -0.25334
 Alpha virt. eigenvalues --    0.02861   0.04359   0.07584   0.08010   0.08270
 Alpha virt. eigenvalues --    0.09332   0.09500   0.10875   0.11380   0.12119
 Alpha virt. eigenvalues --    0.12812   0.13966   0.14073   0.14631   0.14984

 Mulliken charges:
               1
     1  N   -0.311487
     2  C    0.181275
     3  C    0.031777
     4  N   -0.259839
     5  C    0.134140
     6  H    0.026381
     7  N   -0.292894
     8  C    0.140140
     9  H    0.005937
    10  N   -0.290519
    11  C    0.246647
    12  C    0.126882
    13  N   -0.058641
    14  H    0.108760
    15  H    0.088232
    16  H    0.024774
    17  H    0.034531
    18  H    0.026587
    19  N   -0.312860
    20  C    0.235513
    21  C    0.182104
    22  N   -0.097217
    23  H    0.117615
    24  H    0.111353
    25  N   -0.277235
    26  C    0.187124
    27  N   -0.106732
    28  H    0.113704
    29  C    0.139534
    30  O   -0.314295
    31  C    0.007635
    32  N   -0.219434
    33  C    0.126839
    34  H    0.030230
    35  H    0.028303
    36  H    0.027113
    37  H    0.025052
    38  H    0.061941
    39  H    0.058761
    40  H    0.075982
    41  H    0.032538
    42  C   -0.112577
    43  O   -0.264026
    44  C    0.169795
    45  H    0.134367
    46  N   -0.134446
    47  O   -0.345794
    48  C    0.356928
    49  H    0.048606
    50  C    0.167864
    51  C    0.044047
    52  N   -0.296320
    53  H    0.034628
    54  H    0.047030
    55  H    0.010701
    56  H    0.124938
    57  H    0.114108
    58  N   -0.070342
    59  C    0.091582
    60  C    0.206047
    61  N   -0.252942
    62  H    0.064543
    63  C    0.154406
    64  N   -0.297572
    65  H    0.031486
    66  C    0.125573
    67  N   -0.265368
    68  C    0.047022
    69  C    0.171169
    70  N   -0.301704
 Sum of Mulliken charges =  -0.00000

 Dipole moment (field-independent basis, Debye):
    X=              8.9090    Y=              4.6204    Z=              2.7308  Tot=             10.4008
 Quadrupole moment (field-independent basis, Debye-Ang):
   XX=           -157.1437   YY=           -210.8656   ZZ=           -252.6911
   XY=             -4.1735   XZ=              8.6434   YZ=             -9.8212

 Normal termination of Gaussian 16 at Sat Jan 27 10:28:08 2018.
