 Gaussian 16, Revision A.03,
 Gaussian 16:  EM64L-G16RevA.03 25-Dec-2016

 ---------------------------------------
 #p wb97xd/cc-pvdz sp scf=(maxcycles=20)
 ---------------------------------------

 ------------------
 Base pair stacking
 ------------------
 Symbolic Z-matrix:
 Charge =  0 Multiplicity = 1

                         Standard orientation:
 ---------------------------------------------------------------------
 Center     Atomic      Atomic             Coordinates (Angstroms)
 Number     Number       Type             X           Y           Z
 ---------------------------------------------------------------------
      1          7           0       -5.964884   -1.779433    0.944505
      2          6           0       -7.372900   -1.341025    1.001848
      3          6           0       -3.768041   -1.827586    1.038686
      4          7           0       -4.167853   -3.098526    0.651942
      5          6           0       -5.475371   -3.018655    0.610673
      6          1           0       -6.138532   -3.840954    0.340539
      7          7           0       -2.450960    0.033953    1.641149
      8          6           0       -3.598930    0.705418    1.778599
      9          1           0       -3.495431    1.745704    2.084158
     10          7           0       -4.849662    0.286748    1.596141
     11          6           0       -4.864644   -1.003514    1.222744
     12          6           0       -2.499703   -1.262469    1.264316
     13          7           0       -1.354857   -1.934416    1.126564
     14          1           0       -1.343413   -2.895825    0.849455
     15          1           0       -0.470074   -1.499991    1.295569
     16          1           0       -7.870237   -1.898610    1.666637
     17          1           0       -7.412898   -0.380967    1.277172
     18          1           0       -7.793649   -1.445404    0.100697
     19          7           0       -2.783515    3.453405   -1.632006
     20          6           0       -1.540258    2.872544   -1.561490
     21          6           0       -3.058046    4.899570   -1.513945
     22          7           0        1.898631    3.164933   -1.173887
     23          1           0        2.692779    2.558197   -1.152741
     24          1           0        2.071799    4.143192   -1.056663
     25          7           0       -0.369985    3.520108   -1.374010
     26          6           0        0.656882    2.689053   -1.351400
     27          7           0        0.548143    1.327664   -1.500763
     28          1           0        1.387603    0.769698   -1.469957
     29          6           0       -0.645697    0.639956   -1.694770
     30          8           0       -0.634176   -0.591031   -1.818390
     31          6           0       -1.757776    1.519414   -1.721345
     32          7           0       -3.110365    1.256089   -1.888839
     33          6           0       -3.678258    2.430024   -1.828912
     34          1           0       -4.750305    2.606727   -1.922583
     35          1           0       -3.663478    5.063156   -0.735806
     36          1           0       -2.198512    5.389560   -1.374780
     37          1           0       -3.495367    5.226924   -2.350842
     38          1           0        5.850108   -1.498939   -0.579971
     39          1           0        5.922650   -1.582172   -2.338506
     40          1           0        5.094949   -0.236746   -1.553603
     41          1           0        2.909876   -5.215906   -1.408082
     42          6           0        2.898065   -4.127151   -1.460095
     43          8           0        0.533166   -3.974206   -1.564901
     44          6           0        1.643573   -3.443778   -1.544199
     45          1           0        0.875980   -1.550522   -1.665473
     46          7           0        1.741435   -2.068296   -1.605264
     47          8           0        2.876826   -0.102097   -1.651476
     48          6           0        2.891255   -1.319083   -1.593280
     49          1           0        5.016167   -3.895703   -1.383672
     50          6           0        4.036446   -3.423952   -1.446417
     51          6           0        5.314469   -1.292417   -1.494575
     52          7           0        4.060060   -2.050009   -1.510471
     53          1           0        4.219670    3.964739    3.294587
     54          1           0        2.996233    4.034309    2.217334
     55          1           0        4.542360    4.132886    1.703664
     56          1           0        2.188775   -2.893594    1.318650
     57          1           0        3.801449   -2.478658    1.689061
     58          7           0        2.859146   -2.182144    1.529829
     59          6           0        2.512947   -0.894944    1.596372
     60          6           0        2.908178    1.428606    1.922969
     61          7           0        1.635204    1.797708    1.704510
     62          1           0       -0.171685    0.944699    1.248292
     63          6           0        0.879781    0.733939    1.438728
     64          7           0        1.224647   -0.556080    1.371610
     65          1           0        6.048624    1.795737    2.597496
     66          6           0        5.057725    1.410061    2.356025
     67          7           0        4.776965    0.144237    2.164862
     68          6           0        3.417232    0.142036    1.889440
     69          6           0        3.929381    3.711082    2.371876
     70          7           0        3.973590    2.243256    2.225041
 ---------------------------------------------------------------------

 SCF Done:  E(RwB97XD) =  -2048.74364251     A.U. after   15 cycles

 The electronic state is 1-A.
 Alpha  occ. eigenvalues --  -19.26090 -19.22397 -19.20706 -14.52693 -14.52099
 Alpha  occ. eigenvalues --  -14.48868 -14.48190 -14.48094 -14.48082 -14.47047
 Alpha  occ. eigenvalues --  -14.46847 -14.45134 -14.43928 -14.43826 -14.42142
 Alpha  occ. eigenvalues --  -14.41666 -14.40880 -14.40738 -14.40210 -14.39596
 Alpha  occ. eigenvalues --  -10.45718 -10.41330 -10.40485 -10.39632 -10.38303
 Alpha  occ. eigenvalues --  -10.38234 -10.37659 -10.36773 -10.35280 -10.35269
 Alpha  occ. eigenvalues --  -10.34800 -10.34427 -10.33674 -10.33429 -10.33333
 Alpha  occ. eigenvalues --  -10.32675 -10.32438 -10.32296 -10.31557 -10.31032
 Alpha  occ. eigenvalues --  -10.30389 -10.28181 -10.27850  -1.19665  -1.14820
 Alpha  occ. eigenvalues --   -1.13388  -1.13307  -1.10671  -1.10665  -1.09605
 Alpha  occ. eigenvalues --   -1.08991  -1.08660  -1.04555  -1.04342  -1.02747
 Alpha  occ. eigenvalues --   -1.00662  -0.99896  -0.99794  -0.98646  -0.96671
 Alpha  occ. eigenvalues --   -0.96543  -0.96250  -0.92015  -0.91438  -0.87257
 Alpha  occ. eigenvalues --   -0.85608  -0.84201  -0.83798  -0.83287  -0.82604
 Alpha  occ. eigenvalues --   -0.81696  -0.79210  -0.76718  -0.74731  -0.74439
 Alpha  occ. eigenvalues --   -0.73797  -0.73605  -0.72286  -0.70414  -0.70126
 Alpha  occ. eigenvalues --   -0.67507  -0.66797  -0.66550  -0.65690  -0.64675
 Alpha  occ. eigenvalues --   -0.64000  -0.63932  -0.62817  -0.62086  -0.61866
 Alpha  occ. eigenvalues --   -0.60309  -0.60052  -0.59955  -0.59781  -0.59358
 Alpha  occ. eigenvalues --   -0.59081  -0.58529  -0.56739  -0.56175  -0.56006
 Alpha  occ. eigenvalues --   -0.55754  -0.55053  -0.54799  -0.54660  -0.54482
 Alpha  occ. eigenvalues --   -0.53812  -0.53674  -0.53319  -0.53115  -0.53100
 Alpha  occ. eigenvalues --   -0.52597  -0.52441  -0.51181  -0.50311  -0.50074
 Alpha  occ. eigenvalues --   -0.49676  -0.49642  -0.49388  -0.49049  -0.49023
 Alpha  occ. eigenvalues --   -0.48432  -0.48352  -0.48254  -0.47868  -0.47493
 Alpha  occ. eigenvalues --   -0.46313  -0.45729  -0.44738  -0.44363  -0.44207
 Alpha  occ. eigenvalues --   -0.40471  -0.40309  -0.39631  -0.37601  -0.37376
 Alpha  occ. eigenvalues --   -0.37358  -0.37116  -0.36490  -0.36070  -0.34748
 Alpha  occ. eigenvalues --   -0.34075  -0.33714  -0.33475  -0.32933  -0.32838
 Alpha  occ. eigenvalues --   -0.32702  -0.32434  -0.32323  -0.31908  -0.30251
 Alpha  occ. eigenvalues --   -0.29818  -0.29697  -0.25690  -0.24975
 Alpha virt. eigenvalues --    0.02541   0.04382   0.07546   0.08080   0.08664
 Alpha virt. eigenvalues --    0.09149   0.09607   0.10908   0.11412   0.11733
 Alpha virt. eigenvalues --    0.12243   0.14035   0.14413   0.14964   0.15011

 Mulliken charges:
               1
     1  N   -0.312304
     2  C    0.181700
     3  C    0.038650
     4  N   -0.257845
     5  C    0.134178
     6  H    0.024517
     7  N   -0.298302
     8  C    0.143272
     9  H    0.006738
    10  N   -0.291941
    11  C    0.252528
    12  C    0.121198
    13  N   -0.058586
    14  H    0.112348
    15  H    0.083233
    16  H    0.023164
    17  H    0.033072
    18  H    0.026085
    19  N   -0.312626
    20  C    0.248037
    21  C    0.181088
    22  N   -0.112483
    23  H    0.115032
    24  H    0.114218
    25  N   -0.307892
    26  C    0.236968
    27  N   -0.142639
    28  H    0.117729
    29  C    0.181193
    30  O   -0.319248
    31  C   -0.003594
    32  N   -0.224656
    33  C    0.129582
    34  H    0.026897
    35  H    0.028457
    36  H    0.028411
    37  H    0.025009
    38  H    0.061340
    39  H    0.059524
    40  H    0.076476
    41  H    0.032814
    42  C   -0.111962
    43  O   -0.261868
    44  C    0.158283
    45  H    0.133800
    46  N   -0.121200
    47  O   -0.344943
    48  C    0.343540
    49  H    0.047913
    50  C    0.157541
    51  C    0.041335
    52  N   -0.282565
    53  H    0.034363
    54  H    0.043578
    55  H    0.024285
    56  H    0.124259
    57  H    0.115440
    58  N   -0.067766
    59  C    0.087063
    60  C    0.233783
    61  N   -0.263135
    62  H    0.041643
    63  C    0.166452
    64  N   -0.305958
    65  H    0.035492
    66  C    0.136873
    67  N   -0.270780
    68  C    0.038953
    69  C    0.177089
    70  N   -0.312851
 Sum of Mulliken charges =  -0.00000

 Dipole moment (field-independent basis, Debye):
    X=              9.7033    Y=              4.8886    Z=              1.0954  Tot=             10.9203
 Quadrupole moment (field-independent basis, Debye-Ang):
   XX=           -164.4034   YY=           -207.6714   ZZ=           -251.2338
   XY=             -7.3289   XZ=             -0.5488   YZ=             -3.8471

 Normal termination of Gaussian 16 at Fri Jan 26 20:27:34 2018.
