 Gaussian 16, Revision A.03,
 Gaussian 16:  EM64L-G16RevA.03 25-Dec-2016

 ---------------------------------------
 #p wb97xd/cc-pvdz sp scf=(maxcycles=20)
 ---------------------------------------

 ------------------
 Base pair stacking
 ------------------
 Symbolic Z-matrix:
 Charge =  0 Multiplicity = 1

                         Standard orientation:
 ---------------------------------------------------------------------
 Center     Atomic      Atomic             Coordinates (Angstroms)
 Number     Number       Type             X           Y           Z
 ---------------------------------------------------------------------
      1          7           0       -7.181304   -1.628265    0.092828
      2          6           0       -8.570068   -1.195873   -0.156904
      3          6           0       -5.023798   -1.642159    0.519746
      4          7           0       -5.397733   -2.969392    0.367011
      5          6           0       -6.682592   -2.907910    0.115917
      6          1           0       -7.321650   -3.773287   -0.062029
      7          7           0       -3.757936    0.313862    0.886553
      8          6           0       -4.894794    0.992715    0.701353
      9          1           0       -4.808397    2.075393    0.782606
     10          7           0       -6.116614    0.537100    0.432143
     11          6           0       -6.112463   -0.803887    0.353546
     12          6           0       -3.786840   -1.034066    0.800991
     13          7           0       -2.653032   -1.713473    0.985545
     14          1           0       -2.627730   -2.712296    0.931409
     15          1           0       -1.790713   -1.247498    1.184103
     16          1           0       -9.174090   -1.595110    0.532990
     17          1           0       -8.623379   -0.198912   -0.108440
     18          1           0       -8.857721   -1.499590   -1.065202
     19          7           0       -1.447085    3.085129   -1.814244
     20          6           0       -0.220396    2.536791   -1.526809
     21          6           0       -1.775276    4.523506   -1.750594
     22          7           0        3.090080    2.918304   -0.548560
     23          1           0        3.883892    2.332453   -0.387692
     24          1           0        3.214871    3.900609   -0.406360
     25          7           0        0.882348    3.214440   -1.141040
     26          6           0        1.910810    2.410418   -0.937516
     27          7           0        1.864949    1.046824   -1.098874
     28          1           0        2.700430    0.510908   -0.920787
     29          6           0        0.741182    0.328445   -1.495034
     30          8           0        0.805867   -0.901680   -1.610592
     31          6           0       -0.371729    1.178648   -1.717419
     32          7           0       -1.667351    0.880337   -2.116500
     33          6           0       -2.267203    2.038989   -2.160148
     34          1           0       -3.310865    2.187794   -2.439263
     35          1           0       -2.510757    4.670365   -1.090049
     36          1           0       -0.965979    5.035589   -1.465871
     37          1           0       -2.068829    4.840316   -2.651851
     38          1           0        6.997550   -1.641641    0.738760
     39          1           0        7.376728   -1.720929   -0.980130
     40          1           0        6.390676   -0.398445   -0.355562
     41          1           0        4.343151   -5.433047   -0.575009
     42          6           0        4.312383   -4.344913   -0.631985
     43          8           0        1.998537   -4.253556   -1.146627
     44          6           0        3.074341   -3.694379   -0.935104
     45          1           0        2.290782   -1.821639   -1.194338
     46          7           0        3.145701   -2.316741   -0.982902
     47          8           0        4.220586   -0.321561   -0.837819
     48          6           0        4.256172   -1.537826   -0.773863
     49          1           0        6.378274   -4.058407   -0.189468
     50          6           0        5.412490   -3.612288   -0.423091
     51          6           0        6.623840   -1.448105   -0.255703
     52          7           0        5.411310   -2.238124   -0.486751
     53          1           0        2.705984    4.550218    2.605069
     54          1           0        1.654960    4.372667    1.369780
     55          1           0        3.261548    4.363608    1.081928
     56          1           0        0.797097   -2.586585    1.906721
     57          1           0        2.349363   -2.090963    2.411624
     58          7           0        1.448822   -1.842325    2.053267
     59          6           0        1.132108   -0.574298    1.783137
     60          6           0        1.539202    1.766035    1.645774
     61          7           0        0.322277    2.070506    1.165355
     62          1           0       -1.421593    1.127624    0.645260
     63          6           0       -0.415296    0.970119    1.031018
     64          7           0       -0.099889   -0.300794    1.301022
     65          1           0        4.556722    2.290883    2.680794
     66          6           0        3.601368    1.855811    2.385925
     67          7           0        3.316800    0.577541    2.438294
     68          6           0        2.012173    0.506836    1.971731
     69          6           0        2.546393    4.096885    1.728137
     70          7           0        2.571188    2.633265    1.915806
 ---------------------------------------------------------------------

 SCF Done:  E(RwB97XD) =  -2048.69844681     A.U. after   15 cycles

 The electronic state is 1-A.
 Alpha  occ. eigenvalues --  -19.26074 -19.22254 -19.21056 -14.52687 -14.51008
 Alpha  occ. eigenvalues --  -14.49135 -14.48964 -14.48159 -14.47302 -14.47125
 Alpha  occ. eigenvalues --  -14.46835 -14.44258 -14.42643 -14.42397 -14.42369
 Alpha  occ. eigenvalues --  -14.42352 -14.41677 -14.41087 -14.41059 -14.40305
 Alpha  occ. eigenvalues --  -10.45726 -10.41607 -10.40371 -10.38686 -10.38445
 Alpha  occ. eigenvalues --  -10.38038 -10.36675 -10.35644 -10.35607 -10.35472
 Alpha  occ. eigenvalues --  -10.34571 -10.34329 -10.34156 -10.33614 -10.33574
 Alpha  occ. eigenvalues --  -10.33251 -10.33082 -10.31339 -10.31171 -10.31150
 Alpha  occ. eigenvalues --  -10.31059 -10.28773 -10.28541  -1.19668  -1.14402
 Alpha  occ. eigenvalues --   -1.13390  -1.13272  -1.11565  -1.10961  -1.09578
 Alpha  occ. eigenvalues --   -1.09235  -1.07805  -1.05160  -1.03417  -1.02777
 Alpha  occ. eigenvalues --   -1.01108  -1.00617  -0.99388  -0.98949  -0.97168
 Alpha  occ. eigenvalues --   -0.96949  -0.95340  -0.92803  -0.91295  -0.86621
 Alpha  occ. eigenvalues --   -0.85021  -0.84485  -0.84126  -0.83896  -0.82874
 Alpha  occ. eigenvalues --   -0.82488  -0.79137  -0.75768  -0.75103  -0.74401
 Alpha  occ. eigenvalues --   -0.73622  -0.73410  -0.73098  -0.71244  -0.69216
 Alpha  occ. eigenvalues --   -0.68017  -0.66831  -0.66495  -0.65611  -0.64764
 Alpha  occ. eigenvalues --   -0.64114  -0.63371  -0.63125  -0.62865  -0.62769
 Alpha  occ. eigenvalues --   -0.60531  -0.60363  -0.59802  -0.59753  -0.59505
 Alpha  occ. eigenvalues --   -0.58893  -0.58401  -0.56867  -0.56654  -0.56531
 Alpha  occ. eigenvalues --   -0.56243  -0.55580  -0.54873  -0.54559  -0.54193
 Alpha  occ. eigenvalues --   -0.53952  -0.53557  -0.53320  -0.52655  -0.52608
 Alpha  occ. eigenvalues --   -0.51872  -0.51786  -0.51473  -0.50897  -0.50502
 Alpha  occ. eigenvalues --   -0.50343  -0.49675  -0.49316  -0.49099  -0.48948
 Alpha  occ. eigenvalues --   -0.48675  -0.48550  -0.48366  -0.47743  -0.47216
 Alpha  occ. eigenvalues --   -0.47134  -0.45433  -0.45288  -0.44259  -0.43089
 Alpha  occ. eigenvalues --   -0.41363  -0.39933  -0.39702  -0.37933  -0.37671
 Alpha  occ. eigenvalues --   -0.37357  -0.36642  -0.36060  -0.35511  -0.35385
 Alpha  occ. eigenvalues --   -0.33744  -0.33678  -0.33465  -0.33093  -0.33021
 Alpha  occ. eigenvalues --   -0.32366  -0.32221  -0.32197  -0.31992  -0.31117
 Alpha  occ. eigenvalues --   -0.30509  -0.28254  -0.25988  -0.25748
 Alpha virt. eigenvalues --    0.02869   0.05185   0.07451   0.07799   0.08216
 Alpha virt. eigenvalues --    0.08913   0.10036   0.10788   0.10985   0.12511
 Alpha virt. eigenvalues --    0.13386   0.13758   0.14232   0.14368   0.14879

 Mulliken charges:
               1
     1  N   -0.310990
     2  C    0.181101
     3  C    0.028345
     4  N   -0.259677
     5  C    0.134184
     6  H    0.027240
     7  N   -0.290812
     8  C    0.134509
     9  H    0.007354
    10  N   -0.288633
    11  C    0.244087
    12  C    0.123675
    13  N   -0.058246
    14  H    0.107890
    15  H    0.088878
    16  H    0.025506
    17  H    0.035449
    18  H    0.026603
    19  N   -0.307776
    20  C    0.257932
    21  C    0.183642
    22  N   -0.089616
    23  H    0.114757
    24  H    0.116685
    25  N   -0.257594
    26  C    0.145896
    27  N   -0.100828
    28  H    0.121639
    29  C    0.163090
    30  O   -0.318186
    31  C   -0.022881
    32  N   -0.212748
    33  C    0.126036
    34  H    0.030925
    35  H    0.030002
    36  H    0.026175
    37  H    0.025369
    38  H    0.061450
    39  H    0.060222
    40  H    0.075754
    41  H    0.032964
    42  C   -0.112132
    43  O   -0.265492
    44  C    0.174715
    45  H    0.134350
    46  N   -0.140286
    47  O   -0.347627
    48  C    0.361217
    49  H    0.048984
    50  C    0.170861
    51  C    0.042892
    52  N   -0.298990
    53  H    0.027823
    54  H    0.047518
    55  H   -0.011267
    56  H    0.122803
    57  H    0.112616
    58  N   -0.067221
    59  C    0.096640
    60  C    0.205896
    61  N   -0.252983
    62  H    0.043830
    63  C    0.163520
    64  N   -0.296205
    65  H    0.025169
    66  C    0.105115
    67  N   -0.257381
    68  C    0.039897
    69  C    0.186439
    70  N   -0.280070
 Sum of Mulliken charges =  -0.00000

 Dipole moment (field-independent basis, Debye):
    X=              8.5955    Y=              4.6462    Z=              2.6240  Tot=             10.1171
 Quadrupole moment (field-independent basis, Debye-Ang):
   XX=           -151.9811   YY=           -211.9669   ZZ=           -251.6812
   XY=             -1.4881   XZ=             13.2087   YZ=            -10.9249

 Normal termination of Gaussian 16 at Sat Jan 27 11:57:30 2018.
