 Gaussian 16, Revision A.03,
 Gaussian 16:  EM64L-G16RevA.03 25-Dec-2016

 ---------------------------------------
 #p wb97xd/cc-pvdz sp scf=(maxcycles=20)
 ---------------------------------------

 ------------------
 Base pair stacking
 ------------------
 Symbolic Z-matrix:
 Charge =  0 Multiplicity = 1

                         Standard orientation:
 ---------------------------------------------------------------------
 Center     Atomic      Atomic             Coordinates (Angstroms)
 Number     Number       Type             X           Y           Z
 ---------------------------------------------------------------------
      1          7           0        5.291571   -1.942668   -1.409226
      2          6           0        6.703663   -1.519695   -1.480577
      3          6           0        3.092252   -1.947429   -1.391793
      4          7           0        3.484685   -3.265082   -1.205990
      5          6           0        4.793988   -3.209470   -1.223927
      6          1           0        5.452781   -4.070255   -1.105614
      7          7           0        1.785265   -0.002556   -1.660499
      8          6           0        2.938476    0.665839   -1.765037
      9          1           0        2.841244    1.739792   -1.918178
     10          7           0        4.187886    0.208951   -1.709098
     11          6           0        4.194993   -1.120742   -1.518630
     12          6           0        1.826120   -1.339291   -1.469281
     13          7           0        0.676026   -2.008258   -1.364676
     14          1           0        0.658689   -2.998584   -1.222659
     15          1           0       -0.206979   -1.542586   -1.424672
     16          1           0        7.154744   -1.986244   -2.241528
     17          1           0        6.749583   -0.531333   -1.622541
     18          1           0        7.167525   -1.753917   -0.626197
     19          7           0        3.556926    3.363579    1.235611
     20          6           0        2.295569    2.818695    1.247402
     21          6           0        3.870563    4.784943    0.986505
     22          7           0       -1.142822    3.186345    0.924802
     23          1           0       -1.954806    2.605608    0.976419
     24          1           0       -1.290300    4.156069    0.728323
     25          7           0        1.140055    3.484868    1.035104
     26          6           0        0.088881    2.688031    1.110547
     27          7           0        0.161583    1.341550    1.373672
     28          1           0       -0.694510    0.810009    1.412630
     29          6           0        1.339643    0.635212    1.595313
     30          8           0        1.295302   -0.579768    1.824668
     31          6           0        2.477494    1.477888    1.517453
     32          7           0        3.825931    1.186859    1.672084
     33          6           0        4.426299    2.332728    1.496744
     34          1           0        5.505317    2.482563    1.547214
     35          1           0        4.458214    4.862266    0.181833
     36          1           0        3.022255    5.288419    0.827886
     37          1           0        4.340938    5.168343    1.780575
     38          1           0       -5.245495   -1.382987    0.836433
     39          1           0       -5.270512   -1.313694    2.596902
     40          1           0       -4.426072   -0.067096    1.678055
     41          1           0       -2.393937   -5.107583    1.905320
     42          6           0       -2.348514   -4.019289    1.863125
     43          8           0        0.021882   -3.933344    1.893416
     44          6           0       -1.072518   -3.371521    1.855759
     45          1           0       -0.246250   -1.500220    1.793840
     46          7           0       -1.127967   -1.993420    1.800732
     47          8           0       -2.203059    0.004711    1.706814
     48          6           0       -2.255044   -1.211730    1.753952
     49          1           0       -4.460190   -3.727870    1.821665
     50          6           0       -3.465575   -3.283922    1.818317
     51          6           0       -4.678245   -1.116433    1.715780
     52          7           0       -3.446795   -1.909468    1.764486
     53          1           0       -4.877600    4.209974   -2.397438
     54          1           0       -3.599672    4.112647   -1.387716
     55          1           0       -5.115228    4.159914   -0.783604
     56          1           0       -2.892005   -2.883245   -1.497907
     57          1           0       -4.512463   -2.399038   -1.720946
     58          7           0       -3.557292   -2.140340   -1.572829
     59          6           0       -3.188197   -0.861181   -1.479510
     60          6           0       -3.551046    1.490349   -1.460821
     61          7           0       -2.261183    1.808214   -1.261759
     62          1           0       -0.451555    0.875666   -1.024675
     63          6           0       -1.515526    0.707690   -1.185990
     64          7           0       -1.883327   -0.574340   -1.279208
     65          1           0       -6.713450    1.990206   -1.909711
     66          6           0       -5.719784    1.561320   -1.776974
     67          7           0       -5.456086    0.277524   -1.777554
     68          6           0       -4.084426    0.218626   -1.578020
     69          6           0       -4.546015    3.826704   -1.535374
     70          7           0       -4.613254    2.353450   -1.590320
 ---------------------------------------------------------------------

 SCF Done:  E(RwB97XD) =  -2048.74172014     A.U. after   15 cycles

 The electronic state is 1-A.
 Alpha  occ. eigenvalues --  -19.25484 -19.21721 -19.20368 -14.52630 -14.52230
 Alpha  occ. eigenvalues --  -14.48834 -14.48642 -14.48132 -14.47534 -14.46619
 Alpha  occ. eigenvalues --  -14.45944 -14.45574 -14.44624 -14.44520 -14.42374
 Alpha  occ. eigenvalues --  -14.41719 -14.40822 -14.40661 -14.40398 -14.39985
 Alpha  occ. eigenvalues --  -10.45183 -10.40857 -10.40287 -10.39853 -10.38147
 Alpha  occ. eigenvalues --  -10.37992 -10.37766 -10.37406 -10.35942 -10.35206
 Alpha  occ. eigenvalues --  -10.34913 -10.34198 -10.34132 -10.33525 -10.33117
 Alpha  occ. eigenvalues --  -10.32903 -10.32808 -10.32635 -10.31085 -10.30876
 Alpha  occ. eigenvalues --  -10.30313 -10.28045 -10.27856  -1.19134  -1.15373
 Alpha  occ. eigenvalues --   -1.12946  -1.12729  -1.10743  -1.10400  -1.09639
 Alpha  occ. eigenvalues --   -1.09108  -1.08233  -1.05230  -1.04690  -1.02185
 Alpha  occ. eigenvalues --   -1.01192  -1.00176  -0.99290  -0.98308  -0.97184
 Alpha  occ. eigenvalues --   -0.96441  -0.96411  -0.92378  -0.90958  -0.87848
 Alpha  occ. eigenvalues --   -0.86162  -0.83900  -0.83385  -0.83375  -0.82359
 Alpha  occ. eigenvalues --   -0.81788  -0.78721  -0.77303  -0.75156  -0.74381
 Alpha  occ. eigenvalues --   -0.73316  -0.73084  -0.72552  -0.70766  -0.70583
 Alpha  occ. eigenvalues --   -0.67211  -0.67024  -0.66309  -0.65959  -0.64600
 Alpha  occ. eigenvalues --   -0.64257  -0.63592  -0.62501  -0.62389  -0.61403
 Alpha  occ. eigenvalues --   -0.60840  -0.60439  -0.60139  -0.59537  -0.59433
 Alpha  occ. eigenvalues --   -0.59326  -0.57962  -0.56607  -0.56239  -0.55774
 Alpha  occ. eigenvalues --   -0.55708  -0.55591  -0.55245  -0.54611  -0.54155
 Alpha  occ. eigenvalues --   -0.54053  -0.53472  -0.53426  -0.53117  -0.52846
 Alpha  occ. eigenvalues --   -0.52706  -0.52185  -0.51263  -0.50249  -0.50082
 Alpha  occ. eigenvalues --   -0.49918  -0.49727  -0.49621  -0.49159  -0.48603
 Alpha  occ. eigenvalues --   -0.48576  -0.48107  -0.47863  -0.47446  -0.47111
 Alpha  occ. eigenvalues --   -0.46439  -0.45684  -0.45312  -0.44254  -0.43776
 Alpha  occ. eigenvalues --   -0.41044  -0.40758  -0.39154  -0.38022  -0.37866
 Alpha  occ. eigenvalues --   -0.37047  -0.37015  -0.36610  -0.35503  -0.35060
 Alpha  occ. eigenvalues --   -0.34730  -0.33273  -0.33103  -0.32997  -0.32831
 Alpha  occ. eigenvalues --   -0.32435  -0.32226  -0.31819  -0.31655  -0.30488
 Alpha  occ. eigenvalues --   -0.30364  -0.30032  -0.25454  -0.25088
 Alpha virt. eigenvalues --    0.02799   0.04113   0.06554   0.08422   0.08816
 Alpha virt. eigenvalues --    0.09403   0.10019   0.10430   0.11212   0.11457
 Alpha virt. eigenvalues --    0.12474   0.14106   0.14722   0.14917   0.15057

 Mulliken charges:
               1
     1  N   -0.313410
     2  C    0.182859
     3  C    0.045442
     4  N   -0.260005
     5  C    0.138018
     6  H    0.025660
     7  N   -0.299756
     8  C    0.141148
     9  H    0.010326
    10  N   -0.283621
    11  C    0.261274
    12  C    0.113019
    13  N   -0.066516
    14  H    0.109867
    15  H    0.079928
    16  H    0.021968
    17  H    0.033104
    18  H    0.028656
    19  N   -0.311421
    20  C    0.246328
    21  C    0.180749
    22  N   -0.089234
    23  H    0.110030
    24  H    0.112106
    25  N   -0.308565
    26  C    0.222342
    27  N   -0.148012
    28  H    0.122568
    29  C    0.192675
    30  O   -0.323424
    31  C   -0.017558
    32  N   -0.223115
    33  C    0.128955
    34  H    0.022606
    35  H    0.027732
    36  H    0.028368
    37  H    0.024329
    38  H    0.051592
    39  H    0.060969
    40  H    0.075962
    41  H    0.030897
    42  C   -0.114803
    43  O   -0.259580
    44  C    0.174475
    45  H    0.133131
    46  N   -0.127480
    47  O   -0.344561
    48  C    0.345560
    49  H    0.044307
    50  C    0.159742
    51  C    0.041134
    52  N   -0.282382
    53  H    0.036548
    54  H    0.036151
    55  H    0.030245
    56  H    0.117912
    57  H    0.117631
    58  N   -0.061808
    59  C    0.087261
    60  C    0.247711
    61  N   -0.277106
    62  H    0.048432
    63  C    0.162430
    64  N   -0.307732
    65  H    0.038985
    66  C    0.139973
    67  N   -0.264521
    68  C    0.030002
    69  C    0.178136
    70  N   -0.314635
 Sum of Mulliken charges =  -0.00000

 Dipole moment (field-independent basis, Debye):
    X=             -9.4960    Y=              4.9834    Z=             -1.6950  Tot=             10.8574
 Quadrupole moment (field-independent basis, Debye-Ang):
   XX=           -168.8354   YY=           -207.9375   ZZ=           -253.3316
   XY=              7.4410   XZ=             -9.2864   YZ=              5.4250

 Normal termination of Gaussian 16 at Sat Jan 27 09:54:33 2018.
