 Gaussian 16, Revision A.03,
 Gaussian 16:  EM64L-G16RevA.03 25-Dec-2016

 ---------------------------------------
 #p wb97xd/cc-pvdz sp scf=(maxcycles=20)
 ---------------------------------------

 ------------------
 Base pair stacking
 ------------------
 Symbolic Z-matrix:
 Charge =  0 Multiplicity = 1

                         Standard orientation:
 ---------------------------------------------------------------------
 Center     Atomic      Atomic             Coordinates (Angstroms)
 Number     Number       Type             X           Y           Z
 ---------------------------------------------------------------------
      1          7           0       -6.191476   -1.689780    0.783895
      2          6           0       -7.591806   -1.236111    0.677773
      3          6           0       -4.004940   -1.739126    1.016157
      4          7           0       -4.406272   -3.055375    0.839716
      5          6           0       -5.707511   -2.972976    0.706853
      6          1           0       -6.369786   -3.824687    0.549005
      7          7           0       -2.689030    0.188948    1.353591
      8          6           0       -3.829884    0.884035    1.299992
      9          1           0       -3.724117    1.961353    1.420235
     10          7           0       -5.075931    0.450174    1.120990
     11          6           0       -5.094273   -0.885991    0.984097
     12          6           0       -2.740984   -1.153600    1.212408
     13          7           0       -1.603225   -1.849190    1.265624
     14          1           0       -1.594374   -2.844794    1.166061
     15          1           0       -0.721386   -1.399099    1.406746
     16          1           0       -8.136940   -1.660910    1.400644
     17          1           0       -7.629067   -0.241902    0.774105
     18          1           0       -7.962255   -1.497034   -0.213675
     19          7           0       -2.563584    3.290624   -1.669023
     20          6           0       -1.322698    2.720697   -1.515997
     21          6           0       -2.868195    4.727237   -1.513927
     22          7           0        2.065591    3.033074   -0.820516
     23          1           0        2.863698    2.434601   -0.756549
     24          1           0        2.213842    4.007121   -0.647395
     25          7           0       -0.182359    3.372101   -1.200769
     26          6           0        0.850723    2.551987   -1.124721
     27          7           0        0.774971    1.197283   -1.340514
     28          1           0        1.616683    0.647611   -1.260949
     29          6           0       -0.387699    0.505811   -1.665984
     30          8           0       -0.347738   -0.718438   -1.840231
     31          6           0       -1.506019    1.373543   -1.751276
     32          7           0       -2.835255    1.103160   -2.046090
     33          6           0       -3.423169    2.267170   -1.985758
     34          1           0       -4.485655    2.436209   -2.164168
     35          1           0       -3.540545    4.850288   -0.784803
     36          1           0       -2.030993    5.219973   -1.280339
     37          1           0       -3.236717    5.085945   -2.370856
     38          1           0        6.018683   -1.609281   -0.085520
     39          1           0        6.243218   -1.615163   -1.833146
     40          1           0        5.331714   -0.314162   -1.066395
     41          1           0        3.214686   -5.318243   -1.321554
     42          6           0        3.191585   -4.228449   -1.328186
     43          8           0        0.842470   -4.096632   -1.630449
     44          6           0        1.939176   -3.555644   -1.491366
     45          1           0        1.157459   -1.667302   -1.598156
     46          7           0        2.021957   -2.177830   -1.485360
     47          8           0        3.128479   -0.199342   -1.349852
     48          6           0        3.155514   -1.417483   -1.342276
     49          1           0        5.291723   -3.977687   -1.059198
     50          6           0        4.314272   -3.514259   -1.186338
     51          6           0        5.560644   -1.368974   -1.033426
     52          7           0        4.323358   -2.138655   -1.189812
     53          1           0        3.950253    4.295270    2.672790
     54          1           0        2.791998    4.180734    1.529370
     55          1           0        4.366572    4.172141    1.099592
     56          1           0        1.904589   -2.788706    1.837320
     57          1           0        3.501100   -2.327870    2.223173
     58          7           0        2.575300   -2.056692    1.957519
     59          6           0        2.250600   -0.775544    1.772056
     60          6           0        2.670985    1.565392    1.700926
     61          7           0        1.419891    1.900185    1.344396
     62          1           0       -0.373968    0.994674    0.941011
     63          6           0        0.660647    0.812521    1.228488
     64          7           0        0.983991   -0.471493    1.413813
     65          1           0        5.774171    2.020685    2.485210
     66          6           0        4.791490    1.606451    2.257871
     67          7           0        4.497906    0.329334    2.279706
     68          6           0        3.156358    0.289388    1.928441
     69          6           0        3.708410    3.882499    1.794654
     70          7           0        3.732791    2.411859    1.915538
 ---------------------------------------------------------------------

 SCF Done:  E(RwB97XD) =  -2048.72290311     A.U. after   15 cycles

 The electronic state is 1-A.
 Alpha  occ. eigenvalues --  -19.25982 -19.22073 -19.20719 -14.52526 -14.52268
 Alpha  occ. eigenvalues --  -14.48852 -14.48411 -14.48086 -14.47921 -14.46917
 Alpha  occ. eigenvalues --  -14.46426 -14.45172 -14.43730 -14.43262 -14.42133
 Alpha  occ. eigenvalues --  -14.42062 -14.41096 -14.40831 -14.40510 -14.39846
 Alpha  occ. eigenvalues --  -10.45579 -10.41146 -10.40193 -10.39512 -10.38272
 Alpha  occ. eigenvalues --  -10.37961 -10.37694 -10.36683 -10.35140 -10.35133
 Alpha  occ. eigenvalues --  -10.35127 -10.34421 -10.34120 -10.33767 -10.33296
 Alpha  occ. eigenvalues --  -10.33000 -10.32736 -10.32186 -10.31287 -10.31015
 Alpha  occ. eigenvalues --  -10.30635 -10.28190 -10.28171  -1.19541  -1.14929
 Alpha  occ. eigenvalues --   -1.13343  -1.13099  -1.10992  -1.10669  -1.09425
 Alpha  occ. eigenvalues --   -1.09000  -1.08562  -1.04660  -1.04450  -1.02556
 Alpha  occ. eigenvalues --   -1.00816  -1.00143  -0.99846  -0.98639  -0.96693
 Alpha  occ. eigenvalues --   -0.96651  -0.96335  -0.92322  -0.91182  -0.87347
 Alpha  occ. eigenvalues --   -0.85858  -0.84177  -0.83633  -0.83594  -0.82594
 Alpha  occ. eigenvalues --   -0.81995  -0.78995  -0.76744  -0.74731  -0.74503
 Alpha  occ. eigenvalues --   -0.73736  -0.73423  -0.72606  -0.70725  -0.70189
 Alpha  occ. eigenvalues --   -0.67483  -0.66635  -0.66554  -0.66023  -0.64536
 Alpha  occ. eigenvalues --   -0.64093  -0.63847  -0.62858  -0.62425  -0.61920
 Alpha  occ. eigenvalues --   -0.60392  -0.60150  -0.59996  -0.59603  -0.59534
 Alpha  occ. eigenvalues --   -0.59241  -0.58494  -0.56926  -0.56282  -0.56073
 Alpha  occ. eigenvalues --   -0.56030  -0.55548  -0.55170  -0.54888  -0.54430
 Alpha  occ. eigenvalues --   -0.53851  -0.53723  -0.53202  -0.53038  -0.52937
 Alpha  occ. eigenvalues --   -0.52443  -0.52371  -0.51457  -0.50388  -0.50239
 Alpha  occ. eigenvalues --   -0.49893  -0.49496  -0.49373  -0.48984  -0.48871
 Alpha  occ. eigenvalues --   -0.48562  -0.48334  -0.48289  -0.48078  -0.47440
 Alpha  occ. eigenvalues --   -0.46594  -0.45910  -0.44736  -0.44055  -0.43876
 Alpha  occ. eigenvalues --   -0.40812  -0.40365  -0.39532  -0.37873  -0.37358
 Alpha  occ. eigenvalues --   -0.37320  -0.36889  -0.36798  -0.35914  -0.34923
 Alpha  occ. eigenvalues --   -0.34113  -0.33277  -0.33243  -0.33222  -0.32701
 Alpha  occ. eigenvalues --   -0.32452  -0.32367  -0.32092  -0.31868  -0.30493
 Alpha  occ. eigenvalues --   -0.30053  -0.29361  -0.25782  -0.25158
 Alpha virt. eigenvalues --    0.02918   0.04419   0.07615   0.08258   0.08357
 Alpha virt. eigenvalues --    0.09108   0.09511   0.10930   0.11498   0.11606
 Alpha virt. eigenvalues --    0.12236   0.13883   0.14296   0.14676   0.15017

 Mulliken charges:
               1
     1  N   -0.312340
     2  C    0.181635
     3  C    0.035976
     4  N   -0.259942
     5  C    0.134460
     6  H    0.025518
     7  N   -0.294367
     8  C    0.146131
     9  H    0.005712
    10  N   -0.291825
    11  C    0.251785
    12  C    0.124137
    13  N   -0.059694
    14  H    0.109083
    15  H    0.084694
    16  H    0.023823
    17  H    0.033419
    18  H    0.026733
    19  N   -0.312850
    20  C    0.244564
    21  C    0.181474
    22  N   -0.090133
    23  H    0.115247
    24  H    0.110456
    25  N   -0.295506
    26  C    0.207989
    27  N   -0.123224
    28  H    0.116404
    29  C    0.158842
    30  O   -0.316759
    31  C    0.011210
    32  N   -0.222796
    33  C    0.126384
    34  H    0.027706
    35  H    0.028179
    36  H    0.027984
    37  H    0.025008
    38  H    0.061354
    39  H    0.058426
    40  H    0.076373
    41  H    0.032146
    42  C   -0.111837
    43  O   -0.261558
    44  C    0.168706
    45  H    0.133511
    46  N   -0.128276
    47  O   -0.346119
    48  C    0.349420
    49  H    0.047699
    50  C    0.163553
    51  C    0.042561
    52  N   -0.290482
    53  H    0.038226
    54  H    0.042609
    55  H    0.024477
    56  H    0.122415
    57  H    0.115141
    58  N   -0.069101
    59  C    0.082592
    60  C    0.210314
    61  N   -0.260688
    62  H    0.042161
    63  C    0.167660
    64  N   -0.302953
    65  H    0.034777
    66  C    0.134289
    67  N   -0.268154
    68  C    0.052700
    69  C    0.163872
    70  N   -0.310936
 Sum of Mulliken charges =  -0.00000

 Dipole moment (field-independent basis, Debye):
    X=              9.1708    Y=              4.7792    Z=              2.2773  Tot=             10.5892
 Quadrupole moment (field-independent basis, Debye-Ang):
   XX=           -162.0699   YY=           -209.3108   ZZ=           -253.7144
   XY=             -6.4584   XZ=              2.3142   YZ=             -8.3699

 Normal termination of Gaussian 16 at Sat Jan 27 08:57:59 2018.
