 Gaussian 16, Revision A.03,
 Gaussian 16:  EM64L-G16RevA.03 25-Dec-2016

 ---------------------------------------
 #p wb97xd/cc-pvdz sp scf=(maxcycles=20)
 ---------------------------------------

 ------------------
 Base pair stacking
 ------------------
 Symbolic Z-matrix:
 Charge =  0 Multiplicity = 1

                         Standard orientation:
 ---------------------------------------------------------------------
 Center     Atomic      Atomic             Coordinates (Angstroms)
 Number     Number       Type             X           Y           Z
 ---------------------------------------------------------------------
      1          7           0        4.639342   -2.390210   -1.729096
      2          6           0        6.027665   -2.093827   -2.132452
      3          6           0        2.468900   -2.261551   -1.397504
      4          7           0        2.872584   -3.474551   -0.858623
      5          6           0        4.164048   -3.503515   -1.079958
      6          1           0        4.824910   -4.320251   -0.788200
      7          7           0        1.154825   -0.427147   -2.083904
      8          6           0        2.284610    0.106414   -2.559808
      9          1           0        2.175285    1.081599   -3.032371
     10          7           0        3.523339   -0.381500   -2.539712
     11          6           0        3.546897   -1.582073   -1.937646
     12          6           0        1.211792   -1.636121   -1.483712
     13          7           0        0.085091   -2.170374   -1.008007
     14          1           0        0.080294   -3.063164   -0.556219
     15          1           0       -0.792143   -1.696696   -1.086971
     16          1           0        6.351935   -2.801178   -2.760681
     17          1           0        6.060680   -1.204533   -2.587636
     18          1           0        6.615083   -2.074272   -1.323406
     19          7           0        4.193144    3.487831    0.826967
     20          6           0        2.929342    2.993551    1.042689
     21          6           0        4.526274    4.907464    0.593783
     22          7           0       -0.488502    3.514738    1.372014
     23          1           0       -1.305441    2.964627    1.542997
     24          1           0       -0.621087    4.499097    1.252943
     25          7           0        1.788702    3.715892    1.077599
     26          6           0        0.730459    2.958323    1.305234
     27          7           0        0.783072    1.597307    1.485192
     28          1           0       -0.077065    1.098732    1.654191
     29          6           0        1.945567    0.833472    1.453403
     30          8           0        1.883573   -0.389820    1.627960
     31          6           0        3.090780    1.633463    1.209765
     32          7           0        4.429010    1.280985    1.101123
     33          6           0        5.043559    2.410255    0.874660
     34          1           0        6.120024    2.514131    0.734288
     35          1           0        4.962211    5.006796   -0.300017
     36          1           0        3.689097    5.452300    0.617404
     37          1           0        5.150474    5.226446    1.306138
     38          1           0       -4.759663   -0.876218    1.813957
     39          1           0       -4.463257   -0.905588    3.550595
     40          1           0       -3.738100    0.356526    2.554304
     41          1           0       -1.948902   -4.765282    2.162317
     42          6           0       -1.858330   -3.679001    2.165225
     43          8           0        0.479965   -3.688852    1.765960
     44          6           0       -0.574282   -3.082895    1.956146
     45          1           0        0.318352   -1.245277    1.834861
     46          7           0       -0.570852   -1.702779    1.978899
     47          8           0       -1.545571    0.338486    2.179779
     48          6           0       -1.648017   -0.875663    2.176731
     49          1           0       -3.925894   -3.302289    2.524485
     50          6           0       -2.927580   -2.898599    2.360919
     51          6           0       -4.030668   -0.682455    2.586671
     52          7           0       -2.851184   -1.525130    2.371111
     53          1           0       -5.501475    3.719926   -3.169143
     54          1           0       -4.084512    3.870728   -2.374419
     55          1           0       -5.488662    4.193318   -1.607357
     56          1           0       -3.469239   -2.834193   -0.344408
     57          1           0       -5.100012   -2.351340   -0.476840
     58          7           0       -4.130990   -2.115132   -0.556950
     59          6           0       -3.739690   -0.895134   -0.930690
     60          6           0       -4.072825    1.360085   -1.612384
     61          7           0       -2.764704    1.648939   -1.711421
     62          1           0       -0.949160    0.734684   -1.449636
     63          6           0       -2.026833    0.586608   -1.395338
     64          7           0       -2.416856   -0.636158   -1.020773
     65          1           0       -7.261709    1.876339   -1.741440
     66          6           0       -6.263603    1.453933   -1.621869
     67          7           0       -6.015442    0.221927   -1.250038
     68          6           0       -4.630035    0.149167   -1.239973
     69          6           0       -5.045000    3.608339   -2.286429
     70          7           0       -5.133998    2.198944   -1.857825
 ---------------------------------------------------------------------

 SCF Done:  E(RwB97XD) =  -2048.74009133     A.U. after   15 cycles

 The electronic state is 1-A.
 Alpha  occ. eigenvalues --  -19.25684 -19.22039 -19.20726 -14.52420 -14.52268
 Alpha  occ. eigenvalues --  -14.49046 -14.48780 -14.47698 -14.47631 -14.47054
 Alpha  occ. eigenvalues --  -14.46860 -14.45254 -14.44635 -14.44390 -14.42223
 Alpha  occ. eigenvalues --  -14.42023 -14.41123 -14.40176 -14.40143 -14.39750
 Alpha  occ. eigenvalues --  -10.45376 -10.41440 -10.40183 -10.40115 -10.38377
 Alpha  occ. eigenvalues --  -10.38143 -10.37849 -10.37163 -10.35818 -10.35011
 Alpha  occ. eigenvalues --  -10.34885 -10.34580 -10.33653 -10.33559 -10.32967
 Alpha  occ. eigenvalues --  -10.32715 -10.32406 -10.32353 -10.31437 -10.31183
 Alpha  occ. eigenvalues --  -10.29862 -10.28327 -10.27623  -1.19284  -1.15060
 Alpha  occ. eigenvalues --   -1.13369  -1.13059  -1.10804  -1.10258  -1.09589
 Alpha  occ. eigenvalues --   -1.09270  -1.08732  -1.05064  -1.04406  -1.02389
 Alpha  occ. eigenvalues --   -1.00878  -0.99931  -0.99873  -0.98737  -0.97037
 Alpha  occ. eigenvalues --   -0.96832  -0.95940  -0.92107  -0.91284  -0.87573
 Alpha  occ. eigenvalues --   -0.85757  -0.84351  -0.83537  -0.82956  -0.82741
 Alpha  occ. eigenvalues --   -0.81348  -0.78984  -0.77110  -0.74886  -0.74830
 Alpha  occ. eigenvalues --   -0.73820  -0.73331  -0.72183  -0.70531  -0.70233
 Alpha  occ. eigenvalues --   -0.67574  -0.66975  -0.66562  -0.65600  -0.64604
 Alpha  occ. eigenvalues --   -0.64335  -0.63909  -0.62800  -0.62045  -0.61952
 Alpha  occ. eigenvalues --   -0.60672  -0.60216  -0.59784  -0.59639  -0.59342
 Alpha  occ. eigenvalues --   -0.59172  -0.58547  -0.56855  -0.55981  -0.55920
 Alpha  occ. eigenvalues --   -0.55249  -0.55204  -0.55004  -0.54541  -0.54336
 Alpha  occ. eigenvalues --   -0.53800  -0.53722  -0.53550  -0.53182  -0.53026
 Alpha  occ. eigenvalues --   -0.52754  -0.52401  -0.50846  -0.50353  -0.49957
 Alpha  occ. eigenvalues --   -0.49762  -0.49555  -0.49411  -0.49171  -0.48914
 Alpha  occ. eigenvalues --   -0.48463  -0.48264  -0.48029  -0.47911  -0.47407
 Alpha  occ. eigenvalues --   -0.46097  -0.45727  -0.45223  -0.44300  -0.43928
 Alpha  occ. eigenvalues --   -0.40617  -0.40444  -0.39342  -0.37810  -0.37580
 Alpha  occ. eigenvalues --   -0.37490  -0.37458  -0.36218  -0.35753  -0.34852
 Alpha  occ. eigenvalues --   -0.34439  -0.34192  -0.33197  -0.32834  -0.32711
 Alpha  occ. eigenvalues --   -0.32633  -0.32544  -0.32135  -0.32036  -0.30286
 Alpha  occ. eigenvalues --   -0.30045  -0.29665  -0.25746  -0.25063
 Alpha virt. eigenvalues --    0.02541   0.04236   0.06925   0.08443   0.08760
 Alpha virt. eigenvalues --    0.09184   0.09612   0.10673   0.11092   0.11767
 Alpha virt. eigenvalues --    0.13616   0.14351   0.14553   0.14784   0.15354

 Mulliken charges:
               1
     1  N   -0.313094
     2  C    0.183035
     3  C    0.052169
     4  N   -0.249058
     5  C    0.139374
     6  H    0.024739
     7  N   -0.302738
     8  C    0.136370
     9  H    0.008902
    10  N   -0.285888
    11  C    0.259429
    12  C    0.101223
    13  N   -0.070567
    14  H    0.111542
    15  H    0.081614
    16  H    0.020494
    17  H    0.032817
    18  H    0.029245
    19  N   -0.311370
    20  C    0.249052
    21  C    0.180780
    22  N   -0.122490
    23  H    0.117102
    24  H    0.117783
    25  N   -0.311924
    26  C    0.249588
    27  N   -0.152021
    28  H    0.120889
    29  C    0.198855
    30  O   -0.320768
    31  C   -0.015127
    32  N   -0.227874
    33  C    0.127376
    34  H    0.024610
    35  H    0.027913
    36  H    0.029498
    37  H    0.025424
    38  H    0.048831
    39  H    0.060181
    40  H    0.075806
    41  H    0.031611
    42  C   -0.110772
    43  O   -0.249912
    44  C    0.153351
    45  H    0.135575
    46  N   -0.121060
    47  O   -0.350536
    48  C    0.352790
    49  H    0.043618
    50  C    0.148937
    51  C    0.043168
    52  N   -0.278984
    53  H    0.033815
    54  H    0.042691
    55  H    0.028830
    56  H    0.115415
    57  H    0.118760
    58  N   -0.067149
    59  C    0.097615
    60  C    0.249378
    61  N   -0.272377
    62  H    0.038433
    63  C    0.178782
    64  N   -0.320729
    65  H    0.038348
    66  C    0.142429
    67  N   -0.265247
    68  C    0.024770
    69  C    0.179666
    70  N   -0.312936
 Sum of Mulliken charges =  -0.00000

 Dipole moment (field-independent basis, Debye):
    X=             -9.2145    Y=              5.7188    Z=              0.7367  Tot=             10.8699
 Quadrupole moment (field-independent basis, Debye-Ang):
   XX=           -176.1709   YY=           -206.5175   ZZ=           -246.0952
   XY=              6.8738   XZ=            -14.4027   YZ=             -2.7020

 Normal termination of Gaussian 16 at Sat Jan 27 07:38:10 2018.
