 Gaussian 16, Revision A.03,
 Gaussian 16:  EM64L-G16RevA.03 25-Dec-2016

 ---------------------------------------
 #p wb97xd/cc-pvdz sp scf=(maxcycles=20)
 ---------------------------------------

 ------------------
 Base pair stacking
 ------------------
 Symbolic Z-matrix:
 Charge =  0 Multiplicity = 1

                         Standard orientation:
 ---------------------------------------------------------------------
 Center     Atomic      Atomic             Coordinates (Angstroms)
 Number     Number       Type             X           Y           Z
 ---------------------------------------------------------------------
      1          7           0        5.579661   -1.813262   -1.215064
      2          6           0        6.987355   -1.375306   -1.147249
      3          6           0        3.383612   -1.834842   -1.334352
      4          7           0        3.782689   -3.162648   -1.285473
      5          6           0        5.089758   -3.096497   -1.215559
      6          1           0        5.752290   -3.960848   -1.161777
      7          7           0        2.067903    0.119475   -1.446016
      8          6           0        3.215742    0.803347   -1.397395
      9          1           0        3.112766    1.887266   -1.425150
     10          7           0        4.465812    0.351418   -1.320012
     11          6           0        4.480201   -0.991498   -1.291790
     12          6           0        2.116021   -1.230285   -1.415824
     13          7           0        0.971286   -1.914690   -1.464252
     14          1           0        0.959395   -2.915031   -1.444471
     15          1           0        0.087035   -1.451107   -1.521942
     16          1           0        7.490254   -1.742776   -1.929710
     17          1           0        7.027784   -0.376725   -1.165441
     18          1           0        7.401897   -1.708612   -0.300458
     19          7           0        3.263879    3.288693    1.349506
     20          6           0        2.008480    2.734311    1.281102
     21          6           0        3.587404    4.704777    1.083538
     22          7           0       -1.397293    3.065039    0.686865
     23          1           0       -2.207478    2.479558    0.693432
     24          1           0       -1.534930    4.027507    0.451440
     25          7           0        0.868730    3.384842    0.961989
     26          6           0       -0.180518    2.582129    0.980418
     27          7           0       -0.120338    1.244396    1.287582
     28          1           0       -0.973830    0.707357    1.276752
     29          6           0        1.041405    0.554147    1.618901
     30          8           0        0.986700   -0.654048    1.879660
     31          6           0        2.176993    1.403310    1.603330
     32          7           0        3.511349    1.127631    1.868695
     33          6           0        4.116709    2.272767    1.706154
     34          1           0        5.187840    2.432596    1.834278
     35          1           0        4.234347    4.763648    0.324061
     36          1           0        2.750803    5.196692    0.846089
     37          1           0        3.993530    5.114588    1.899578
     38          1           0       -5.454758   -1.537603    0.419918
     39          1           0       -5.614571   -1.417955    2.170577
     40          1           0       -4.709629   -0.191557    1.282657
     41          1           0       -2.671691   -5.207038    1.811459
     42          6           0       -2.629477   -4.120076    1.741027
     43          8           0       -0.268845   -4.014343    1.949287
     44          6           0       -1.360408   -3.462599    1.811936
     45          1           0       -0.542649   -1.587300    1.758422
     46          7           0       -1.419457   -2.087144    1.712550
     47          8           0       -2.495752   -0.101187    1.478580
     48          6           0       -2.544169   -1.316150    1.557192
     49          1           0       -4.733457   -3.846854    1.530293
     50          6           0       -3.744082   -3.395244    1.589742
     51          6           0       -4.957880   -1.241368    1.331747
     52          7           0       -3.729182   -2.022807    1.497313
     53          1           0       -4.597082    4.345657   -2.078315
     54          1           0       -3.381402    4.134772   -1.010719
     55          1           0       -4.931275    4.098038   -0.500206
     56          1           0       -2.569386   -2.790855   -1.922759
     57          1           0       -4.180053   -2.293973   -2.185328
     58          7           0       -3.239360   -2.048819   -1.948215
     59          6           0       -2.894742   -0.788074   -1.678141
     60          6           0       -3.291320    1.541234   -1.397483
     61          7           0       -2.020499    1.841156   -1.082053
     62          1           0       -0.215534    0.898828   -0.848123
     63          6           0       -1.265295    0.744604   -1.094054
     64          7           0       -1.608589   -0.518999   -1.364298
     65          1           0       -6.427495    2.070795   -1.977253
     66          6           0       -5.437712    1.635607   -1.836210
     67          7           0       -5.156321    0.363212   -1.975840
     68          6           0       -3.798567    0.289668   -1.700476
     69          6           0       -4.312922    3.862580   -1.250123
     70          7           0       -4.355850    2.406551   -1.487007
 ---------------------------------------------------------------------

 SCF Done:  E(RwB97XD) =  -2048.69746856     A.U. after   15 cycles

 The electronic state is 1-A.
 Alpha  occ. eigenvalues --  -19.25547 -19.21678 -19.20295 -14.52823 -14.52234
 Alpha  occ. eigenvalues --  -14.48696 -14.48468 -14.48315 -14.47565 -14.46409
 Alpha  occ. eigenvalues --  -14.45660 -14.45255 -14.44455 -14.43818 -14.42427
 Alpha  occ. eigenvalues --  -14.41444 -14.41036 -14.40481 -14.40445 -14.40035
 Alpha  occ. eigenvalues --  -10.45218 -10.40434 -10.40125 -10.39817 -10.38224
 Alpha  occ. eigenvalues --  -10.37859 -10.37684 -10.37354 -10.35636 -10.35294
 Alpha  occ. eigenvalues --  -10.34914 -10.34696 -10.33919 -10.33714 -10.32950
 Alpha  occ. eigenvalues --  -10.32912 -10.32820 -10.32723 -10.31013 -10.30749
 Alpha  occ. eigenvalues --  -10.30489 -10.28191 -10.27625  -1.19202  -1.15510
 Alpha  occ. eigenvalues --   -1.12884  -1.12706  -1.10919  -1.10270  -1.09605
 Alpha  occ. eigenvalues --   -1.09111  -1.08179  -1.05253  -1.04773  -1.02198
 Alpha  occ. eigenvalues --   -1.01338  -1.00272  -0.99374  -0.98181  -0.97016
 Alpha  occ. eigenvalues --   -0.96597  -0.96255  -0.92460  -0.90902  -0.87956
 Alpha  occ. eigenvalues --   -0.86427  -0.83749  -0.83537  -0.83375  -0.82234
 Alpha  occ. eigenvalues --   -0.81945  -0.78697  -0.77322  -0.75375  -0.74219
 Alpha  occ. eigenvalues --   -0.73250  -0.73074  -0.72678  -0.70865  -0.70709
 Alpha  occ. eigenvalues --   -0.67268  -0.67034  -0.66307  -0.66088  -0.64718
 Alpha  occ. eigenvalues --   -0.64190  -0.63506  -0.62615  -0.62510  -0.61360
 Alpha  occ. eigenvalues --   -0.61002  -0.60484  -0.60341  -0.59635  -0.59482
 Alpha  occ. eigenvalues --   -0.59311  -0.58259  -0.56782  -0.56226  -0.55919
 Alpha  occ. eigenvalues --   -0.55884  -0.55799  -0.55365  -0.54890  -0.54470
 Alpha  occ. eigenvalues --   -0.54009  -0.53435  -0.53370  -0.53146  -0.52712
 Alpha  occ. eigenvalues --   -0.52618  -0.52150  -0.51393  -0.50443  -0.49936
 Alpha  occ. eigenvalues --   -0.49880  -0.49772  -0.49596  -0.49101  -0.48727
 Alpha  occ. eigenvalues --   -0.48503  -0.47980  -0.47737  -0.47319  -0.47049
 Alpha  occ. eigenvalues --   -0.46444  -0.45831  -0.44908  -0.44466  -0.43731
 Alpha  occ. eigenvalues --   -0.41494  -0.40846  -0.39237  -0.38246  -0.38063
 Alpha  occ. eigenvalues --   -0.36941  -0.36873  -0.36777  -0.35442  -0.35148
 Alpha  occ. eigenvalues --   -0.34540  -0.33326  -0.33323  -0.32822  -0.32318
 Alpha  occ. eigenvalues --   -0.32064  -0.31749  -0.31507  -0.31031  -0.30587
 Alpha  occ. eigenvalues --   -0.30178  -0.29886  -0.25592  -0.24319
 Alpha virt. eigenvalues --    0.02993   0.04059   0.06536   0.08320   0.08648
 Alpha virt. eigenvalues --    0.09449   0.10147   0.10495   0.11358   0.11488
 Alpha virt. eigenvalues --    0.12137   0.13927   0.14707   0.14856   0.15013

 Mulliken charges:
               1
     1  N   -0.313407
     2  C    0.182521
     3  C    0.041294
     4  N   -0.261762
     5  C    0.136790
     6  H    0.025774
     7  N   -0.298657
     8  C    0.149324
     9  H    0.009863
    10  N   -0.283711
    11  C    0.259302
    12  C    0.116738
    13  N   -0.064409
    14  H    0.107258
    15  H    0.080670
    16  H    0.022652
    17  H    0.033106
    18  H    0.028398
    19  N   -0.308126
    20  C    0.236360
    21  C    0.181156
    22  N   -0.050814
    23  H    0.111236
    24  H    0.110445
    25  N   -0.303870
    26  C    0.199948
    27  N   -0.151641
    28  H    0.126551
    29  C    0.184798
    30  O   -0.324050
    31  C   -0.010878
    32  N   -0.219740
    33  C    0.126543
    34  H    0.021649
    35  H    0.027359
    36  H    0.027564
    37  H    0.024000
    38  H    0.054332
    39  H    0.060143
    40  H    0.076616
    41  H    0.031145
    42  C   -0.113434
    43  O   -0.260016
    44  C    0.176745
    45  H    0.132909
    46  N   -0.128698
    47  O   -0.344353
    48  C    0.345862
    49  H    0.045195
    50  C    0.162781
    51  C    0.042157
    52  N   -0.286767
    53  H    0.039703
    54  H    0.022704
    55  H    0.033950
    56  H    0.118088
    57  H    0.116978
    58  N   -0.064028
    59  C    0.084181
    60  C    0.252859
    61  N   -0.305652
    62  H    0.058706
    63  C    0.159389
    64  N   -0.300922
    65  H    0.038645
    66  C    0.137828
    67  N   -0.262864
    68  C    0.032208
    69  C    0.180365
    70  N   -0.316986
 Sum of Mulliken charges =  -0.00000

 Dipole moment (field-independent basis, Debye):
    X=             -9.4685    Y=              4.8426    Z=             -2.6883  Tot=             10.9695
 Quadrupole moment (field-independent basis, Debye-Ang):
   XX=           -165.8650   YY=           -209.4151   ZZ=           -255.4079
   XY=              6.5251   XZ=             -6.1625   YZ=              8.2086

 Normal termination of Gaussian 16 at Sat Jan 27 00:57:52 2018.
