 Gaussian 16, Revision A.03,
 Gaussian 16:  EM64L-G16RevA.03 25-Dec-2016

 ---------------------------------------
 #p wb97xd/cc-pvdz sp scf=(maxcycles=20)
 ---------------------------------------

 ------------------
 Base pair stacking
 ------------------
 Symbolic Z-matrix:
 Charge =  0 Multiplicity = 1

                         Standard orientation:
 ---------------------------------------------------------------------
 Center     Atomic      Atomic             Coordinates (Angstroms)
 Number     Number       Type             X           Y           Z
 ---------------------------------------------------------------------
      1          7           0        4.269250   -2.513876   -1.876676
      2          6           0        5.646946   -2.251105   -2.335931
      3          6           0        2.117209   -2.333829   -1.459976
      4          7           0        2.513909   -3.554072   -0.932379
      5          6           0        3.794556   -3.613701   -1.204537
      6          1           0        4.447479   -4.444583   -0.935720
      7          7           0        0.819564   -0.471728   -2.101563
      8          6           0        1.941559    0.033910   -2.624077
      9          1           0        1.836083    1.009807   -3.096056
     10          7           0        3.168539   -0.482530   -2.650973
     11          6           0        3.188306   -1.681326   -2.045244
     12          6           0        0.872420   -1.679694   -1.498984
     13          7           0       -0.246535   -2.186105   -0.976803
     14          1           0       -0.253968   -3.077044   -0.521399
     15          1           0       -1.115060   -1.692466   -1.022970
     16          1           0        5.929637   -2.967873   -2.973513
     17          1           0        5.682347   -1.364329   -2.795817
     18          1           0        6.266285   -2.242508   -1.550860
     19          7           0        4.549797    3.403672    0.620322
     20          6           0        3.284487    2.939550    0.888000
     21          6           0        4.906024    4.814417    0.368136
     22          7           0       -0.104679    3.540948    1.350153
     23          1           0       -0.926649    3.010499    1.555667
     24          1           0       -0.219168    4.527707    1.232261
     25          7           0        2.163085    3.688261    0.964979
     26          6           0        1.097520    2.956195    1.237526
     27          7           0        1.125858    1.594929    1.421014
     28          1           0        0.261853    1.116998    1.626034
     29          6           0        2.268268    0.804239    1.346459
     30          8           0        2.185088   -0.416700    1.528501
     31          6           0        3.421055    1.576645    1.054300
     32          7           0        4.745439    1.192870    0.894246
     33          6           0        5.376366    2.306828    0.638863
     34          1           0        6.448522    2.385248    0.455548
     35          1           0        5.308335    4.900654   -0.542647
     36          1           0        4.083225    5.378597    0.422563
     37          1           0        5.565176    5.121196    1.053857
     38          1           0       -4.454979   -0.748290    1.979401
     39          1           0       -4.090660   -0.778773    3.703052
     40          1           0       -3.376724    0.462878    2.673511
     41          1           0       -1.722965   -4.700315    2.232658
     42          6           0       -1.607344   -3.616423    2.227385
     43          8           0        0.712411   -3.681821    1.735914
     44          6           0       -0.319208   -3.050951    1.965118
     45          1           0        0.610005   -1.234939    1.800825
     46          7           0       -0.283080   -1.671217    1.981881
     47          8           0       -1.201770    0.392757    2.212556
     48          6           0       -1.332200   -0.818694    2.218710
     49          1           0       -3.649806   -3.190677    2.666623
     50          6           0       -2.649722   -2.810791    2.461953
     51          6           0       -3.691638   -0.568926    2.721828
     52          7           0       -2.541365   -1.439437    2.463309
     53          1           0       -5.777230    3.824975   -2.939968
     54          1           0       -4.326762    3.945507   -2.202602
     55          1           0       -5.691573    4.303113   -1.381934
     56          1           0       -3.786088   -2.765118   -0.170214
     57          1           0       -5.409268   -2.245019   -0.240014
     58          7           0       -4.439003   -2.031603   -0.359420
     59          6           0       -4.034834   -0.822251   -0.753514
     60          6           0       -4.342706    1.437817   -1.431025
     61          7           0       -3.033232    1.695926   -1.582982
     62          1           0       -1.230279    0.740676   -1.389414
     63          6           0       -2.308079    0.617824   -1.291877
     64          7           0       -2.711004   -0.594332   -0.897000
     65          1           0       -7.521458    2.027444   -1.435920
     66          6           0       -6.529391    1.582403   -1.354171
     67          7           0       -6.295117    0.346222   -0.987253
     68          6           0       -4.912450    0.241376   -1.031722
     69          6           0       -5.288799    3.705756   -2.075558
     70          7           0       -5.393171    2.300232   -1.637810
 ---------------------------------------------------------------------

 SCF Done:  E(RwB97XD) =  -2048.73738576     A.U. after   15 cycles

 The electronic state is 1-A.
 Alpha  occ. eigenvalues --  -19.25524 -19.21741 -19.20754 -14.52279 -14.52209
 Alpha  occ. eigenvalues --  -14.49098 -14.48934 -14.47633 -14.47429 -14.47042
 Alpha  occ. eigenvalues --  -14.46859 -14.45246 -14.44753 -14.44464 -14.42379
 Alpha  occ. eigenvalues --  -14.42241 -14.41203 -14.40295 -14.40160 -14.39953
 Alpha  occ. eigenvalues --  -10.45161 -10.41452 -10.40281 -10.39779 -10.38399
 Alpha  occ. eigenvalues --  -10.37917 -10.37853 -10.37214 -10.35916 -10.35087
 Alpha  occ. eigenvalues --  -10.34800 -10.34620 -10.33650 -10.33631 -10.32973
 Alpha  occ. eigenvalues --  -10.32768 -10.32496 -10.32484 -10.31225 -10.31218
 Alpha  occ. eigenvalues --  -10.29778 -10.28371 -10.27742  -1.19092  -1.15084
 Alpha  occ. eigenvalues --   -1.13389  -1.12763  -1.10848  -1.10291  -1.09654
 Alpha  occ. eigenvalues --   -1.09088  -1.08745  -1.05156  -1.04603  -1.02137
 Alpha  occ. eigenvalues --   -1.00900  -1.00101  -0.99939  -0.98761  -0.97125
 Alpha  occ. eigenvalues --   -0.96878  -0.95982  -0.92307  -0.91050  -0.87621
 Alpha  occ. eigenvalues --   -0.85775  -0.84394  -0.83333  -0.83011  -0.82776
 Alpha  occ. eigenvalues --   -0.81366  -0.78770  -0.77176  -0.74950  -0.74859
 Alpha  occ. eigenvalues --   -0.73827  -0.73101  -0.72314  -0.70600  -0.70353
 Alpha  occ. eigenvalues --   -0.67587  -0.67035  -0.66367  -0.65734  -0.64547
 Alpha  occ. eigenvalues --   -0.64394  -0.63787  -0.62782  -0.62227  -0.61972
 Alpha  occ. eigenvalues --   -0.60718  -0.60276  -0.59674  -0.59468  -0.59350
 Alpha  occ. eigenvalues --   -0.59165  -0.58550  -0.56898  -0.56056  -0.55876
 Alpha  occ. eigenvalues --   -0.55324  -0.55202  -0.55113  -0.54590  -0.54330
 Alpha  occ. eigenvalues --   -0.53737  -0.53667  -0.53605  -0.53159  -0.52842
 Alpha  occ. eigenvalues --   -0.52786  -0.52213  -0.50865  -0.50354  -0.50025
 Alpha  occ. eigenvalues --   -0.49824  -0.49524  -0.49426  -0.49119  -0.48884
 Alpha  occ. eigenvalues --   -0.48343  -0.48271  -0.48026  -0.47759  -0.47343
 Alpha  occ. eigenvalues --   -0.46168  -0.45701  -0.45238  -0.44463  -0.43777
 Alpha  occ. eigenvalues --   -0.40662  -0.40595  -0.39216  -0.37901  -0.37650
 Alpha  occ. eigenvalues --   -0.37533  -0.37464  -0.36300  -0.35557  -0.34917
 Alpha  occ. eigenvalues --   -0.34504  -0.34225  -0.33077  -0.32845  -0.32764
 Alpha  occ. eigenvalues --   -0.32696  -0.32521  -0.32055  -0.31771  -0.30363
 Alpha  occ. eigenvalues --   -0.30118  -0.29750  -0.25841  -0.25172
 Alpha virt. eigenvalues --    0.02836   0.04074   0.06927   0.08514   0.08735
 Alpha virt. eigenvalues --    0.09145   0.09591   0.10616   0.11124   0.11603
 Alpha virt. eigenvalues --    0.13795   0.14293   0.14515   0.14907   0.15327

 Mulliken charges:
               1
     1  N   -0.313179
     2  C    0.183328
     3  C    0.053589
     4  N   -0.246210
     5  C    0.141514
     6  H    0.025573
     7  N   -0.301022
     8  C    0.134458
     9  H    0.009856
    10  N   -0.283654
    11  C    0.261029
    12  C    0.092415
    13  N   -0.069598
    14  H    0.110699
    15  H    0.082595
    16  H    0.019843
    17  H    0.033053
    18  H    0.031213
    19  N   -0.311304
    20  C    0.249106
    21  C    0.180796
    22  N   -0.123271
    23  H    0.118226
    24  H    0.118204
    25  N   -0.312103
    26  C    0.249616
    27  N   -0.151559
    28  H    0.121214
    29  C    0.197573
    30  O   -0.320841
    31  C   -0.015181
    32  N   -0.229352
    33  C    0.126396
    34  H    0.024616
    35  H    0.027734
    36  H    0.029758
    37  H    0.025573
    38  H    0.049865
    39  H    0.058713
    40  H    0.075208
    41  H    0.030553
    42  C   -0.108579
    43  O   -0.240915
    44  C    0.138335
    45  H    0.137122
    46  N   -0.117980
    47  O   -0.352440
    48  C    0.354269
    49  H    0.042461
    50  C    0.151650
    51  C    0.042904
    52  N   -0.281801
    53  H    0.033711
    54  H    0.042488
    55  H    0.029370
    56  H    0.115204
    57  H    0.120314
    58  N   -0.070940
    59  C    0.096781
    60  C    0.249648
    61  N   -0.272403
    62  H    0.037439
    63  C    0.179254
    64  N   -0.319991
    65  H    0.038689
    66  C    0.143521
    67  N   -0.263688
    68  C    0.023522
    69  C    0.179841
    70  N   -0.312827
 Sum of Mulliken charges =  -0.00000

 Dipole moment (field-independent basis, Debye):
    X=             -8.9334    Y=              5.8904    Z=              0.9667  Tot=             10.7441
 Quadrupole moment (field-independent basis, Debye-Ang):
   XX=           -179.2920   YY=           -206.2192   ZZ=           -245.0260
   XY=              6.7966   XZ=            -16.9619   YZ=             -2.7139

 Normal termination of Gaussian 16 at Sat Jan 27 08:23:26 2018.
