 Gaussian 16, Revision A.03,
 Gaussian 16:  EM64L-G16RevA.03 25-Dec-2016

 ---------------------------------------
 #p wb97xd/cc-pvdz sp scf=(maxcycles=20)
 ---------------------------------------

 ------------------
 Base pair stacking
 ------------------
 Symbolic Z-matrix:
 Charge =  0 Multiplicity = 1

                         Standard orientation:
 ---------------------------------------------------------------------
 Center     Atomic      Atomic             Coordinates (Angstroms)
 Number     Number       Type             X           Y           Z
 ---------------------------------------------------------------------
      1          7           0       -6.638924   -1.638733    0.462082
      2          6           0       -8.019470   -1.207150    0.169119
      3          6           0       -4.477578   -1.652180    0.869208
      4          7           0       -4.885737   -2.977862    0.895709
      5          6           0       -6.171529   -2.916706    0.649374
      6          1           0       -6.833658   -3.781149    0.592254
      7          7           0       -3.159917    0.301680    0.964693
      8          6           0       -4.281855    0.979469    0.701145
      9          1           0       -4.167964    2.060844    0.638371
     10          7           0       -5.517530    0.524175    0.504419
     11          6           0       -5.547210   -0.815160    0.603093
     12          6           0       -3.222887   -1.044599    1.057644
     13          7           0       -2.104033   -1.722940    1.320659
     14          1           0       -2.103889   -2.720526    1.398330
     15          1           0       -1.228288   -1.257356    1.448953
     16          1           0       -8.625039   -1.496482    0.910563
     17          1           0       -8.047718   -0.211427    0.086312
     18          1           0       -8.325020   -1.620085   -0.688857
     19          7           0       -2.100044    3.104186   -1.686984
     20          6           0       -0.867378    2.552453   -1.433620
     21          6           0       -2.454067    4.525490   -1.499239
     22          7           0        2.424285    2.898880   -0.381646
     23          1           0        3.226302    2.314043   -0.263384
     24          1           0        2.530207    3.866384   -0.150497
     25          7           0        0.218758    3.210742   -0.974279
     26          6           0        1.258699    2.408665   -0.829966
     27          7           0        1.238577    1.064472   -1.113258
     28          1           0        2.081176    0.528491   -0.972837
     29          6           0        0.132234    0.366195   -1.586864
     30          8           0        0.219773   -0.847388   -1.811139
     31          6           0       -0.992705    1.214572   -1.746944
     32          7           0       -2.278184    0.932076   -2.188142
     33          6           0       -2.897659    2.079996   -2.135858
     34          1           0       -3.940434    2.236121   -2.414277
     35          1           0       -3.199648    4.600463   -0.837952
     36          1           0       -1.657218    5.023168   -1.159207
     37          1           0       -2.742591    4.916989   -2.372328
     38          1           0        6.395647   -1.693535    0.543947
     39          1           0        6.796163   -1.612145   -1.169998
     40          1           0        5.779917   -0.367314   -0.442663
     41          1           0        3.823463   -5.394822   -1.138584
     42          6           0        3.774337   -4.306611   -1.098386
     43          8           0        1.465398   -4.207381   -1.633234
     44          6           0        2.528722   -3.651873   -1.358374
     45          1           0        1.715597   -1.776524   -1.459338
     46          7           0        2.576526   -2.274524   -1.281798
     47          8           0        3.614583   -0.283046   -0.944663
     48          6           0        3.670683   -1.499404   -0.989309
     49          1           0        5.829602   -4.027134   -0.604840
     50          6           0        4.858952   -3.577747   -0.810323
     51          6           0        6.030230   -1.417749   -0.434051
     52          7           0        4.834474   -2.203618   -0.750798
     53          1           0        3.425571    4.558583    2.056630
     54          1           0        2.356222    4.247439    0.864245
     55          1           0        3.958647    4.159081    0.566781
     56          1           0        1.334112   -2.556318    2.320139
     57          1           0        2.903839   -2.038945    2.742478
     58          7           0        2.005561   -1.816361    2.361976
     59          6           0        1.716950   -0.587068    1.929838
     60          6           0        2.179741    1.703576    1.482081
     61          7           0        0.965140    1.973622    0.975865
     62          1           0       -0.807270    1.015974    0.598956
     63          6           0        0.199281    0.884572    0.993738
     64          7           0        0.486509   -0.347547    1.426134
     65          1           0        5.221064    2.281705    2.413904
     66          6           0        4.251948    1.836504    2.186828
     67          7           0        3.936728    0.583999    2.409449
     68          6           0        2.625418    0.486346    1.967107
     69          6           0        3.244726    3.998194    1.248393
     70          7           0        3.235765    2.571795    1.626975
 ---------------------------------------------------------------------

 SCF Done:  E(RwB97XD) =  -2048.49913360     A.U. after   16 cycles

 The electronic state is 1-A.
 Alpha  occ. eigenvalues --  -19.25852 -19.21920 -19.20192 -14.52714 -14.52463
 Alpha  occ. eigenvalues --  -14.48869 -14.48549 -14.48240 -14.47842 -14.45452
 Alpha  occ. eigenvalues --  -14.45148 -14.44158 -14.43163 -14.42934 -14.42603
 Alpha  occ. eigenvalues --  -14.41596 -14.41001 -14.40493 -14.40319 -14.40309
 Alpha  occ. eigenvalues --  -10.45476 -10.41169 -10.40085 -10.40053 -10.38352
 Alpha  occ. eigenvalues --  -10.37829 -10.37633 -10.37000 -10.35635 -10.35493
 Alpha  occ. eigenvalues --  -10.35297 -10.35208 -10.34245 -10.33873 -10.33491
 Alpha  occ. eigenvalues --  -10.33213 -10.32780 -10.32726 -10.31145 -10.30968
 Alpha  occ. eigenvalues --  -10.30657 -10.28701 -10.27437  -1.19448  -1.17068
 Alpha  occ. eigenvalues --   -1.13293  -1.12952  -1.11471  -1.10229  -1.09693
 Alpha  occ. eigenvalues --   -1.09338  -1.09226  -1.05144  -1.04491  -1.03738
 Alpha  occ. eigenvalues --   -1.02461  -1.00662  -0.98724  -0.97977  -0.97408
 Alpha  occ. eigenvalues --   -0.97074  -0.96110  -0.92808  -0.91074  -0.89626
 Alpha  occ. eigenvalues --   -0.87346  -0.84052  -0.83748  -0.83625  -0.82427
 Alpha  occ. eigenvalues --   -0.82237  -0.78893  -0.77785  -0.75315  -0.74384
 Alpha  occ. eigenvalues --   -0.73877  -0.73336  -0.73086  -0.71488  -0.71205
 Alpha  occ. eigenvalues --   -0.68742  -0.67631  -0.66587  -0.66508  -0.65685
 Alpha  occ. eigenvalues --   -0.64326  -0.64141  -0.63605  -0.62896  -0.62651
 Alpha  occ. eigenvalues --   -0.61434  -0.60960  -0.60496  -0.60322  -0.59577
 Alpha  occ. eigenvalues --   -0.59539  -0.59434  -0.57097  -0.56730  -0.56431
 Alpha  occ. eigenvalues --   -0.56090  -0.55741  -0.55559  -0.54900  -0.54330
 Alpha  occ. eigenvalues --   -0.53713  -0.53476  -0.53359  -0.53130  -0.52394
 Alpha  occ. eigenvalues --   -0.52366  -0.51883  -0.51016  -0.50840  -0.50373
 Alpha  occ. eigenvalues --   -0.50040  -0.49725  -0.49317  -0.49133  -0.48599
 Alpha  occ. eigenvalues --   -0.48255  -0.48204  -0.48115  -0.47718  -0.47035
 Alpha  occ. eigenvalues --   -0.46868  -0.46198  -0.45215  -0.43999  -0.42733
 Alpha  occ. eigenvalues --   -0.41321  -0.39471  -0.39168  -0.38812  -0.37504
 Alpha  occ. eigenvalues --   -0.37317  -0.36641  -0.36225  -0.35481  -0.34781
 Alpha  occ. eigenvalues --   -0.34016  -0.33715  -0.33625  -0.33038  -0.32259
 Alpha  occ. eigenvalues --   -0.32007  -0.31912  -0.31401  -0.31118  -0.30874
 Alpha  occ. eigenvalues --   -0.30453  -0.28956  -0.26007  -0.23793
 Alpha virt. eigenvalues --    0.02414   0.03115   0.06738   0.07826   0.08344
 Alpha virt. eigenvalues --    0.08961   0.09778   0.10707   0.11730   0.12165
 Alpha virt. eigenvalues --    0.13108   0.13581   0.14235   0.14895   0.15276

 Mulliken charges:
               1
     1  N   -0.311971
     2  C    0.181339
     3  C    0.032448
     4  N   -0.261291
     5  C    0.135097
     6  H    0.027023
     7  N   -0.293547
     8  C    0.146714
     9  H    0.004985
    10  N   -0.289057
    11  C    0.249524
    12  C    0.127022
    13  N   -0.062177
    14  H    0.107029
    15  H    0.086517
    16  H    0.024761
    17  H    0.034861
    18  H    0.027560
    19  N   -0.312512
    20  C    0.219090
    21  C    0.182401
    22  N   -0.117870
    23  H    0.109874
    24  H    0.080763
    25  N   -0.257948
    26  C    0.157525
    27  N   -0.105330
    28  H    0.113774
    29  C    0.120846
    30  O   -0.316867
    31  C    0.011204
    32  N   -0.218065
    33  C    0.114790
    34  H    0.027580
    35  H    0.024857
    36  H    0.024921
    37  H    0.024213
    38  H    0.059858
    39  H    0.058523
    40  H    0.075595
    41  H    0.032121
    42  C   -0.111662
    43  O   -0.261601
    44  C    0.176146
    45  H    0.133142
    46  N   -0.137955
    47  O   -0.343568
    48  C    0.356682
    49  H    0.047367
    50  C    0.167075
    51  C    0.044115
    52  N   -0.297275
    53  H    0.021614
    54  H    0.036669
    55  H    0.008151
    56  H    0.123290
    57  H    0.117693
    58  N   -0.067604
    59  C    0.097883
    60  C    0.221433
    61  N   -0.255446
    62  H    0.086167
    63  C    0.172386
    64  N   -0.296044
    65  H    0.036065
    66  C    0.130067
    67  N   -0.265419
    68  C    0.059143
    69  C    0.266216
    70  N   -0.340913
 Sum of Mulliken charges =  -0.00000

 Dipole moment (field-independent basis, Debye):
    X=              8.7298    Y=              4.3587    Z=              4.5991  Tot=             10.7870
 Quadrupole moment (field-independent basis, Debye-Ang):
   XX=           -157.1065   YY=           -213.0354   ZZ=           -254.9188
   XY=             -3.1512   XZ=              8.7766   YZ=            -11.3534

 Normal termination of Gaussian 16 at Sat Jan 27 06:19:17 2018.
