 Gaussian 16, Revision A.03,
 Gaussian 16:  EM64L-G16RevA.03 25-Dec-2016

 ---------------------------------------
 #p wb97xd/cc-pvdz sp scf=(maxcycles=20)
 ---------------------------------------

 ------------------
 Base pair stacking
 ------------------
 Symbolic Z-matrix:
 Charge =  0 Multiplicity = 1

                         Standard orientation:
 ---------------------------------------------------------------------
 Center     Atomic      Atomic             Coordinates (Angstroms)
 Number     Number       Type             X           Y           Z
 ---------------------------------------------------------------------
      1          7           0       -6.171569   -1.687774    0.799716
      2          6           0       -7.569503   -1.236276    0.658565
      3          6           0       -3.987119   -1.731132    1.051881
      4          7           0       -4.391392   -3.053687    0.941701
      5          6           0       -5.691262   -2.974627    0.794198
      6          1           0       -6.355086   -3.831558    0.676041
      7          7           0       -2.667537    0.208216    1.298008
      8          6           0       -3.805630    0.902811    1.198703
      9          1           0       -3.697253    1.984652    1.262950
     10          7           0       -5.051648    0.463736    1.032735
     11          6           0       -5.073341   -0.877725    0.966189
     12          6           0       -2.722821   -1.139754    1.227238
     13          7           0       -1.587824   -1.834854    1.326160
     14          1           0       -1.581488   -2.834348    1.279197
     15          1           0       -0.705644   -1.380505    1.450521
     16          1           0       -8.121743   -1.620860    1.398375
     17          1           0       -7.604244   -0.238260    0.702154
     18          1           0       -7.933759   -1.542694   -0.220877
     19          7           0       -2.599361    3.257171   -1.633841
     20          6           0       -1.357608    2.691355   -1.472750
     21          6           0       -2.915530    4.688163   -1.452211
     22          7           0        2.016683    3.008314   -0.714164
     23          1           0        2.817376    2.413309   -0.650112
     24          1           0        2.155916    3.979155   -0.517170
     25          7           0       -0.226765    3.342355   -1.124274
     26          6           0        0.810053    2.526890   -1.049112
     27          7           0        0.746410    1.176884   -1.295939
     28          1           0        1.590133    0.630564   -1.214497
     29          6           0       -0.406344    0.485906   -1.655906
     30          8           0       -0.355806   -0.733922   -1.856403
     31          6           0       -1.528542    1.348676   -1.740682
     32          7           0       -2.851002    1.077018   -2.063500
     33          6           0       -3.447135    2.235912   -1.987335
     34          1           0       -4.507567    2.402556   -2.179670
     35          1           0       -3.600597    4.791048   -0.731863
     36          1           0       -2.085416    5.180555   -1.193890
     37          1           0       -3.272071    5.063567   -2.307052
     38          1           0        5.986192   -1.625690   -0.015881
     39          1           0        6.239638   -1.591538   -1.759225
     40          1           0        5.307416   -0.313259   -0.979277
     41          1           0        3.226402   -5.322913   -1.379924
     42          6           0        3.196566   -4.233395   -1.362927
     43          8           0        0.851982   -4.108831   -1.701329
     44          6           0        1.942823   -3.564571   -1.532088
     45          1           0        1.151114   -1.678986   -1.610241
     46          7           0        2.016825   -2.186766   -1.494339
     47          8           0        3.108483   -0.205230   -1.296830
     48          6           0        3.143046   -1.423067   -1.315655
     49          1           0        5.290354   -3.976212   -1.053503
     50          6           0        4.312238   -3.515881   -1.186677
     51          6           0        5.542396   -1.367171   -0.965762
     52          7           0        4.312728   -2.140516   -1.159675
     53          1           0        3.974667    4.359097    2.452847
     54          1           0        2.825106    4.187870    1.307726
     55          1           0        4.402995    4.152114    0.891711
     56          1           0        1.912229   -2.753103    1.974782
     57          1           0        3.507158   -2.277214    2.348725
     58          7           0        2.584382   -2.017720    2.061714
     59          6           0        2.265408   -0.747170    1.806483
     60          6           0        2.694085    1.585539    1.615674
     61          7           0        1.446966    1.904717    1.231941
     62          1           0       -0.346638    0.984416    0.862300
     63          6           0        0.685065    0.814659    1.167295
     64          7           0        1.002687   -0.458740    1.422529
     65          1           0        5.792463    2.072527    2.399928
     66          6           0        4.810241    1.649732    2.186771
     67          7           0        4.512272    0.376399    2.273403
     68          6           0        3.173416    0.321893    1.913920
     69          6           0        3.738401    3.901369    1.595715
     70          7           0        3.756951    2.439068    1.794004
 ---------------------------------------------------------------------

 SCF Done:  E(RwB97XD) =  -2048.69837627     A.U. after   15 cycles

 The electronic state is 1-A.
 Alpha  occ. eigenvalues --  -19.25941 -19.21972 -19.20736 -14.52464 -14.52422
 Alpha  occ. eigenvalues --  -14.48868 -14.48465 -14.48072 -14.47870 -14.46892
 Alpha  occ. eigenvalues --  -14.46061 -14.45245 -14.43681 -14.42984 -14.42165
 Alpha  occ. eigenvalues --  -14.42165 -14.41162 -14.40827 -14.40567 -14.39903
 Alpha  occ. eigenvalues --  -10.45527 -10.41036 -10.40102 -10.39472 -10.38267
 Alpha  occ. eigenvalues --  -10.37878 -10.37759 -10.36696 -10.35209 -10.35074
 Alpha  occ. eigenvalues --  -10.35073 -10.34428 -10.34368 -10.33830 -10.33304
 Alpha  occ. eigenvalues --  -10.33060 -10.32798 -10.32185 -10.31206 -10.31027
 Alpha  occ. eigenvalues --  -10.30674 -10.28256 -10.28179  -1.19498  -1.15079
 Alpha  occ. eigenvalues --   -1.13406  -1.13009  -1.11051  -1.10691  -1.09370
 Alpha  occ. eigenvalues --   -1.09131  -1.08526  -1.04727  -1.04482  -1.02492
 Alpha  occ. eigenvalues --   -1.00997  -1.00221  -0.99861  -0.98673  -0.96749
 Alpha  occ. eigenvalues --   -0.96675  -0.96328  -0.92391  -0.91106  -0.87471
 Alpha  occ. eigenvalues --   -0.86049  -0.84186  -0.83651  -0.83576  -0.82610
 Alpha  occ. eigenvalues --   -0.82051  -0.78928  -0.76835  -0.74796  -0.74661
 Alpha  occ. eigenvalues --   -0.73685  -0.73360  -0.72675  -0.70791  -0.70297
 Alpha  occ. eigenvalues --   -0.67529  -0.66671  -0.66552  -0.66094  -0.64511
 Alpha  occ. eigenvalues --   -0.64232  -0.63824  -0.62931  -0.62505  -0.62048
 Alpha  occ. eigenvalues --   -0.60507  -0.60240  -0.60090  -0.59586  -0.59547
 Alpha  occ. eigenvalues --   -0.59338  -0.58499  -0.57123  -0.56324  -0.56076
 Alpha  occ. eigenvalues --   -0.56051  -0.55858  -0.55251  -0.54938  -0.54368
 Alpha  occ. eigenvalues --   -0.53997  -0.53695  -0.53171  -0.53033  -0.52943
 Alpha  occ. eigenvalues --   -0.52430  -0.52314  -0.51506  -0.50460  -0.50233
 Alpha  occ. eigenvalues --   -0.49952  -0.49463  -0.49371  -0.49027  -0.48827
 Alpha  occ. eigenvalues --   -0.48648  -0.48361  -0.48303  -0.48033  -0.47426
 Alpha  occ. eigenvalues --   -0.46644  -0.46092  -0.44804  -0.43986  -0.43653
 Alpha  occ. eigenvalues --   -0.40885  -0.40534  -0.39508  -0.37975  -0.37479
 Alpha  occ. eigenvalues --   -0.37328  -0.36909  -0.36747  -0.35874  -0.35039
 Alpha  occ. eigenvalues --   -0.34187  -0.33354  -0.33273  -0.33152  -0.32690
 Alpha  occ. eigenvalues --   -0.32465  -0.32013  -0.31893  -0.31368  -0.30536
 Alpha  occ. eigenvalues --   -0.30090  -0.29156  -0.25812  -0.25112
 Alpha virt. eigenvalues --    0.03013   0.04402   0.07553   0.08262   0.08305
 Alpha virt. eigenvalues --    0.09141   0.09445   0.10947   0.11451   0.11664
 Alpha virt. eigenvalues --    0.12339   0.13867   0.14282   0.14613   0.15032

 Mulliken charges:
               1
     1  N   -0.312487
     2  C    0.181688
     3  C    0.035831
     4  N   -0.260473
     5  C    0.134671
     6  H    0.025712
     7  N   -0.293130
     8  C    0.147739
     9  H    0.005222
    10  N   -0.291425
    11  C    0.252422
    12  C    0.123683
    13  N   -0.060832
    14  H    0.108221
    15  H    0.084383
    16  H    0.023859
    17  H    0.033389
    18  H    0.027005
    19  N   -0.312070
    20  C    0.243079
    21  C    0.181594
    22  N   -0.082119
    23  H    0.114579
    24  H    0.107721
    25  N   -0.291537
    26  C    0.204100
    27  N   -0.120381
    28  H    0.118839
    29  C    0.156123
    30  O   -0.316466
    31  C    0.015124
    32  N   -0.222001
    33  C    0.124567
    34  H    0.027540
    35  H    0.027957
    36  H    0.027940
    37  H    0.025084
    38  H    0.060844
    39  H    0.058327
    40  H    0.076600
    41  H    0.032014
    42  C   -0.111902
    43  O   -0.261251
    44  C    0.172154
    45  H    0.133228
    46  N   -0.129429
    47  O   -0.346289
    48  C    0.350205
    49  H    0.047362
    50  C    0.164482
    51  C    0.042448
    52  N   -0.291337
    53  H    0.039409
    54  H    0.040991
    55  H    0.026754
    56  H    0.120755
    57  H    0.115112
    58  N   -0.069682
    59  C    0.082548
    60  C    0.210307
    61  N   -0.270981
    62  H    0.039778
    63  C    0.170475
    64  N   -0.302742
    65  H    0.035031
    66  C    0.134223
    67  N   -0.267030
    68  C    0.054188
    69  C    0.161118
    70  N   -0.312861
 Sum of Mulliken charges =  -0.00000

 Dipole moment (field-independent basis, Debye):
    X=              9.0090    Y=              4.7969    Z=              2.5621  Tot=             10.5231
 Quadrupole moment (field-independent basis, Debye-Ang):
   XX=           -162.0821   YY=           -209.7515   ZZ=           -254.5418
   XY=             -6.4301   XZ=              2.0697   YZ=             -9.3204

 Normal termination of Gaussian 16 at Fri Jan 26 20:39:20 2018.
