 Gaussian 16, Revision A.03,
 Gaussian 16:  EM64L-G16RevA.03 25-Dec-2016

 ---------------------------------------
 #p wb97xd/cc-pvdz sp scf=(maxcycles=20)
 ---------------------------------------

 ------------------
 Base pair stacking
 ------------------
 Symbolic Z-matrix:
 Charge =  0 Multiplicity = 1

                         Standard orientation:
 ---------------------------------------------------------------------
 Center     Atomic      Atomic             Coordinates (Angstroms)
 Number     Number       Type             X           Y           Z
 ---------------------------------------------------------------------
      1          7           0       -5.892219   -1.746715    1.005947
      2          6           0       -7.295514   -1.298268    0.918278
      3          6           0       -3.700352   -1.785796    1.183365
      4          7           0       -4.104111   -3.108170    1.069310
      5          6           0       -5.408472   -3.031711    0.966992
      6          1           0       -6.073314   -3.889303    0.859963
      7          7           0       -2.379081    0.154725    1.410528
      8          6           0       -3.521993    0.846599    1.359113
      9          1           0       -3.414784    1.927867    1.434079
     10          7           0       -4.771594    0.405415    1.229601
     11          6           0       -4.791446   -0.935126    1.145927
     12          6           0       -2.432638   -1.192376    1.323684
     13          7           0       -1.292832   -1.884760    1.374813
     14          1           0       -1.285054   -2.883515    1.314315
     15          1           0       -0.408323   -1.429020    1.475262
     16          1           0       -7.821160   -1.694536    1.671164
     17          1           0       -7.331780   -0.301056    0.976338
     18          1           0       -7.688444   -1.594286    0.047661
     19          7           0       -2.913092    3.297113   -1.521990
     20          6           0       -1.664876    2.733560   -1.410621
     21          6           0       -3.227255    4.724472   -1.310663
     22          7           0        1.732228    3.052221   -0.762621
     23          1           0        2.536434    2.459216   -0.733668
     24          1           0        1.875118    4.020836   -0.557505
     25          7           0       -0.524837    3.383830   -1.091991
     26          6           0        0.516397    2.571065   -1.062890
     27          7           0        0.448522    1.224222   -1.325429
     28          1           0        1.296176    0.679828   -1.279904
     29          6           0       -0.713676    0.534061   -1.655320
     30          8           0       -0.666262   -0.682832   -1.873681
     31          6           0       -1.840718    1.393948   -1.690520
     32          7           0       -3.172528    1.121973   -1.971939
     33          6           0       -3.769262    2.277671   -1.860164
     34          1           0       -4.836109    2.443146   -2.014224
     35          1           0       -3.887804    4.815421   -0.566212
     36          1           0       -2.390355    5.216286   -1.074072
     37          1           0       -3.613734    5.109915   -2.147851
     38          1           0        5.737205   -1.576746   -0.261116
     39          1           0        5.931258   -1.518643   -2.011437
     40          1           0        5.022151   -0.254050   -1.183371
     41          1           0        2.943975   -5.265201   -1.580134
     42          6           0        2.911420   -4.176106   -1.547581
     43          8           0        0.556339   -4.055264   -1.804676
     44          6           0        1.650635   -3.509480   -1.665232
     45          1           0        0.851007   -1.625807   -1.691355
     46          7           0        1.721689   -2.132045   -1.611623
     47          8           0        2.813401   -0.149512   -1.424773
     48          6           0        2.851000   -1.366852   -1.461023
     49          1           0        5.013710   -3.915736   -1.305867
     50          6           0        4.030246   -3.457098   -1.399674
     51          6           0        5.260653   -1.307223   -1.191885
     52          7           0        4.027470   -2.082219   -1.354337
     53          1           0        4.285831    4.313095    2.394993
     54          1           0        3.098614    4.153041    1.287298
     55          1           0        4.661586    4.128300    0.817631
     56          1           0        2.229983   -2.799296    1.892172
     57          1           0        3.835222   -2.322839    2.218201
     58          7           0        2.902461   -2.062787    1.966094
     59          6           0        2.571155   -0.790090    1.738798
     60          6           0        2.986021    1.546420    1.564743
     61          7           0        1.725643    1.866298    1.227762
     62          1           0       -0.076663    0.944719    0.906839
     63          6           0        0.965302    0.774539    1.174417
     64          7           0        1.295263   -0.501022    1.401731
     65          1           0        6.107725    2.033782    2.250007
     66          6           0        5.120126    1.610430    2.064633
     67          7           0        4.829137    0.335030    2.144304
     68          6           0        3.479032    0.280618    1.829675
     69          6           0        4.022018    3.865941    1.540334
     70          7           0        4.051726    2.401216    1.718344
 ---------------------------------------------------------------------

 SCF Done:  E(RwB97XD) =  -2048.70762261     A.U. after   15 cycles

 The electronic state is 1-A.
 Alpha  occ. eigenvalues --  -19.25797 -19.21869 -19.20583 -14.52557 -14.52369
 Alpha  occ. eigenvalues --  -14.48740 -14.48350 -14.48296 -14.47759 -14.46806
 Alpha  occ. eigenvalues --  -14.45960 -14.45405 -14.43984 -14.43433 -14.42189
 Alpha  occ. eigenvalues --  -14.41943 -14.41047 -14.40714 -14.40478 -14.39905
 Alpha  occ. eigenvalues --  -10.45413 -10.40793 -10.40004 -10.39689 -10.38129
 Alpha  occ. eigenvalues --  -10.37922 -10.37815 -10.36951 -10.35230 -10.35176
 Alpha  occ. eigenvalues --  -10.34998 -10.34463 -10.34251 -10.33725 -10.33201
 Alpha  occ. eigenvalues --  -10.32956 -10.32716 -10.32429 -10.31144 -10.30941
 Alpha  occ. eigenvalues --  -10.30566 -10.28167 -10.28006  -1.19382  -1.15200
 Alpha  occ. eigenvalues --   -1.13211  -1.12901  -1.10940  -1.10553  -1.09286
 Alpha  occ. eigenvalues --   -1.09196  -1.08446  -1.04784  -1.04666  -1.02381
 Alpha  occ. eigenvalues --   -1.01058  -1.00171  -0.99691  -0.98515  -0.96733
 Alpha  occ. eigenvalues --   -0.96565  -0.96469  -0.92356  -0.91035  -0.87612
 Alpha  occ. eigenvalues --   -0.86142  -0.84042  -0.83551  -0.83492  -0.82483
 Alpha  occ. eigenvalues --   -0.81959  -0.78843  -0.76973  -0.74959  -0.74501
 Alpha  occ. eigenvalues --   -0.73543  -0.73257  -0.72614  -0.70721  -0.70451
 Alpha  occ. eigenvalues --   -0.67334  -0.66844  -0.66473  -0.66029  -0.64436
 Alpha  occ. eigenvalues --   -0.64326  -0.63714  -0.62810  -0.62439  -0.61694
 Alpha  occ. eigenvalues --   -0.60697  -0.60255  -0.60164  -0.59536  -0.59462
 Alpha  occ. eigenvalues --   -0.59387  -0.58361  -0.56892  -0.56265  -0.55973
 Alpha  occ. eigenvalues --   -0.55955  -0.55723  -0.55219  -0.54967  -0.54331
 Alpha  occ. eigenvalues --   -0.54085  -0.53598  -0.53198  -0.53065  -0.52905
 Alpha  occ. eigenvalues --   -0.52574  -0.52265  -0.51415  -0.50380  -0.50114
 Alpha  occ. eigenvalues --   -0.49869  -0.49558  -0.49440  -0.49155  -0.48719
 Alpha  occ. eigenvalues --   -0.48630  -0.48215  -0.47937  -0.47800  -0.47292
 Alpha  occ. eigenvalues --   -0.46531  -0.45962  -0.44739  -0.44277  -0.43849
 Alpha  occ. eigenvalues --   -0.41021  -0.40804  -0.39404  -0.38007  -0.37761
 Alpha  occ. eigenvalues --   -0.37193  -0.36858  -0.36765  -0.35726  -0.35084
 Alpha  occ. eigenvalues --   -0.34345  -0.33302  -0.33230  -0.33037  -0.32576
 Alpha  occ. eigenvalues --   -0.32325  -0.31916  -0.31767  -0.31302  -0.30507
 Alpha  occ. eigenvalues --   -0.30066  -0.29547  -0.25657  -0.24799
 Alpha virt. eigenvalues --    0.03035   0.04340   0.07159   0.08310   0.08424
 Alpha virt. eigenvalues --    0.09329   0.09624   0.10864   0.11480   0.11494
 Alpha virt. eigenvalues --    0.12122   0.13912   0.14466   0.14693   0.15004

 Mulliken charges:
               1
     1  N   -0.312920
     2  C    0.182001
     3  C    0.038405
     4  N   -0.260570
     5  C    0.135415
     6  H    0.025555
     7  N   -0.294833
     8  C    0.148149
     9  H    0.006476
    10  N   -0.289141
    11  C    0.255582
    12  C    0.120769
    13  N   -0.062326
    14  H    0.108202
    15  H    0.082702
    16  H    0.023311
    17  H    0.033026
    18  H    0.027410
    19  N   -0.311186
    20  C    0.242827
    21  C    0.181297
    22  N   -0.067778
    23  H    0.111639
    24  H    0.110268
    25  N   -0.300653
    26  C    0.208010
    27  N   -0.137503
    28  H    0.125131
    29  C    0.171755
    30  O   -0.320012
    31  C    0.005305
    32  N   -0.222356
    33  C    0.126518
    34  H    0.025217
    35  H    0.027904
    36  H    0.027938
    37  H    0.024679
    38  H    0.058673
    39  H    0.059029
    40  H    0.076579
    41  H    0.031633
    42  C   -0.112888
    43  O   -0.260868
    44  C    0.173553
    45  H    0.133081
    46  N   -0.127453
    47  O   -0.345606
    48  C    0.346292
    49  H    0.046445
    50  C    0.163146
    51  C    0.041793
    52  N   -0.288126
    53  H    0.039307
    54  H    0.031194
    55  H    0.030732
    56  H    0.119159
    57  H    0.115580
    58  N   -0.067400
    59  C    0.082719
    60  C    0.225745
    61  N   -0.280761
    62  H    0.038287
    63  C    0.165846
    64  N   -0.301147
    65  H    0.036565
    66  C    0.136172
    67  N   -0.266807
    68  C    0.046976
    69  C    0.170789
    70  N   -0.314451
 Sum of Mulliken charges =  -0.00000

 Dipole moment (field-independent basis, Debye):
    X=              9.2065    Y=              4.8839    Z=              2.3981  Tot=             10.6941
 Quadrupole moment (field-independent basis, Debye-Ang):
   XX=           -163.9967   YY=           -209.1267   ZZ=           -254.8534
   XY=             -6.7402   XZ=             -1.7627   YZ=             -8.2998

 Normal termination of Gaussian 16 at Fri Jan 26 20:16:35 2018.
