 Gaussian 16, Revision A.03,
 Gaussian 16:  EM64L-G16RevA.03 25-Dec-2016

 ---------------------------------------
 #p wb97xd/cc-pvdz sp scf=(maxcycles=20)
 ---------------------------------------

 ------------------
 Base pair stacking
 ------------------
 Symbolic Z-matrix:
 Charge =  0 Multiplicity = 1

                         Standard orientation:
 ---------------------------------------------------------------------
 Center     Atomic      Atomic             Coordinates (Angstroms)
 Number     Number       Type             X           Y           Z
 ---------------------------------------------------------------------
      1          7           0        4.952036   -2.022339   -1.583830
      2          6           0        6.367795   -1.615412   -1.673635
      3          6           0        2.754102   -1.998544   -1.507631
      4          7           0        3.132028   -3.328480   -1.392855
      5          6           0        4.441084   -3.289579   -1.443353
      6          1           0        5.090133   -4.163616   -1.382231
      7          7           0        1.468985   -0.026087   -1.651974
      8          6           0        2.628671    0.630972   -1.756763
      9          1           0        2.543124    1.712031   -1.857980
     10          7           0        3.872336    0.155353   -1.755306
     11          6           0        3.865062   -1.181685   -1.626090
     12          6           0        1.495364   -1.370628   -1.523232
     13          7           0        0.338781   -2.028295   -1.418495
     14          1           0        0.310740   -3.023792   -1.321479
     15          1           0       -0.538617   -1.548616   -1.433431
     16          1           0        6.791940   -2.052382   -2.466949
     17          1           0        6.424362   -0.622260   -1.771448
     18          1           0        6.850408   -1.894931   -0.843614
     19          7           0        3.912355    3.313891    1.031406
     20          6           0        2.644691    2.786356    1.084095
     21          6           0        4.238922    4.723030    0.734086
     22          7           0       -0.794529    3.189851    0.818170
     23          1           0       -1.612607    2.621688    0.902913
     24          1           0       -0.933608    4.155232    0.595910
     25          7           0        1.493699    3.461217    0.874795
     26          6           0        0.434233    2.680946    0.994459
     27          7           0        0.495129    1.341956    1.295980
     28          1           0       -0.366676    0.823172    1.367487
     29          6           0        1.668344    0.626901    1.515368
     30          8           0        1.613224   -0.580097    1.781543
     31          6           0        2.814993    1.451777    1.390227
     32          7           0        4.162465    1.147593    1.526982
     33          6           0        4.773658    2.279759    1.305953
     34          1           0        5.855282    2.416699    1.330780
     35          1           0        4.811308    4.768834   -0.083877
     36          1           0        3.394058    5.232801    0.577248
     37          1           0        4.729886    5.123383    1.507060
     38          1           0       -4.955663   -1.325370    0.945997
     39          1           0       -4.944613   -1.203955    2.703767
     40          1           0       -4.102995    0.003765    1.731935
     41          1           0       -2.130684   -5.054327    2.068928
     42          6           0       -2.072346   -3.968433    1.993555
     43          8           0        0.299088   -3.913045    1.974805
     44          6           0       -0.788657   -3.338121    1.941930
     45          1           0        0.059834   -1.480565    1.808283
     46          7           0       -0.827744   -1.961628    1.847098
     47          8           0       -1.879110    0.046939    1.714968
     48          6           0       -1.945545   -1.166791    1.799221
     49          1           0       -4.180563   -3.650415    1.984845
     50          6           0       -3.180687   -3.219974    1.948819
     51          6           0       -4.367622   -1.040578    1.805743
     52          7           0       -3.145579   -1.848077    1.853829
     53          1           0       -5.148833    4.304493   -2.016539
     54          1           0       -3.846452    4.143682   -1.046974
     55          1           0       -5.344811    4.183293   -0.400882
     56          1           0       -3.243888   -2.848520   -1.495797
     57          1           0       -4.862402   -2.332947   -1.652901
     58          7           0       -3.900014   -2.094130   -1.518802
     59          6           0       -3.510004   -0.825673   -1.377049
     60          6           0       -3.837961    1.527139   -1.241149
     61          7           0       -2.538824    1.818242   -1.062455
     62          1           0       -0.737390    0.851681   -0.916883
     63          6           0       -1.807545    0.705542   -1.057104
     64          7           0       -2.196301   -0.565808   -1.198918
     65          1           0       -7.003419    2.089315   -1.581699
     66          6           0       -6.012966    1.641544   -1.495424
     67          7           0       -5.768102    0.355723   -1.561760
     68          6           0       -4.392689    0.269389   -1.402011
     69          6           0       -4.800393    3.877509   -1.182097
     70          7           0       -4.890503    2.409390   -1.302511
 ---------------------------------------------------------------------

 SCF Done:  E(RwB97XD) =  -2048.74480257     A.U. after   15 cycles

 The electronic state is 1-A.
 Alpha  occ. eigenvalues --  -19.25269 -19.21485 -19.20289 -14.52764 -14.52064
 Alpha  occ. eigenvalues --  -14.49154 -14.48603 -14.48142 -14.47329 -14.46463
 Alpha  occ. eigenvalues --  -14.45720 -14.45679 -14.44911 -14.44901 -14.42732
 Alpha  occ. eigenvalues --  -14.41642 -14.40868 -14.40636 -14.40480 -14.40148
 Alpha  occ. eigenvalues --  -10.44979 -10.40755 -10.40588 -10.39616 -10.38256
 Alpha  occ. eigenvalues --  -10.37908 -10.37641 -10.37574 -10.36366 -10.35402
 Alpha  occ. eigenvalues --  -10.34742 -10.34248 -10.34086 -10.33571 -10.33109
 Alpha  occ. eigenvalues --  -10.33109 -10.32877 -10.32718 -10.30898 -10.30851
 Alpha  occ. eigenvalues --  -10.30232 -10.28145 -10.27800  -1.18951  -1.15525
 Alpha  occ. eigenvalues --   -1.12845  -1.12497  -1.10780  -1.10340  -1.09926
 Alpha  occ. eigenvalues --   -1.08927  -1.08121  -1.05521  -1.04871  -1.01978
 Alpha  occ. eigenvalues --   -1.01331  -1.00377  -0.99116  -0.98217  -0.97472
 Alpha  occ. eigenvalues --   -0.96502  -0.96359  -0.92552  -0.90770  -0.88052
 Alpha  occ. eigenvalues --   -0.86280  -0.83846  -0.83429  -0.83215  -0.82309
 Alpha  occ. eigenvalues --   -0.81807  -0.78534  -0.77525  -0.75404  -0.74321
 Alpha  occ. eigenvalues --   -0.73166  -0.72893  -0.72682  -0.70976  -0.70704
 Alpha  occ. eigenvalues --   -0.67455  -0.66891  -0.66126  -0.66091  -0.64792
 Alpha  occ. eigenvalues --   -0.64149  -0.63481  -0.62542  -0.62409  -0.61291
 Alpha  occ. eigenvalues --   -0.60995  -0.60654  -0.60218  -0.59711  -0.59339
 Alpha  occ. eigenvalues --   -0.59170  -0.57781  -0.56639  -0.56301  -0.55735
 Alpha  occ. eigenvalues --   -0.55668  -0.55656  -0.55433  -0.54718  -0.54194
 Alpha  occ. eigenvalues --   -0.53948  -0.53500  -0.53361  -0.53113  -0.52818
 Alpha  occ. eigenvalues --   -0.52620  -0.52033  -0.51290  -0.50387  -0.50219
 Alpha  occ. eigenvalues --   -0.49868  -0.49795  -0.49723  -0.49023  -0.48686
 Alpha  occ. eigenvalues --   -0.48501  -0.47989  -0.47846  -0.47382  -0.46996
 Alpha  occ. eigenvalues --   -0.46500  -0.45687  -0.45376  -0.44197  -0.43614
 Alpha  occ. eigenvalues --   -0.41256  -0.40914  -0.38965  -0.38217  -0.38048
 Alpha  occ. eigenvalues --   -0.37113  -0.36975  -0.36564  -0.35542  -0.35015
 Alpha  occ. eigenvalues --   -0.34952  -0.33369  -0.33240  -0.33097  -0.32678
 Alpha  occ. eigenvalues --   -0.32334  -0.32214  -0.31655  -0.31609  -0.30682
 Alpha  occ. eigenvalues --   -0.30482  -0.30108  -0.25696  -0.24969
 Alpha virt. eigenvalues --    0.02887   0.04016   0.06300   0.08226   0.09020
 Alpha virt. eigenvalues --    0.09576   0.10081   0.10296   0.11237   0.11267
 Alpha virt. eigenvalues --    0.12816   0.14179   0.14708   0.15031   0.15234

 Mulliken charges:
               1
     1  N   -0.314003
     2  C    0.183665
     3  C    0.050292
     4  N   -0.261360
     5  C    0.139894
     6  H    0.026247
     7  N   -0.295765
     8  C    0.134703
     9  H    0.013544
    10  N   -0.278630
    11  C    0.263744
    12  C    0.103494
    13  N   -0.069794
    14  H    0.109139
    15  H    0.079681
    16  H    0.021108
    17  H    0.033679
    18  H    0.030107
    19  N   -0.310248
    20  C    0.245366
    21  C    0.180625
    22  N   -0.093879
    23  H    0.109595
    24  H    0.112083
    25  N   -0.309872
    26  C    0.225040
    27  N   -0.140205
    28  H    0.114748
    29  C    0.189295
    30  O   -0.323551
    31  C   -0.019181
    32  N   -0.223491
    33  C    0.127944
    34  H    0.021638
    35  H    0.027437
    36  H    0.028502
    37  H    0.024209
    38  H    0.048719
    39  H    0.060888
    40  H    0.075557
    41  H    0.030289
    42  C   -0.114678
    43  O   -0.258099
    44  C    0.175353
    45  H    0.134734
    46  N   -0.129176
    47  O   -0.344340
    48  C    0.351201
    49  H    0.043258
    50  C    0.160486
    51  C    0.042116
    52  N   -0.284577
    53  H    0.036180
    54  H    0.035230
    55  H    0.031769
    56  H    0.118546
    57  H    0.120280
    58  N   -0.061487
    59  C    0.079628
    60  C    0.255132
    61  N   -0.284780
    62  H    0.042347
    63  C    0.175897
    64  N   -0.308498
    65  H    0.039974
    66  C    0.141192
    67  N   -0.261532
    68  C    0.027109
    69  C    0.180180
    70  N   -0.314697
 Sum of Mulliken charges =  -0.00000

 Dipole moment (field-independent basis, Debye):
    X=             -9.4976    Y=              5.0072    Z=             -1.7839  Tot=             10.8839
 Quadrupole moment (field-independent basis, Debye-Ang):
   XX=           -171.4686   YY=           -208.1279   ZZ=           -253.1752
   XY=              7.9204   XZ=            -13.1717   YZ=              6.0860

 Normal termination of Gaussian 16 at Fri Jan 26 22:21:01 2018.
