 Gaussian 16, Revision A.03,
 Gaussian 16:  EM64L-G16RevA.03 25-Dec-2016

 ---------------------------------------
 #p wb97xd/cc-pvdz sp scf=(maxcycles=20)
 ---------------------------------------

 ------------------
 Base pair stacking
 ------------------
 Symbolic Z-matrix:
 Charge =  0 Multiplicity = 1

                         Standard orientation:
 ---------------------------------------------------------------------
 Center     Atomic      Atomic             Coordinates (Angstroms)
 Number     Number       Type             X           Y           Z
 ---------------------------------------------------------------------
      1          7           0       -5.928831   -1.761576    0.981226
      2          6           0       -7.334862   -1.313385    0.966344
      3          6           0       -3.734078   -1.808467    1.116022
      4          7           0       -4.135558   -3.112880    0.866917
      5          6           0       -5.441754   -3.032416    0.795676
      6          1           0       -6.105623   -3.876834    0.608127
      7          7           0       -2.415238    0.102914    1.528584
      8          6           0       -3.561072    0.790521    1.571567
      9          1           0       -3.456010    1.857934    1.760866
     10          7           0       -4.811328    0.359552    1.416529
     11          6           0       -4.828366   -0.964241    1.189135
     12          6           0       -2.466011   -1.227234    1.297908
     13          7           0       -1.323283   -1.915330    1.254637
     14          1           0       -1.313385   -2.901692    1.086674
     15          1           0       -0.438614   -1.468604    1.388570
     16          1           0       -7.846012   -1.791127    1.680947
     17          1           0       -7.373286   -0.328431    1.132215
     18          1           0       -7.742007   -1.515832    0.075700
     19          7           0       -2.850034    3.369863   -1.584007
     20          6           0       -1.603639    2.798834   -1.492038
     21          6           0       -3.144329    4.807837   -1.421760
     22          7           0        1.816500    3.109750   -0.974582
     23          1           0        2.616067    2.510368   -0.948488
     24          1           0        1.974780    4.084545   -0.815060
     25          7           0       -0.447668    3.450194   -1.240026
     26          6           0        0.586886    2.628874   -1.212718
     27          7           0        0.498301    1.273073   -1.416384
     28          1           0        1.342278    0.722506   -1.377242
     29          6           0       -0.680561    0.581610   -1.677217
     30          8           0       -0.651268   -0.643690   -1.846141
     31          6           0       -1.800659    1.450638   -1.709634
     32          7           0       -3.143723    1.180701   -1.933710
     33          6           0       -3.726192    2.345990   -1.849857
     34          1           0       -4.796259    2.515708   -1.974065
     35          1           0       -3.777887    4.936182   -0.659571
     36          1           0       -2.295516    5.300560   -1.234676
     37          1           0       -3.556207    5.162191   -2.260572
     38          1           0        5.796215   -1.534662   -0.417906
     39          1           0        5.930040   -1.550997   -2.174743
     40          1           0        5.061128   -0.244117   -1.369486
     41          1           0        2.927169   -5.246171   -1.485523
     42          6           0        2.905187   -4.156390   -1.497329
     43          8           0        0.543746   -4.022535   -1.678447
     44          6           0        1.646894   -3.482516   -1.599443
     45          1           0        0.863185   -1.593569   -1.676696
     46          7           0        1.731689   -2.104832   -1.605788
     47          8           0        2.846337   -0.127375   -1.539269
     48          6           0        2.872125   -1.345497   -1.525986
     49          1           0        5.016759   -3.907469   -1.338805
     50          6           0        4.034638   -3.443203   -1.417928
     51          6           0        5.290072   -1.299090   -1.342238
     52          7           0        4.045350   -2.067664   -1.429902
     53          1           0        4.252581    4.164595    2.842085
     54          1           0        3.046699    4.118854    1.743976
     55          1           0        4.601288    4.152774    1.247825
     56          1           0        2.210932   -2.862486    1.610280
     57          1           0        3.820096   -2.415827    1.958393
     58          7           0        2.882252   -2.134842    1.751726
     59          6           0        2.542962   -0.846756    1.668682
     60          6           0        2.947279    1.496984    1.740571
     61          7           0        1.680193    1.844934    1.461581
     62          1           0       -0.124509    0.954219    1.073888
     63          6           0        0.922522    0.761453    1.303766
     64          7           0        1.260466   -0.529489    1.386539
     65          1           0        6.078917    1.923420    2.421128
     66          6           0        5.089590    1.517522    2.208026
     67          7           0        4.804100    0.239509    2.154632
     68          6           0        3.448883    0.212494    1.859021
     69          6           0        3.975298    3.810825    1.948804
     70          7           0        4.012781    2.335612    1.967279
 ---------------------------------------------------------------------

 SCF Done:  E(RwB97XD) =  -2048.73752271     A.U. after   15 cycles

 The electronic state is 1-A.
 Alpha  occ. eigenvalues --  -19.25923 -19.22094 -19.20633 -14.52508 -14.52299
 Alpha  occ. eigenvalues --  -14.48800 -14.48298 -14.48230 -14.47904 -14.46920
 Alpha  occ. eigenvalues --  -14.46481 -14.45269 -14.44002 -14.43783 -14.42036
 Alpha  occ. eigenvalues --  -14.41952 -14.40900 -14.40800 -14.40358 -14.39765
 Alpha  occ. eigenvalues --  -10.45545 -10.41109 -10.40215 -10.39717 -10.38209
 Alpha  occ. eigenvalues --  -10.38004 -10.37791 -10.36883 -10.35336 -10.35115
 Alpha  occ. eigenvalues --  -10.35004 -10.34336 -10.33992 -10.33585 -10.33266
 Alpha  occ. eigenvalues --  -10.32826 -10.32587 -10.32385 -10.31330 -10.30982
 Alpha  occ. eigenvalues --  -10.30483 -10.28093 -10.28019  -1.19499  -1.14988
 Alpha  occ. eigenvalues --   -1.13228  -1.13107  -1.10811  -1.10601  -1.09409
 Alpha  occ. eigenvalues --   -1.09107  -1.08521  -1.04674  -1.04517  -1.02541
 Alpha  occ. eigenvalues --   -1.00839  -0.99997  -0.99717  -0.98562  -0.96664
 Alpha  occ. eigenvalues --   -0.96598  -0.96399  -0.92200  -0.91212  -0.87419
 Alpha  occ. eigenvalues --   -0.85841  -0.84109  -0.83624  -0.83427  -0.82532
 Alpha  occ. eigenvalues --   -0.81837  -0.79002  -0.76851  -0.74707  -0.74537
 Alpha  occ. eigenvalues --   -0.73656  -0.73411  -0.72461  -0.70577  -0.70277
 Alpha  occ. eigenvalues --   -0.67374  -0.66694  -0.66609  -0.65872  -0.64515
 Alpha  occ. eigenvalues --   -0.64161  -0.63812  -0.62758  -0.62275  -0.61727
 Alpha  occ. eigenvalues --   -0.60464  -0.60115  -0.60006  -0.59607  -0.59490
 Alpha  occ. eigenvalues --   -0.59239  -0.58364  -0.56742  -0.56169  -0.56032
 Alpha  occ. eigenvalues --   -0.55862  -0.55326  -0.55018  -0.54737  -0.54419
 Alpha  occ. eigenvalues --   -0.53836  -0.53697  -0.53249  -0.53086  -0.52990
 Alpha  occ. eigenvalues --   -0.52547  -0.52410  -0.51309  -0.50241  -0.50178
 Alpha  occ. eigenvalues --   -0.49767  -0.49509  -0.49504  -0.49125  -0.48856
 Alpha  occ. eigenvalues --   -0.48465  -0.48313  -0.48120  -0.47838  -0.47379
 Alpha  occ. eigenvalues --   -0.46444  -0.45753  -0.44713  -0.44420  -0.44024
 Alpha  occ. eigenvalues --   -0.40655  -0.40531  -0.39489  -0.37772  -0.37493
 Alpha  occ. eigenvalues --   -0.37274  -0.36993  -0.36645  -0.35883  -0.34946
 Alpha  occ. eigenvalues --   -0.34221  -0.33301  -0.33208  -0.33097  -0.32743
 Alpha  occ. eigenvalues --   -0.32643  -0.32366  -0.32104  -0.31829  -0.30389
 Alpha  occ. eigenvalues --   -0.29950  -0.29731  -0.25664  -0.25027
 Alpha virt. eigenvalues --    0.02827   0.04326   0.07377   0.08244   0.08512
 Alpha virt. eigenvalues --    0.09242   0.09636   0.10825   0.11411   0.11589
 Alpha virt. eigenvalues --    0.12121   0.13947   0.14434   0.14820   0.14999

 Mulliken charges:
               1
     1  N   -0.312639
     2  C    0.181839
     3  C    0.038648
     4  N   -0.259215
     5  C    0.134906
     6  H    0.025109
     7  N   -0.296592
     8  C    0.145169
     9  H    0.006610
    10  N   -0.290737
    11  C    0.254397
    12  C    0.121437
    13  N   -0.060616
    14  H    0.110260
    15  H    0.082927
    16  H    0.023253
    17  H    0.033053
    18  H    0.026787
    19  N   -0.312848
    20  C    0.246778
    21  C    0.181125
    22  N   -0.095326
    23  H    0.114039
    24  H    0.112432
    25  N   -0.304596
    26  C    0.222845
    27  N   -0.139197
    28  H    0.120762
    29  C    0.176048
    30  O   -0.319597
    31  C    0.000696
    32  N   -0.224161
    33  C    0.128905
    34  H    0.026209
    35  H    0.028247
    36  H    0.028214
    37  H    0.024810
    38  H    0.059882
    39  H    0.059191
    40  H    0.076334
    41  H    0.032025
    42  C   -0.112908
    43  O   -0.261437
    44  C    0.167561
    45  H    0.133487
    46  N   -0.124632
    47  O   -0.345213
    48  C    0.344014
    49  H    0.047065
    50  C    0.160807
    51  C    0.041542
    52  N   -0.285592
    53  H    0.036367
    54  H    0.040540
    55  H    0.025959
    56  H    0.121392
    57  H    0.115557
    58  N   -0.066827
    59  C    0.085204
    60  C    0.224638
    61  N   -0.263232
    62  H    0.039432
    63  C    0.164924
    64  N   -0.303464
    65  H    0.036060
    66  C    0.136589
    67  N   -0.269484
    68  C    0.044319
    69  C    0.172774
    70  N   -0.312850
 Sum of Mulliken charges =  -0.00000

 Dipole moment (field-independent basis, Debye):
    X=              9.4312    Y=              4.8663    Z=              1.7609  Tot=             10.7578
 Quadrupole moment (field-independent basis, Debye-Ang):
   XX=           -164.2056   YY=           -208.2887   ZZ=           -253.1418
   XY=             -7.0804   XZ=             -1.1180   YZ=             -6.2549

 Normal termination of Gaussian 16 at Fri Jan 26 18:24:21 2018.
