 Gaussian 16, Revision A.03,
 Gaussian 16:  EM64L-G16RevA.03 25-Dec-2016

 ---------------------------------------
 #p wb97xd/cc-pvdz sp scf=(maxcycles=20)
 ---------------------------------------

 ------------------
 Base pair stacking
 ------------------
 Symbolic Z-matrix:
 Charge =  0 Multiplicity = 1

                         Standard orientation:
 ---------------------------------------------------------------------
 Center     Atomic      Atomic             Coordinates (Angstroms)
 Number     Number       Type             X           Y           Z
 ---------------------------------------------------------------------
      1          7           0        5.269676   -1.900920   -1.404287
      2          6           0        6.682758   -1.475372   -1.394676
      3          6           0        3.070581   -1.903370   -1.440265
      4          7           0        3.459401   -3.234219   -1.391509
      5          6           0        4.768717   -3.179482   -1.371784
      6          1           0        5.425104   -4.049312   -1.333320
      7          7           0        1.768994    0.061766   -1.524201
      8          6           0        2.923882    0.735418   -1.526715
      9          1           0        2.829564    1.819879   -1.562800
     10          7           0        4.171922    0.272749   -1.491525
     11          6           0        4.175437   -1.069854   -1.448701
     12          6           0        1.806224   -1.287969   -1.480596
     13          7           0        0.654443   -1.962182   -1.478010
     14          1           0        0.634422   -2.962102   -1.446494
     15          1           0       -0.227205   -1.491060   -1.507475
     16          1           0        7.152365   -1.856061   -2.191377
     17          1           0        6.731339   -0.477469   -1.425660
     18          1           0        7.126109   -1.803239   -0.560440
     19          7           0        3.591787    3.295972    1.187793
     20          6           0        2.329822    2.752582    1.173141
     21          6           0        3.917573    4.705987    0.893813
     22          7           0       -1.092947    3.108464    0.704326
     23          1           0       -1.907471    2.530647    0.748118
     24          1           0       -1.230848    4.069536    0.463414
     25          7           0        1.184625    3.410159    0.889998
     26          6           0        0.129737    2.617495    0.957126
     27          7           0        0.189615    1.282692    1.276887
     28          1           0       -0.668405    0.753544    1.304382
     29          6           0        1.356906    0.585342    1.571845
     30          8           0        1.301378   -0.619375    1.848115
     31          6           0        2.498589    1.423678    1.503785
     32          7           0        3.839529    1.138514    1.721633
     33          6           0        4.448458    2.276110    1.523414
     34          1           0        5.525051    2.427367    1.609156
     35          1           0        4.535774    4.750504    0.109818
     36          1           0        3.076980    5.203027    0.682608
     37          1           0        4.357952    5.120902    1.689246
     38          1           0       -5.198350   -1.458865    0.642891
     39          1           0       -5.290648   -1.318581    2.396879
     40          1           0       -4.409136   -0.110454    1.461602
     41          1           0       -2.397273   -5.138583    1.969630
     42          6           0       -2.348102   -4.052898    1.885382
     43          8           0        0.019574   -3.966874    2.003086
     44          6           0       -1.071464   -3.406532    1.900857
     45          1           0       -0.239689   -1.539624    1.795304
     46          7           0       -1.122013   -2.031748    1.788242
     47          8           0       -2.188721   -0.038544    1.572691
     48          6           0       -2.244908   -1.252078    1.666800
     49          1           0       -4.456044   -3.762431    1.751229
     50          6           0       -3.461153   -3.319434    1.768148
     51          6           0       -4.664668   -1.157299    1.531889
     52          7           0       -3.437572   -1.948279    1.659724
     53          1           0       -4.877345    4.342607   -1.951888
     54          1           0       -3.624011    4.132120   -0.928677
     55          1           0       -5.153694    4.115414   -0.359584
     56          1           0       -2.908705   -2.810327   -1.792472
     57          1           0       -4.523685   -2.301381   -1.999586
     58          7           0       -3.572542   -2.062411   -1.800973
     59          6           0       -3.206750   -0.802045   -1.558371
     60          6           0       -3.571697    1.533786   -1.289254
     61          7           0       -2.287222    1.825295   -1.025475
     62          1           0       -0.483134    0.868837   -0.849291
     63          6           0       -1.542789    0.721706   -1.053622
     64          7           0       -1.907289   -0.541531   -1.296411
     65          1           0       -6.722757    2.086131   -1.756047
     66          6           0       -5.732247    1.643321   -1.647600
     67          7           0       -5.467666    0.366909   -1.783383
     68          6           0       -4.101160    0.283752   -1.558708
     69          6           0       -4.566316    3.866013   -1.129624
     70          7           0       -4.631123    2.407940   -1.348257
 ---------------------------------------------------------------------

 SCF Done:  E(RwB97XD) =  -2048.72470037     A.U. after   15 cycles

 The electronic state is 1-A.
 Alpha  occ. eigenvalues --  -19.25365 -19.21567 -19.20192 -14.52874 -14.52152
 Alpha  occ. eigenvalues --  -14.49056 -14.48439 -14.48241 -14.47432 -14.46295
 Alpha  occ. eigenvalues --  -14.45753 -14.45000 -14.44801 -14.44478 -14.42622
 Alpha  occ. eigenvalues --  -14.41366 -14.40975 -14.40458 -14.40430 -14.40091
 Alpha  occ. eigenvalues --  -10.45074 -10.40512 -10.40447 -10.39704 -10.38332
 Alpha  occ. eigenvalues --  -10.37784 -10.37619 -10.37606 -10.36188 -10.35370
 Alpha  occ. eigenvalues --  -10.34849 -10.34524 -10.33887 -10.33658 -10.33076
 Alpha  occ. eigenvalues --  -10.32918 -10.32901 -10.32709 -10.30948 -10.30725
 Alpha  occ. eigenvalues --  -10.30372 -10.28173 -10.27577  -1.19071  -1.15603
 Alpha  occ. eigenvalues --   -1.12724  -1.12587  -1.10859  -1.10202  -1.09875
 Alpha  occ. eigenvalues --   -1.09020  -1.07968  -1.05516  -1.04834  -1.02076
 Alpha  occ. eigenvalues --   -1.01418  -1.00338  -0.98966  -0.98069  -0.97359
 Alpha  occ. eigenvalues --   -0.96575  -0.96201  -0.92518  -0.90831  -0.88112
 Alpha  occ. eigenvalues --   -0.86436  -0.83674  -0.83486  -0.83301  -0.82172
 Alpha  occ. eigenvalues --   -0.81887  -0.78611  -0.77533  -0.75496  -0.74154
 Alpha  occ. eigenvalues --   -0.73076  -0.72939  -0.72698  -0.71012  -0.70726
 Alpha  occ. eigenvalues --   -0.67502  -0.66768  -0.66185  -0.66106  -0.64861
 Alpha  occ. eigenvalues --   -0.64121  -0.63435  -0.62546  -0.62450  -0.61222
 Alpha  occ. eigenvalues --   -0.60954  -0.60654  -0.60343  -0.59739  -0.59438
 Alpha  occ. eigenvalues --   -0.59220  -0.57818  -0.56704  -0.56206  -0.55844
 Alpha  occ. eigenvalues --   -0.55783  -0.55779  -0.55433  -0.54689  -0.54476
 Alpha  occ. eigenvalues --   -0.53929  -0.53565  -0.53303  -0.53159  -0.52770
 Alpha  occ. eigenvalues --   -0.52517  -0.52084  -0.51349  -0.50461  -0.50080
 Alpha  occ. eigenvalues --   -0.49887  -0.49806  -0.49707  -0.49048  -0.48740
 Alpha  occ. eigenvalues --   -0.48440  -0.47927  -0.47791  -0.47162  -0.46952
 Alpha  occ. eigenvalues --   -0.46433  -0.45695  -0.45263  -0.44207  -0.43669
 Alpha  occ. eigenvalues --   -0.41410  -0.40881  -0.39076  -0.38250  -0.38147
 Alpha  occ. eigenvalues --   -0.37055  -0.36813  -0.36641  -0.35519  -0.35023
 Alpha  occ. eigenvalues --   -0.34787  -0.33332  -0.33239  -0.32708  -0.32260
 Alpha  occ. eigenvalues --   -0.32195  -0.31977  -0.31688  -0.31470  -0.30655
 Alpha  occ. eigenvalues --   -0.30463  -0.30151  -0.25578  -0.24642
 Alpha virt. eigenvalues --    0.02819   0.03985   0.06231   0.08314   0.08871
 Alpha virt. eigenvalues --    0.09545   0.10208   0.10310   0.11265   0.11380
 Alpha virt. eigenvalues --    0.12451   0.13992   0.14707   0.15072   0.15144

 Mulliken charges:
               1
     1  N   -0.313823
     2  C    0.183120
     3  C    0.044949
     4  N   -0.262302
     5  C    0.138127
     6  H    0.025930
     7  N   -0.299234
     8  C    0.144263
     9  H    0.013020
    10  N   -0.280525
    11  C    0.262298
    12  C    0.111137
    13  N   -0.066808
    14  H    0.107506
    15  H    0.079174
    16  H    0.021880
    17  H    0.033413
    18  H    0.029237
    19  N   -0.308357
    20  C    0.238812
    21  C    0.180806
    22  N   -0.069658
    23  H    0.109265
    24  H    0.109922
    25  N   -0.306707
    26  C    0.207946
    27  N   -0.149170
    28  H    0.119955
    29  C    0.192675
    30  O   -0.324970
    31  C   -0.024716
    32  N   -0.219279
    33  C    0.127967
    34  H    0.020728
    35  H    0.027334
    36  H    0.027890
    37  H    0.023843
    38  H    0.050252
    39  H    0.061099
    40  H    0.076537
    41  H    0.030771
    42  C   -0.113838
    43  O   -0.259253
    44  C    0.177554
    45  H    0.133427
    46  N   -0.129545
    47  O   -0.343224
    48  C    0.347258
    49  H    0.044237
    50  C    0.162031
    51  C    0.042369
    52  N   -0.285438
    53  H    0.037929
    54  H    0.029977
    55  H    0.033170
    56  H    0.118455
    57  H    0.118953
    58  N   -0.061076
    59  C    0.083638
    60  C    0.261949
    61  N   -0.299457
    62  H    0.060202
    63  C    0.163544
    64  N   -0.304117
    65  H    0.039811
    66  C    0.139434
    67  N   -0.261325
    68  C    0.024457
    69  C    0.180426
    70  N   -0.315856
 Sum of Mulliken charges =  -0.00000

 Dipole moment (field-independent basis, Debye):
    X=             -9.6022    Y=              4.8170    Z=             -2.4806  Tot=             11.0254
 Quadrupole moment (field-independent basis, Debye-Ang):
   XX=           -168.3348   YY=           -209.1755   ZZ=           -254.6917
   XY=              7.1925   XZ=             -9.9158   YZ=              7.5728

 Normal termination of Gaussian 16 at Sat Jan 27 01:43:06 2018.
