 Gaussian 16, Revision A.03,
 Gaussian 16:  EM64L-G16RevA.03 25-Dec-2016

 ---------------------------------------
 #p wb97xd/cc-pvdz sp scf=(maxcycles=20)
 ---------------------------------------

 ------------------
 Base pair stacking
 ------------------
 Symbolic Z-matrix:
 Charge =  0 Multiplicity = 1

                         Standard orientation:
 ---------------------------------------------------------------------
 Center     Atomic      Atomic             Coordinates (Angstroms)
 Number     Number       Type             X           Y           Z
 ---------------------------------------------------------------------
      1          7           0        4.617021   -2.119985   -1.731511
      2          6           0        6.034129   -1.734015   -1.875929
      3          6           0        2.423911   -2.064173   -1.575170
      4          7           0        2.787018   -3.398602   -1.464806
      5          6           0        4.093762   -3.378814   -1.563420
      6          1           0        4.732238   -4.261645   -1.519837
      7          7           0        1.162281   -0.074490   -1.686503
      8          6           0        2.326488    0.565165   -1.838308
      9          1           0        2.252526    1.646647   -1.944037
     10          7           0        3.562546    0.071781   -1.878932
     11          6           0        3.541180   -1.264131   -1.740004
     12          6           0        1.174420   -1.418401   -1.549223
     13          7           0        0.013303   -2.058699   -1.397580
     14          1           0       -0.025183   -3.053029   -1.292507
     15          1           0       -0.857209   -1.566596   -1.383837
     16          1           0        6.422706   -2.182245   -2.681076
     17          1           0        6.101057   -0.742435   -1.982828
     18          1           0        6.542860   -2.014920   -1.062129
     19          7           0        4.244912    3.281056    0.845685
     20          6           0        2.972727    2.772102    0.948452
     21          6           0        4.580169    4.683360    0.526581
     22          7           0       -0.467904    3.223102    0.805575
     23          1           0       -1.290249    2.667303    0.924233
     24          1           0       -0.601436    4.188898    0.581674
     25          7           0        1.824446    3.462009    0.776565
     26          6           0        0.759203    2.697809    0.940453
     27          7           0        0.812243    1.360114    1.249076
     28          1           0       -0.053583    0.854218    1.355757
     29          6           0        1.982522    0.629778    1.430525
     30          8           0        1.920191   -0.574523    1.707129
     31          6           0        3.135320    1.437279    1.257653
     32          7           0        4.482471    1.114715    1.347212
     33          6           0        5.101048    2.236516    1.095915
     34          1           0        6.184677    2.358096    1.080210
     35          1           0        5.122772    4.715550   -0.312082
     36          1           0        3.737389    5.204152    0.397096
     37          1           0        5.104743    5.081733    1.278203
     38          1           0       -4.684758   -1.231045    1.117662
     39          1           0       -4.607556   -1.098168    2.872951
     40          1           0       -3.785202    0.090905    1.862398
     41          1           0       -1.873314   -4.992607    2.163129
     42          6           0       -1.802485   -3.908195    2.077922
     43          8           0        0.567210   -3.886930    1.972090
     44          6           0       -0.512801   -3.296708    1.974911
     45          1           0        0.356303   -1.452424    1.797081
     46          7           0       -0.535942   -1.920455    1.871746
     47          8           0       -1.563056    0.102072    1.763820
     48          6           0       -1.643439   -1.110005    1.859104
     49          1           0       -3.904925   -3.560045    2.144032
     50          6           0       -2.901068   -3.144232    2.068403
     51          6           0       -4.061631   -0.949025    1.953278
     52          7           0       -2.850145   -1.773626    1.962419
     53          1           0       -5.402790    4.348035   -1.839722
     54          1           0       -4.068133    4.174978   -0.917312
     55          1           0       -5.541090    4.240331   -0.217164
     56          1           0       -3.580990   -2.827961   -1.337983
     57          1           0       -5.196751   -2.290292   -1.439475
     58          7           0       -4.226827   -2.064407   -1.342353
     59          6           0       -3.814052   -0.800763   -1.224006
     60          6           0       -4.103627    1.557347   -1.092989
     61          7           0       -2.794842    1.830977   -0.963998
     62          1           0       -1.003066    0.839667   -0.877509
     63          6           0       -2.079605    0.707965   -0.977453
     64          7           0       -2.491170   -0.558592   -1.095895
     65          1           0       -7.271209    2.162602   -1.321574
     66          6           0       -6.284664    1.701242   -1.268387
     67          7           0       -6.060536    0.411642   -1.334461
     68          6           0       -4.681544    0.306655   -1.224487
     69          6           0       -5.030041    3.921623   -1.015563
     70          7           0       -5.145178    2.454183   -1.122128
 ---------------------------------------------------------------------

 SCF Done:  E(RwB97XD) =  -2048.74736465     A.U. after   15 cycles

 The electronic state is 1-A.
 Alpha  occ. eigenvalues --  -19.25173 -19.21316 -19.20360 -14.52734 -14.51908
 Alpha  occ. eigenvalues --  -14.49279 -14.48679 -14.48142 -14.47181 -14.46487
 Alpha  occ. eigenvalues --  -14.45990 -14.45647 -14.45071 -14.45043 -14.42972
 Alpha  occ. eigenvalues --  -14.41767 -14.40883 -14.40754 -14.40619 -14.40322
 Alpha  occ. eigenvalues --  -10.44838 -10.40860 -10.40683 -10.39442 -10.38221
 Alpha  occ. eigenvalues --  -10.37957 -10.37692 -10.37432 -10.36498 -10.35552
 Alpha  occ. eigenvalues --  -10.34551 -10.34155 -10.34146 -10.33598 -10.33224
 Alpha  occ. eigenvalues --  -10.33144 -10.32947 -10.32815 -10.30916 -10.30752
 Alpha  occ. eigenvalues --  -10.30129 -10.28246 -10.27894  -1.18817  -1.15518
 Alpha  occ. eigenvalues --   -1.12908  -1.12332  -1.10809  -1.10412  -1.10037
 Alpha  occ. eigenvalues --   -1.08773  -1.08209  -1.05607  -1.05029  -1.01826
 Alpha  occ. eigenvalues --   -1.01315  -1.00544  -0.99240  -0.98283  -0.97569
 Alpha  occ. eigenvalues --   -0.96532  -0.96436  -0.92705  -0.90621  -0.88071
 Alpha  occ. eigenvalues --   -0.86236  -0.83937  -0.83473  -0.83071  -0.82376
 Alpha  occ. eigenvalues --   -0.81801  -0.78385  -0.77576  -0.75435  -0.74395
 Alpha  occ. eigenvalues --   -0.73231  -0.72786  -0.72756  -0.71022  -0.70799
 Alpha  occ. eigenvalues --   -0.67489  -0.66979  -0.66189  -0.66004  -0.64811
 Alpha  occ. eigenvalues --   -0.64137  -0.63432  -0.62655  -0.62387  -0.61378
 Alpha  occ. eigenvalues --   -0.61049  -0.60717  -0.60162  -0.59788  -0.59222
 Alpha  occ. eigenvalues --   -0.59065  -0.57859  -0.56685  -0.56392  -0.55741
 Alpha  occ. eigenvalues --   -0.55617  -0.55577  -0.55523  -0.54875  -0.54110
 Alpha  occ. eigenvalues --   -0.53913  -0.53487  -0.53307  -0.53153  -0.52731
 Alpha  occ. eigenvalues --   -0.52636  -0.51919  -0.51296  -0.50414  -0.50312
 Alpha  occ. eigenvalues --   -0.49925  -0.49802  -0.49623  -0.48946  -0.48738
 Alpha  occ. eigenvalues --   -0.48521  -0.47941  -0.47778  -0.47511  -0.46988
 Alpha  occ. eigenvalues --   -0.46582  -0.45687  -0.45393  -0.44348  -0.43450
 Alpha  occ. eigenvalues --   -0.41243  -0.41031  -0.38895  -0.38257  -0.38083
 Alpha  occ. eigenvalues --   -0.37211  -0.37046  -0.36592  -0.35528  -0.35106
 Alpha  occ. eigenvalues --   -0.34973  -0.33727  -0.33263  -0.33158  -0.32669
 Alpha  occ. eigenvalues --   -0.32348  -0.32296  -0.31671  -0.31465  -0.30733
 Alpha  occ. eigenvalues --   -0.30511  -0.30167  -0.25993  -0.24966
 Alpha virt. eigenvalues --    0.03140   0.03878   0.06391   0.08054   0.09097
 Alpha virt. eigenvalues --    0.09552   0.09973   0.10306   0.11141   0.11270
 Alpha virt. eigenvalues --    0.13200   0.14329   0.14654   0.14937   0.15246

 Mulliken charges:
               1
     1  N   -0.314153
     2  C    0.184266
     3  C    0.056104
     4  N   -0.261568
     5  C    0.142230
     6  H    0.027008
     7  N   -0.291085
     8  C    0.126184
     9  H    0.015428
    10  N   -0.274201
    11  C    0.264432
    12  C    0.091616
    13  N   -0.071767
    14  H    0.109165
    15  H    0.081618
    16  H    0.020269
    17  H    0.034315
    18  H    0.031664
    19  N   -0.310603
    20  C    0.245329
    21  C    0.180697
    22  N   -0.106457
    23  H    0.112206
    24  H    0.113912
    25  N   -0.310203
    26  C    0.232288
    27  N   -0.131576
    28  H    0.112544
    29  C    0.178275
    30  O   -0.322022
    31  C   -0.006787
    32  N   -0.227259
    33  C    0.126205
    34  H    0.021904
    35  H    0.027180
    36  H    0.028819
    37  H    0.024428
    38  H    0.049670
    39  H    0.059271
    40  H    0.074930
    41  H    0.029611
    42  C   -0.114574
    43  O   -0.256856
    44  C    0.173429
    45  H    0.136404
    46  N   -0.128427
    47  O   -0.345231
    48  C    0.354570
    49  H    0.042569
    50  C    0.160070
    51  C    0.042231
    52  N   -0.284816
    53  H    0.035394
    54  H    0.036474
    55  H    0.031846
    56  H    0.118185
    57  H    0.121567
    58  N   -0.061717
    59  C    0.070408
    60  C    0.251738
    61  N   -0.282961
    62  H    0.027353
    63  C    0.188965
    64  N   -0.309592
    65  H    0.040170
    66  C    0.142633
    67  N   -0.260486
    68  C    0.030207
    69  C    0.180856
    70  N   -0.314297
 Sum of Mulliken charges =  -0.00000

 Dipole moment (field-independent basis, Debye):
    X=             -9.3941    Y=              5.1413    Z=             -1.4875  Tot=             10.8118
 Quadrupole moment (field-independent basis, Debye-Ang):
   XX=           -174.6003   YY=           -207.7612   ZZ=           -252.1271
   XY=              8.4986   XZ=            -16.4215   YZ=              5.8250

 Normal termination of Gaussian 16 at Fri Jan 26 23:05:47 2018.
