 Gaussian 16, Revision A.03,
 Gaussian 16:  EM64L-G16RevA.03 25-Dec-2016

 ---------------------------------------
 #p wb97xd/cc-pvdz sp scf=(maxcycles=20)
 ---------------------------------------

 ------------------
 Base pair stacking
 ------------------
 Symbolic Z-matrix:
 Charge =  0 Multiplicity = 1

                         Standard orientation:
 ---------------------------------------------------------------------
 Center     Atomic      Atomic             Coordinates (Angstroms)
 Number     Number       Type             X           Y           Z
 ---------------------------------------------------------------------
      1          7           0        4.624985   -2.283571   -1.756933
      2          6           0        6.025072   -1.943231   -2.076188
      3          6           0        2.445310   -2.190210   -1.478349
      4          7           0        2.832342   -3.463767   -1.087238
      5          6           0        4.130030   -3.469047   -1.270721
      6          1           0        4.781696   -4.318934   -1.065894
      7          7           0        1.152782   -0.278009   -1.963996
      8          6           0        2.296657    0.307821   -2.332704
      9          1           0        2.201831    1.335923   -2.679528
     10          7           0        3.534249   -0.183342   -2.337302
     11          6           0        3.539378   -1.451243   -1.893624
     12          6           0        1.191356   -1.554112   -1.522222
     13          7           0        0.050578   -2.140615   -1.153711
     14          1           0        0.031971   -3.083908   -0.820425
     15          1           0       -0.823868   -1.657400   -1.198191
     16          1           0        6.368722   -2.565522   -2.779643
     17          1           0        6.071993   -1.003093   -2.412421
     18          1           0        6.587189   -2.029713   -1.253665
     19          7           0        4.218723    3.406331    0.862795
     20          6           0        2.950696    2.906622    1.037317
     21          6           0        4.550934    4.823224    0.612289
     22          7           0       -0.481468    3.407129    1.214629
     23          1           0       -1.300777    2.854259    1.364014
     24          1           0       -0.616124    4.387566    1.068586
     25          7           0        1.804424    3.620284    1.009507
     26          6           0        0.743180    2.859293    1.210155
     27          7           0        0.798137    1.502971    1.422019
     28          1           0       -0.064612    1.001228    1.566526
     29          6           0        1.966421    0.748057    1.454750
     30          8           0        1.906115   -0.471609    1.653492
     31          6           0        3.114914    1.551836    1.240762
     32          7           0        4.458983    1.207926    1.194878
     33          6           0        5.074187    2.336965    0.969021
     34          1           0        6.154748    2.446495    0.870665
     35          1           0        5.022593    4.906682   -0.264857
     36          1           0        3.709599    5.361648    0.589552
     37          1           0        5.142951    5.162631    1.342448
     38          1           0       -4.735482   -1.007665    1.577501
     39          1           0       -4.510635   -0.996962    3.325071
     40          1           0       -3.754173    0.249084    2.331829
     41          1           0       -1.913513   -4.865364    2.126338
     42          6           0       -1.830965   -3.778570    2.109065
     43          8           0        0.521797   -3.778145    1.806362
     44          6           0       -0.543716   -3.176756    1.939758
     45          1           0        0.339893   -1.335038    1.814793
     46          7           0       -0.551171   -1.796487    1.932264
     47          8           0       -1.548005    0.240688    2.048039
     48          6           0       -1.641498   -0.974037    2.067509
     49          1           0       -3.914226   -3.410914    2.374838
     50          6           0       -2.912959   -3.002800    2.243515
     51          6           0       -4.040344   -0.791292    2.375025
     52          7           0       -2.846937   -1.628859    2.226614
     53          1           0       -5.467463    3.999169   -2.712550
     54          1           0       -4.075777    4.041540   -1.861947
     55          1           0       -5.503026    4.268543   -1.103323
     56          1           0       -3.522455   -2.870472   -0.690037
     57          1           0       -5.148430   -2.368442   -0.809466
     58          7           0       -4.177439   -2.127590   -0.828877
     59          6           0       -3.774973   -0.871272   -1.030992
     60          6           0       -4.087239    1.453951   -1.427963
     61          7           0       -2.776729    1.748137   -1.448968
     62          1           0       -0.969997    0.800982   -1.250921
     63          6           0       -2.048815    0.651269   -1.249148
     64          7           0       -2.450032   -0.607919   -1.046519
     65          1           0       -7.270700    1.994588   -1.587579
     66          6           0       -6.276699    1.556555   -1.492554
     67          7           0       -6.039945    0.286135   -1.274238
     68          6           0       -4.655503    0.207423   -1.231068
     69          6           0       -5.038482    3.773697   -1.837826
     70          7           0       -5.140461    2.321354   -1.596309
 ---------------------------------------------------------------------

 SCF Done:  E(RwB97XD) =  -2048.74326200     A.U. after   15 cycles

 The electronic state is 1-A.
 Alpha  occ. eigenvalues --  -19.25458 -19.21700 -19.20597 -14.52425 -14.52174
 Alpha  occ. eigenvalues --  -14.48958 -14.48939 -14.47820 -14.47437 -14.46880
 Alpha  occ. eigenvalues --  -14.46643 -14.45389 -14.44791 -14.44599 -14.42434
 Alpha  occ. eigenvalues --  -14.42078 -14.41023 -14.40431 -14.40340 -14.39990
 Alpha  occ. eigenvalues --  -10.45131 -10.41271 -10.40350 -10.39793 -10.38246
 Alpha  occ. eigenvalues --  -10.37984 -10.37825 -10.37334 -10.36020 -10.35153
 Alpha  occ. eigenvalues --  -10.34806 -10.34458 -10.33820 -10.33461 -10.33197
 Alpha  occ. eigenvalues --  -10.32871 -10.32611 -10.32549 -10.31131 -10.31103
 Alpha  occ. eigenvalues --  -10.29965 -10.28203 -10.27860  -1.19049  -1.15215
 Alpha  occ. eigenvalues --   -1.13222  -1.12702  -1.10685  -1.10462  -1.09712
 Alpha  occ. eigenvalues --   -1.09046  -1.08572  -1.05233  -1.04653  -1.02114
 Alpha  occ. eigenvalues --   -1.01027  -1.00143  -0.99738  -0.98595  -0.97209
 Alpha  occ. eigenvalues --   -0.96715  -0.96161  -0.92347  -0.90978  -0.87734
 Alpha  occ. eigenvalues --   -0.85919  -0.84228  -0.83312  -0.83150  -0.82631
 Alpha  occ. eigenvalues --   -0.81522  -0.78704  -0.77264  -0.75054  -0.74696
 Alpha  occ. eigenvalues --   -0.73646  -0.73058  -0.72411  -0.70690  -0.70448
 Alpha  occ. eigenvalues --   -0.67408  -0.67123  -0.66304  -0.65824  -0.64505
 Alpha  occ. eigenvalues --   -0.64403  -0.63708  -0.62643  -0.62275  -0.61788
 Alpha  occ. eigenvalues --   -0.60785  -0.60379  -0.59855  -0.59452  -0.59367
 Alpha  occ. eigenvalues --   -0.59247  -0.58352  -0.56760  -0.56133  -0.55786
 Alpha  occ. eigenvalues --   -0.55386  -0.55374  -0.55166  -0.54601  -0.54225
 Alpha  occ. eigenvalues --   -0.53793  -0.53606  -0.53520  -0.53029  -0.52919
 Alpha  occ. eigenvalues --   -0.52857  -0.52175  -0.51017  -0.50245  -0.50105
 Alpha  occ. eigenvalues --   -0.49939  -0.49570  -0.49427  -0.49163  -0.48774
 Alpha  occ. eigenvalues --   -0.48397  -0.48243  -0.47953  -0.47805  -0.47242
 Alpha  occ. eigenvalues --   -0.46292  -0.45652  -0.45297  -0.44389  -0.43766
 Alpha  occ. eigenvalues --   -0.40799  -0.40681  -0.39139  -0.37970  -0.37748
 Alpha  occ. eigenvalues --   -0.37348  -0.37319  -0.36408  -0.35525  -0.34992
 Alpha  occ. eigenvalues --   -0.34641  -0.34017  -0.33010  -0.32876  -0.32789
 Alpha  occ. eigenvalues --   -0.32602  -0.32582  -0.31918  -0.31822  -0.30450
 Alpha  occ. eigenvalues --   -0.30242  -0.29883  -0.25703  -0.25220
 Alpha virt. eigenvalues --    0.02844   0.04109   0.06729   0.08452   0.08832
 Alpha virt. eigenvalues --    0.09292   0.09746   0.10528   0.11144   0.11514
 Alpha virt. eigenvalues --    0.13454   0.14463   0.14580   0.14737   0.15155

 Mulliken charges:
               1
     1  N   -0.313392
     2  C    0.183476
     3  C    0.054322
     4  N   -0.253637
     5  C    0.140803
     6  H    0.025767
     7  N   -0.299902
     8  C    0.135413
     9  H    0.009952
    10  N   -0.283194
    11  C    0.261767
    12  C    0.098216
    13  N   -0.070905
    14  H    0.112102
    15  H    0.081571
    16  H    0.020465
    17  H    0.033228
    18  H    0.030266
    19  N   -0.311425
    20  C    0.249055
    21  C    0.180776
    22  N   -0.119479
    23  H    0.116529
    24  H    0.116734
    25  N   -0.312022
    26  C    0.247796
    27  N   -0.148183
    28  H    0.119093
    29  C    0.194123
    30  O   -0.321441
    31  C   -0.013544
    32  N   -0.228320
    33  C    0.127421
    34  H    0.023788
    35  H    0.027700
    36  H    0.029355
    37  H    0.025126
    38  H    0.048907
    39  H    0.059920
    40  H    0.075222
    41  H    0.030415
    42  C   -0.113522
    43  O   -0.251224
    44  C    0.158361
    45  H    0.135828
    46  N   -0.123533
    47  O   -0.350088
    48  C    0.353140
    49  H    0.042513
    50  C    0.154254
    51  C    0.042368
    52  N   -0.281696
    53  H    0.034398
    54  H    0.041124
    55  H    0.029468
    56  H    0.117116
    57  H    0.119883
    58  N   -0.066253
    59  C    0.090064
    60  C    0.249514
    61  N   -0.274239
    62  H    0.036358
    63  C    0.178685
    64  N   -0.317290
    65  H    0.039022
    66  C    0.142645
    67  N   -0.263787
    68  C    0.026667
    69  C    0.179689
    70  N   -0.313329
 Sum of Mulliken charges =  -0.00000

 Dipole moment (field-independent basis, Debye):
    X=             -9.2504    Y=              5.5385    Z=             -0.0050  Tot=             10.7817
 Quadrupole moment (field-independent basis, Debye-Ang):
   XX=           -175.6830   YY=           -206.3967   ZZ=           -248.6600
   XY=              7.4716   XZ=            -15.0704   YZ=              0.4344

 Normal termination of Gaussian 16 at Fri Jan 26 23:27:35 2018.
