 Gaussian 16, Revision A.03,
 Gaussian 16:  EM64L-G16RevA.03 25-Dec-2016

 ---------------------------------------
 #p wb97xd/cc-pvdz sp scf=(maxcycles=20)
 ---------------------------------------

 ------------------
 Base pair stacking
 ------------------
 Symbolic Z-matrix:
 Charge =  0 Multiplicity = 1

                         Standard orientation:
 ---------------------------------------------------------------------
 Center     Atomic      Atomic             Coordinates (Angstroms)
 Number     Number       Type             X           Y           Z
 ---------------------------------------------------------------------
      1          7           0        4.983654   -2.155068   -1.586239
      2          6           0        6.388707   -1.784441   -1.844038
      3          6           0        2.792850   -2.107061   -1.398130
      4          7           0        3.188714   -3.376183   -1.001433
      5          6           0        4.492749   -3.354301   -1.130642
      6          1           0        5.152224   -4.192996   -0.905625
      7          7           0        1.483601   -0.216439   -1.921932
      8          6           0        2.629855    0.395020   -2.237861
      9          1           0        2.528963    1.424089   -2.580065
     10          7           0        3.876153   -0.071644   -2.194746
     11          6           0        3.888220   -1.343068   -1.761434
     12          6           0        1.529321   -1.495399   -1.489182
     13          7           0        0.386181   -2.107468   -1.173335
     14          1           0        0.372626   -3.053859   -0.848701
     15          1           0       -0.495159   -1.641173   -1.250392
     16          1           0        6.773691   -2.393587   -2.537511
     17          1           0        6.430730   -0.840611   -2.170461
     18          1           0        6.917765   -1.867129   -0.999491
     19          7           0        3.858877    3.458884    1.071173
     20          6           0        2.594962    2.932793    1.188601
     21          6           0        4.172790    4.884200    0.846142
     22          7           0       -0.850949    3.364100    1.226525
     23          1           0       -1.664525    2.793920    1.337141
     24          1           0       -0.999021    4.342954    1.082866
     25          7           0        1.436767    3.623997    1.118706
     26          6           0        0.383552    2.840521    1.268780
     27          7           0        0.456800    1.483720    1.471856
     28          1           0       -0.400993    0.963843    1.576186
     29          6           0        1.637603    0.751683    1.547255
     30          8           0        1.593509   -0.470657    1.733501
     31          6           0        2.777664    1.579750    1.387841
     32          7           0        4.129093    1.262775    1.395334
     33          6           0        4.730425    2.405653    1.204422
     34          1           0        5.811732    2.537274    1.152133
     35          1           0        4.678729    4.984674   -0.009853
     36          1           0        3.322504    5.406140    0.792627
     37          1           0        4.727020    5.228697    1.603078
     38          1           0       -5.027112   -1.136546    1.376083
     39          1           0       -4.875375   -1.136900    3.131536
     40          1           0       -4.103376    0.132522    2.180779
     41          1           0       -2.153732   -4.942710    2.011234
     42          6           0       -2.092316   -3.854392    2.006138
     43          8           0        0.270515   -3.804997    1.801908
     44          6           0       -0.811447   -3.225898    1.895551
     45          1           0        0.039539   -1.366121    1.822364
     46          7           0       -0.846209   -1.846030    1.898832
     47          8           0       -1.887595    0.170037    1.989246
     48          6           0       -1.957467   -1.046406    1.995041
     49          1           0       -4.191765   -3.530154    2.187684
     50          6           0       -3.194277   -3.101276    2.101545
     51          6           0       -4.370200   -0.913613    2.203627
     52          7           0       -3.155135   -1.726197    2.098436
     53          1           0       -5.184116    3.936149   -2.911776
     54          1           0       -3.830120    3.998363   -2.003518
     55          1           0       -5.291929    4.190520   -1.303325
     56          1           0       -3.187709   -2.911535   -0.865066
     57          1           0       -4.817038   -2.440558   -1.048220
     58          7           0       -3.851097   -2.180490   -1.025154
     59          6           0       -3.465813   -0.914747   -1.200202
     60          6           0       -3.807798    1.407298   -1.591169
     61          7           0       -2.503703    1.727379   -1.555106
     62          1           0       -0.688163    0.814230   -1.289436
     63          6           0       -1.762907    0.643315   -1.333883
     64          7           0       -2.146911   -0.625256   -1.158301
     65          1           0       -6.992059    1.886603   -1.879168
     66          6           0       -5.994297    1.467382   -1.746269
     67          7           0       -5.741434    0.199982   -1.528468
     68          6           0       -4.358685    0.148138   -1.428187
     69          6           0       -4.787439    3.711422   -2.021749
     70          7           0       -4.870270    2.255282   -1.796366
 ---------------------------------------------------------------------

 SCF Done:  E(RwB97XD) =  -2048.74429557     A.U. after   15 cycles

 The electronic state is 1-A.
 Alpha  occ. eigenvalues --  -19.25598 -19.21922 -19.20570 -14.52400 -14.52339
 Alpha  occ. eigenvalues --  -14.48887 -14.48777 -14.47847 -14.47637 -14.46899
 Alpha  occ. eigenvalues --  -14.46628 -14.45385 -14.44618 -14.44488 -14.42142
 Alpha  occ. eigenvalues --  -14.42050 -14.40944 -14.40464 -14.40234 -14.39829
 Alpha  occ. eigenvalues --  -10.45302 -10.41252 -10.40216 -10.40036 -10.38224
 Alpha  occ. eigenvalues --  -10.37999 -10.37967 -10.37259 -10.35880 -10.34994
 Alpha  occ. eigenvalues --  -10.34991 -10.34412 -10.33827 -10.33386 -10.33212
 Alpha  occ. eigenvalues --  -10.32793 -10.32568 -10.32459 -10.31298 -10.31060
 Alpha  occ. eigenvalues --  -10.30068 -10.28154 -10.27788  -1.19214  -1.15175
 Alpha  occ. eigenvalues --   -1.13202  -1.12919  -1.10642  -1.10463  -1.09586
 Alpha  occ. eigenvalues --   -1.09209  -1.08552  -1.05107  -1.04500  -1.02309
 Alpha  occ. eigenvalues --   -1.00990  -0.99969  -0.99720  -0.98571  -0.97084
 Alpha  occ. eigenvalues --   -0.96669  -0.96149  -0.92193  -0.91157  -0.87666
 Alpha  occ. eigenvalues --   -0.85892  -0.84182  -0.83482  -0.83133  -0.82592
 Alpha  occ. eigenvalues --   -0.81534  -0.78878  -0.77171  -0.74962  -0.74663
 Alpha  occ. eigenvalues --   -0.73637  -0.73236  -0.72318  -0.70602  -0.70365
 Alpha  occ. eigenvalues --   -0.67389  -0.67031  -0.66463  -0.65726  -0.64497
 Alpha  occ. eigenvalues --   -0.64381  -0.63790  -0.62661  -0.62153  -0.61762
 Alpha  occ. eigenvalues --   -0.60705  -0.60292  -0.59923  -0.59533  -0.59383
 Alpha  occ. eigenvalues --   -0.59299  -0.58341  -0.56721  -0.56053  -0.55872
 Alpha  occ. eigenvalues --   -0.55451  -0.55314  -0.55028  -0.54506  -0.54257
 Alpha  occ. eigenvalues --   -0.53789  -0.53666  -0.53489  -0.53102  -0.52985
 Alpha  occ. eigenvalues --   -0.52842  -0.52326  -0.51026  -0.50228  -0.50041
 Alpha  occ. eigenvalues --   -0.49896  -0.49557  -0.49422  -0.49250  -0.48807
 Alpha  occ. eigenvalues --   -0.48346  -0.48324  -0.48066  -0.47767  -0.47289
 Alpha  occ. eigenvalues --   -0.46251  -0.45677  -0.45316  -0.44246  -0.43898
 Alpha  occ. eigenvalues --   -0.40736  -0.40555  -0.39254  -0.37857  -0.37654
 Alpha  occ. eigenvalues --   -0.37303  -0.37294  -0.36370  -0.35668  -0.34917
 Alpha  occ. eigenvalues --   -0.34550  -0.33935  -0.33131  -0.32832  -0.32750
 Alpha  occ. eigenvalues --   -0.32661  -0.32510  -0.32040  -0.31883  -0.30344
 Alpha  occ. eigenvalues --   -0.30202  -0.29811  -0.25533  -0.25215
 Alpha virt. eigenvalues --    0.02608   0.04229   0.06758   0.08533   0.08777
 Alpha virt. eigenvalues --    0.09261   0.09769   0.10587   0.11104   0.11636
 Alpha virt. eigenvalues --    0.13118   0.14424   0.14509   0.14828   0.15153

 Mulliken charges:
               1
     1  N   -0.313242
     2  C    0.182957
     3  C    0.049733
     4  N   -0.255104
     5  C    0.138811
     6  H    0.025123
     7  N   -0.301624
     8  C    0.138164
     9  H    0.009014
    10  N   -0.285670
    11  C    0.260598
    12  C    0.107651
    13  N   -0.069753
    14  H    0.112325
    15  H    0.080912
    16  H    0.021222
    17  H    0.032951
    18  H    0.028675
    19  N   -0.311707
    20  C    0.248972
    21  C    0.180779
    22  N   -0.115917
    23  H    0.114394
    24  H    0.115851
    25  N   -0.311407
    26  C    0.244999
    27  N   -0.149588
    28  H    0.120134
    29  C    0.196937
    30  O   -0.321649
    31  C   -0.015167
    32  N   -0.226636
    33  C    0.128531
    34  H    0.023941
    35  H    0.027899
    36  H    0.029084
    37  H    0.024992
    38  H    0.049898
    39  H    0.060818
    40  H    0.075767
    41  H    0.031238
    42  C   -0.115074
    43  O   -0.256544
    44  C    0.166903
    45  H    0.134047
    46  N   -0.124849
    47  O   -0.348020
    48  C    0.349029
    49  H    0.043740
    50  C    0.153751
    51  C    0.041766
    52  N   -0.278812
    53  H    0.034602
    54  H    0.041346
    55  H    0.028741
    56  H    0.116602
    57  H    0.117849
    58  N   -0.062919
    59  C    0.092454
    60  C    0.248343
    61  N   -0.272603
    62  H    0.038170
    63  C    0.175124
    64  N   -0.316327
    65  H    0.038565
    66  C    0.141302
    67  N   -0.265802
    68  C    0.027979
    69  C    0.179202
    70  N   -0.313470
 Sum of Mulliken charges =  -0.00000

 Dipole moment (field-independent basis, Debye):
    X=             -9.4399    Y=              5.3531    Z=             -0.2748  Tot=             10.8555
 Quadrupole moment (field-independent basis, Debye-Ang):
   XX=           -172.5172   YY=           -206.6655   ZZ=           -249.6990
   XY=              7.4634   XZ=            -11.9228   YZ=              0.7914

 Normal termination of Gaussian 16 at Fri Jan 26 22:42:49 2018.
