 Gaussian 16, Revision A.03,
 Gaussian 16:  EM64L-G16RevA.03 25-Dec-2016

 ---------------------------------------
 #p wb97xd/cc-pvdz sp scf=(maxcycles=20)
 ---------------------------------------

 ------------------
 Base pair stacking
 ------------------
 Symbolic Z-matrix:
 Charge =  0 Multiplicity = 1

                         Standard orientation:
 ---------------------------------------------------------------------
 Center     Atomic      Atomic             Coordinates (Angstroms)
 Number     Number       Type             X           Y           Z
 ---------------------------------------------------------------------
      1          7           0        5.855366   -1.733600   -1.021973
      2          6           0        7.254985   -1.293947   -0.861347
      3          6           0        3.667282   -1.758366   -1.243289
      4          7           0        4.074278   -3.084539   -1.261993
      5          6           0        5.376229   -3.016533   -1.127914
      6          1           0        6.042489   -3.879237   -1.099669
      7          7           0        2.342494    0.192484   -1.288852
      8          6           0        3.481446    0.877475   -1.143417
      9          1           0        3.371223    1.960385   -1.105792
     10          7           0        4.730252    0.427725   -1.037977
     11          6           0        4.754036   -0.914091   -1.095942
     12          6           0        2.399943   -1.156130   -1.343734
     13          7           0        1.264092   -1.841662   -1.488890
     14          1           0        1.259279   -2.841233   -1.534335
     15          1           0        0.379724   -1.379741   -1.557100
     16          1           0        7.795920   -1.607347   -1.641947
     17          1           0        7.288240   -0.296105   -0.813112
     18          1           0        7.633137   -1.679445   -0.019693
     19          7           0        2.972260    3.232606    1.453556
     20          6           0        1.723597    2.674014    1.323633
     21          6           0        3.306303    4.646898    1.191052
     22          7           0       -1.646223    2.989181    0.544688
     23          1           0       -2.454246    2.401493    0.513778
     24          1           0       -1.773270    3.948877    0.292582
     25          7           0        0.601073    3.318118    0.937463
     26          6           0       -0.445807    2.512655    0.907775
     27          7           0       -0.399085    1.178206    1.231156
     28          1           0       -1.249529    0.638669    1.180062
     29          6           0        0.744841    0.494575    1.631094
     30          8           0        0.679033   -0.711135    1.900681
     31          6           0        1.877680    1.346755    1.667787
     32          7           0        3.196538    1.077510    2.006927
     33          6           0        3.807104    2.222681    1.865522
     34          1           0        4.869466    2.386813    2.049165
     35          1           0        3.992850    4.700063    0.466736
     36          1           0        2.482481    5.134054    0.904244
     37          1           0        3.667210    5.065922    2.023506
     38          1           0       -5.672973   -1.627372    0.107265
     39          1           0       -5.926560   -1.490835    1.845568
     40          1           0       -4.978203   -0.270731    0.995073
     41          1           0       -2.959975   -5.274925    1.682547
     42          6           0       -2.916539   -4.188597    1.603557
     43          8           0       -0.570705   -4.074122    1.936772
     44          6           0       -1.654602   -3.526857    1.735667
     45          1           0       -0.839470   -1.649880    1.707157
     46          7           0       -1.711409   -2.152626    1.619450
     47          8           0       -2.778207   -0.172146    1.308264
     48          6           0       -2.827970   -1.386405    1.396381
     49          1           0       -5.006855   -3.923444    1.277792
     50          6           0       -4.023113   -3.468476    1.385559
     51          6           0       -5.226309   -1.320705    1.041350
     52          7           0       -4.006450   -2.096979    1.280269
     53          1           0       -4.320193    4.417441   -1.952653
     54          1           0       -3.152779    4.143787   -0.846138
     55          1           0       -4.723971    4.066253   -0.410879
     56          1           0       -2.244914   -2.703898   -2.165395
     57          1           0       -3.845853   -2.199070   -2.469106
     58          7           0       -2.918934   -1.965130   -2.173640
     59          6           0       -2.597021   -0.722872   -1.807119
     60          6           0       -3.024518    1.581302   -1.395090
     61          7           0       -1.771820    1.866467   -1.002831
     62          1           0        0.028061    0.919966   -0.747511
     63          6           0       -1.008143    0.776789   -1.050905
     64          7           0       -1.328700   -0.468306   -1.417723
     65          1           0       -6.135133    2.131703   -2.083060
     66          6           0       -5.149376    1.693233   -1.925060
     67          7           0       -4.851782    0.434005   -2.133514
     68          6           0       -3.507441    0.349520   -1.801324
     69          6           0       -4.070227    3.883063   -1.145213
     70          7           0       -4.090722    2.445279   -1.477394
 ---------------------------------------------------------------------

 SCF Done:  E(RwB97XD) =  -2048.60895020     A.U. after   16 cycles

 The electronic state is 1-A.
 Alpha  occ. eigenvalues --  -19.25728 -19.21705 -19.20502 -14.52955 -14.52280
 Alpha  occ. eigenvalues --  -14.48591 -14.48413 -14.48158 -14.47652 -14.46636
 Alpha  occ. eigenvalues --  -14.45988 -14.45583 -14.43877 -14.42923 -14.42337
 Alpha  occ. eigenvalues --  -14.41746 -14.41139 -14.40552 -14.40515 -14.39961
 Alpha  occ. eigenvalues --  -10.45337 -10.40192 -10.39847 -10.39486 -10.38084
 Alpha  occ. eigenvalues --  -10.38012 -10.37672 -10.37034 -10.35270 -10.35084
 Alpha  occ. eigenvalues --  -10.34933 -10.34898 -10.34087 -10.33806 -10.33057
 Alpha  occ. eigenvalues --  -10.33020 -10.32756 -10.32470 -10.31005 -10.30854
 Alpha  occ. eigenvalues --  -10.30603 -10.28244 -10.27822  -1.19326  -1.15628
 Alpha  occ. eigenvalues --   -1.13381  -1.12754  -1.11009  -1.10488  -1.09766
 Alpha  occ. eigenvalues --   -1.09161  -1.08507  -1.05066  -1.04759  -1.02270
 Alpha  occ. eigenvalues --   -1.01402  -1.00463  -1.00240  -0.98466  -0.96740
 Alpha  occ. eigenvalues --   -0.96544  -0.96277  -0.92441  -0.90908  -0.87913
 Alpha  occ. eigenvalues --   -0.86545  -0.84036  -0.83616  -0.83409  -0.82440
 Alpha  occ. eigenvalues --   -0.82023  -0.78734  -0.77153  -0.75760  -0.74534
 Alpha  occ. eigenvalues --   -0.73450  -0.73154  -0.72704  -0.70852  -0.70727
 Alpha  occ. eigenvalues --   -0.67766  -0.67062  -0.66411  -0.66122  -0.64730
 Alpha  occ. eigenvalues --   -0.64286  -0.63653  -0.63086  -0.62545  -0.62012
 Alpha  occ. eigenvalues --   -0.61223  -0.60597  -0.60352  -0.59622  -0.59487
 Alpha  occ. eigenvalues --   -0.59417  -0.59181  -0.57140  -0.56259  -0.56152
 Alpha  occ. eigenvalues --   -0.56005  -0.55932  -0.55347  -0.55197  -0.54472
 Alpha  occ. eigenvalues --   -0.54076  -0.53485  -0.53272  -0.53066  -0.52832
 Alpha  occ. eigenvalues --   -0.52565  -0.52156  -0.51459  -0.50557  -0.50029
 Alpha  occ. eigenvalues --   -0.49975  -0.49636  -0.49338  -0.49100  -0.48762
 Alpha  occ. eigenvalues --   -0.48581  -0.48096  -0.48013  -0.47719  -0.47200
 Alpha  occ. eigenvalues --   -0.46734  -0.46184  -0.44809  -0.44015  -0.43726
 Alpha  occ. eigenvalues --   -0.41835  -0.40851  -0.39385  -0.38384  -0.37999
 Alpha  occ. eigenvalues --   -0.37072  -0.36894  -0.36746  -0.35630  -0.35053
 Alpha  occ. eigenvalues --   -0.34347  -0.33470  -0.33260  -0.32902  -0.32468
 Alpha  occ. eigenvalues --   -0.32197  -0.31776  -0.31648  -0.30565  -0.30244
 Alpha  occ. eigenvalues --   -0.29770  -0.28012  -0.25554  -0.22963
 Alpha virt. eigenvalues --    0.03180   0.04345   0.06762   0.08260   0.08461
 Alpha virt. eigenvalues --    0.09287   0.09780   0.10954   0.11508   0.11612
 Alpha virt. eigenvalues --    0.12112   0.13904   0.14583   0.14636   0.14814

 Mulliken charges:
               1
     1  N   -0.313204
     2  C    0.182196
     3  C    0.037946
     4  N   -0.261926
     5  C    0.135517
     6  H    0.025690
     7  N   -0.293621
     8  C    0.154438
     9  H    0.006372
    10  N   -0.287408
    11  C    0.255961
    12  C    0.119491
    13  N   -0.063994
    14  H    0.106221
    15  H    0.082409
    16  H    0.023227
    17  H    0.032991
    18  H    0.027874
    19  N   -0.307171
    20  C    0.233867
    21  C    0.181700
    22  N   -0.023013
    23  H    0.110719
    24  H    0.110998
    25  N   -0.297271
    26  C    0.200326
    27  N   -0.145658
    28  H    0.128725
    29  C    0.168623
    30  O   -0.320810
    31  C    0.007996
    32  N   -0.218860
    33  C    0.121975
    34  H    0.023474
    35  H    0.027301
    36  H    0.027284
    37  H    0.024456
    38  H    0.057673
    39  H    0.058860
    40  H    0.076789
    41  H    0.031549
    42  C   -0.112121
    43  O   -0.260297
    44  C    0.177444
    45  H    0.132817
    46  N   -0.129509
    47  O   -0.346499
    48  C    0.349783
    49  H    0.046041
    50  C    0.164823
    51  C    0.042584
    52  N   -0.290400
    53  H    0.042657
    54  H    0.008806
    55  H    0.038447
    56  H    0.117242
    57  H    0.115121
    58  N   -0.069820
    59  C    0.079683
    60  C    0.263053
    61  N   -0.345378
    62  H    0.044644
    63  C    0.169421
    64  N   -0.299368
    65  H    0.037130
    66  C    0.134772
    67  N   -0.262219
    68  C    0.042691
    69  C    0.179893
    70  N   -0.321156
 Sum of Mulliken charges =  -0.00000

 Dipole moment (field-independent basis, Debye):
    X=             -9.2044    Y=              5.0214    Z=             -2.9768  Tot=             10.8994
 Quadrupole moment (field-independent basis, Debye-Ang):
   XX=           -163.7867   YY=           -209.8745   ZZ=           -256.5008
   XY=              5.7658   XZ=             -2.6863   YZ=              9.9787

 Normal termination of Gaussian 16 at Sat Jan 27 04:22:37 2018.
