 Gaussian 16, Revision A.03,
 Gaussian 16:  EM64L-G16RevA.03 25-Dec-2016

 ---------------------------------------
 #p wb97xd/cc-pvdz sp scf=(maxcycles=20)
 ---------------------------------------

 ------------------
 Base pair stacking
 ------------------
 Symbolic Z-matrix:
 Charge =  0 Multiplicity = 1

                         Standard orientation:
 ---------------------------------------------------------------------
 Center     Atomic      Atomic             Coordinates (Angstroms)
 Number     Number       Type             X           Y           Z
 ---------------------------------------------------------------------
      1          7           0        5.280133   -1.921073   -1.408269
      2          6           0        6.692932   -1.495553   -1.439151
      3          6           0        3.080772   -1.925623   -1.417301
      4          7           0        3.471124   -3.251785   -1.300472
      5          6           0        4.780543   -3.195966   -1.299705
      6          1           0        5.437979   -4.062354   -1.221653
      7          7           0        1.776830    0.031888   -1.592876
      8          6           0        2.931118    0.704454   -1.646324
      9          1           0        2.835592    1.785315   -1.740592
     10          7           0        4.179835    0.244485   -1.601026
     11          6           0        4.184840   -1.093756   -1.484804
     12          6           0        1.815576   -1.313428   -1.475890
     13          7           0        0.664399   -1.986561   -1.422379
     14          1           0        0.645489   -2.983246   -1.335918
     15          1           0       -0.217889   -1.517803   -1.466864
     16          1           0        7.153097   -1.919271   -2.219460
     17          1           0        6.740407   -0.500847   -1.525323
     18          1           0        7.146603   -1.777216   -0.593667
     19          7           0        3.575128    3.328569    1.212885
     20          6           0        2.313299    2.784663    1.211301
     21          6           0        3.894730    4.744566    0.941781
     22          7           0       -1.117965    3.147591    0.815746
     23          1           0       -1.931303    2.568398    0.863284
     24          1           0       -1.260798    4.113321    0.597369
     25          7           0        1.162652    3.447083    0.963806
     26          6           0        0.109518    2.652422    1.034851
     27          7           0        0.175987    1.311375    1.325871
     28          1           0       -0.681164    0.781135    1.358942
     29          6           0        1.348976    0.608965    1.583930
     30          8           0        1.299182   -0.601214    1.836357
     31          6           0        2.488846    1.449363    1.511221
     32          7           0        3.833830    1.160766    1.697347
     33          6           0        4.438444    2.302650    1.510920
     34          1           0        5.516433    2.452899    1.579057
     35          1           0        4.497732    4.805661    0.147136
     36          1           0        3.050059    5.245235    0.757035
     37          1           0        4.350172    5.143355    1.736980
     38          1           0       -5.222231   -1.420531    0.739205
     39          1           0       -5.280838   -1.316422    2.497153
     40          1           0       -4.417883   -0.088665    1.570182
     41          1           0       -2.394918   -5.124697    1.935856
     42          6           0       -2.347739   -4.037473    1.873041
     43          8           0        0.021724   -3.952140    1.946984
     44          6           0       -1.071259   -3.390620    1.877294
     45          1           0       -0.242305   -1.521320    1.794236
     46          7           0       -1.124427   -2.013855    1.793988
     47          8           0       -2.195763   -0.017426    1.640048
     48          6           0       -2.249724   -1.232669    1.710217
     49          1           0       -4.457971   -3.745862    1.785417
     50          6           0       -3.463086   -3.302571    1.792333
     51          6           0       -4.671662   -1.136929    1.623798
     52          7           0       -3.442069   -1.929466    1.711728
     53          1           0       -4.877311    4.282499   -2.173457
     54          1           0       -3.611493    4.128436   -1.155588
     55          1           0       -5.134139    4.142821   -0.567860
     56          1           0       -2.901688   -2.850867   -1.646566
     57          1           0       -4.519439   -2.354110   -1.861576
     58          7           0       -3.566127   -2.104566   -1.687928
     59          6           0       -3.198324   -0.832794   -1.519171
     60          6           0       -3.561674    1.514251   -1.373948
     61          7           0       -2.274306    1.819847   -1.142161
     62          1           0       -0.467521    0.874575   -0.935832
     63          6           0       -1.529465    0.716411   -1.118890
     64          7           0       -1.895973   -0.558249   -1.287694
     65          1           0       -6.718566    2.040018   -1.831926
     66          6           0       -5.726494    1.603875   -1.711455
     67          7           0       -5.462649    0.321949   -1.780348
     68          6           0       -4.093457    0.251301   -1.568086
     69          6           0       -4.555964    3.851669   -1.330180
     70          7           0       -4.622363    2.383792   -1.467841
 ---------------------------------------------------------------------

 SCF Done:  E(RwB97XD) =  -2048.73587646     A.U. after   15 cycles

 The electronic state is 1-A.
 Alpha  occ. eigenvalues --  -19.25414 -19.21632 -19.20286 -14.52743 -14.52180
 Alpha  occ. eigenvalues --  -14.48933 -14.48551 -14.48192 -14.47473 -14.46474
 Alpha  occ. eigenvalues --  -14.45657 -14.45549 -14.44704 -14.44521 -14.42503
 Alpha  occ. eigenvalues --  -14.41564 -14.40904 -14.40558 -14.40440 -14.40046
 Alpha  occ. eigenvalues --  -10.45119 -10.40677 -10.40385 -10.39767 -10.38234
 Alpha  occ. eigenvalues --  -10.37897 -10.37681 -10.37500 -10.36047 -10.35294
 Alpha  occ. eigenvalues --  -10.34870 -10.34356 -10.34024 -10.33598 -10.33021
 Alpha  occ. eigenvalues --  -10.32984 -10.32870 -10.32683 -10.31006 -10.30808
 Alpha  occ. eigenvalues --  -10.30347 -10.28117 -10.27734  -1.19089  -1.15479
 Alpha  occ. eigenvalues --   -1.12843  -1.12647  -1.10807  -1.10308  -1.09741
 Alpha  occ. eigenvalues --   -1.09053  -1.08107  -1.05354  -1.04768  -1.02120
 Alpha  occ. eigenvalues --   -1.01297  -1.00263  -0.99120  -0.98199  -0.97277
 Alpha  occ. eigenvalues --   -0.96512  -0.96318  -0.92455  -0.90883  -0.87967
 Alpha  occ. eigenvalues --   -0.86292  -0.83794  -0.83443  -0.83328  -0.82272
 Alpha  occ. eigenvalues --   -0.81845  -0.78655  -0.77406  -0.75304  -0.74274
 Alpha  occ. eigenvalues --   -0.73190  -0.73009  -0.72630  -0.70876  -0.70660
 Alpha  occ. eigenvalues --   -0.67332  -0.66901  -0.66239  -0.66038  -0.64718
 Alpha  occ. eigenvalues --   -0.64185  -0.63513  -0.62474  -0.62461  -0.61277
 Alpha  occ. eigenvalues --   -0.60926  -0.60538  -0.60235  -0.59633  -0.59426
 Alpha  occ. eigenvalues --   -0.59266  -0.57853  -0.56637  -0.56247  -0.55774
 Alpha  occ. eigenvalues --   -0.55750  -0.55708  -0.55345  -0.54659  -0.54292
 Alpha  occ. eigenvalues --   -0.54003  -0.53475  -0.53390  -0.53136  -0.52805
 Alpha  occ. eigenvalues --   -0.52613  -0.52126  -0.51313  -0.50347  -0.50089
 Alpha  occ. eigenvalues --   -0.49832  -0.49796  -0.49723  -0.49097  -0.48662
 Alpha  occ. eigenvalues --   -0.48520  -0.48017  -0.47813  -0.47311  -0.47033
 Alpha  occ. eigenvalues --   -0.46461  -0.45696  -0.45297  -0.44235  -0.43714
 Alpha  occ. eigenvalues --   -0.41232  -0.40829  -0.39105  -0.38128  -0.38001
 Alpha  occ. eigenvalues --   -0.37011  -0.36934  -0.36645  -0.35477  -0.35063
 Alpha  occ. eigenvalues --   -0.34790  -0.33280  -0.33176  -0.32774  -0.32660
 Alpha  occ. eigenvalues --   -0.32342  -0.32123  -0.31742  -0.31570  -0.30568
 Alpha  occ. eigenvalues --   -0.30421  -0.30099  -0.25522  -0.24896
 Alpha virt. eigenvalues --    0.02835   0.04058   0.06403   0.08363   0.08860
 Alpha virt. eigenvalues --    0.09468   0.10146   0.10336   0.11244   0.11405
 Alpha virt. eigenvalues --    0.12450   0.14054   0.14739   0.14959   0.15102

 Mulliken charges:
               1
     1  N   -0.313595
     2  C    0.183004
     3  C    0.045262
     4  N   -0.261173
     5  C    0.138135
     6  H    0.025838
     7  N   -0.299484
     8  C    0.142467
     9  H    0.011572
    10  N   -0.282123
    11  C    0.261825
    12  C    0.112348
    13  N   -0.066656
    14  H    0.108689
    15  H    0.079579
    16  H    0.021936
    17  H    0.033239
    18  H    0.028975
    19  N   -0.310262
    20  C    0.243646
    21  C    0.180750
    22  N   -0.078728
    23  H    0.109064
    24  H    0.111212
    25  N   -0.307697
    26  C    0.214366
    27  N   -0.148083
    28  H    0.121562
    29  C    0.192142
    30  O   -0.324127
    31  C   -0.020586
    32  N   -0.221390
    33  C    0.128569
    34  H    0.021756
    35  H    0.027563
    36  H    0.028145
    37  H    0.024098
    38  H    0.050923
    39  H    0.061023
    40  H    0.076109
    41  H    0.030783
    42  C   -0.114404
    43  O   -0.259431
    44  C    0.176070
    45  H    0.133285
    46  N   -0.128647
    47  O   -0.343867
    48  C    0.346343
    49  H    0.044237
    50  C    0.161051
    51  C    0.041737
    52  N   -0.283963
    53  H    0.037254
    54  H    0.033231
    55  H    0.031614
    56  H    0.118198
    57  H    0.118263
    58  N   -0.061573
    59  C    0.085355
    60  C    0.253244
    61  N   -0.285741
    62  H    0.053754
    63  C    0.161576
    64  N   -0.306012
    65  H    0.039384
    66  C    0.139765
    67  N   -0.263050
    68  C    0.027918
    69  C    0.178922
    70  N   -0.315189
 Sum of Mulliken charges =  -0.00000

 Dipole moment (field-independent basis, Debye):
    X=             -9.5224    Y=              4.9113    Z=             -2.0835  Tot=             10.9151
 Quadrupole moment (field-independent basis, Debye-Ang):
   XX=           -168.6048   YY=           -208.4933   ZZ=           -254.0662
   XY=              7.3389   XZ=             -9.6107   YZ=              6.5499

 Normal termination of Gaussian 16 at Fri Jan 26 21:36:03 2018.
