 Gaussian 16, Revision A.03,
 Gaussian 16:  EM64L-G16RevA.03 25-Dec-2016

 ---------------------------------------
 #p wb97xd/cc-pvdz sp scf=(maxcycles=20)
 ---------------------------------------

 ------------------
 Base pair stacking
 ------------------
 Symbolic Z-matrix:
 Charge =  0 Multiplicity = 1

                         Standard orientation:
 ---------------------------------------------------------------------
 Center     Atomic      Atomic             Coordinates (Angstroms)
 Number     Number       Type             X           Y           Z
 ---------------------------------------------------------------------
      1          7           0       -5.946906   -1.770003    0.964661
      2          6           0       -7.354009   -1.325454    0.985872
      3          6           0       -3.751021   -1.818353    1.078917
      4          7           0       -4.151609   -3.108132    0.761560
      5          6           0       -5.458517   -3.027387    0.705422
      6          1           0       -6.122022   -3.861970    0.476998
      7          7           0       -2.433114    0.070935    1.585523
      8          6           0       -3.580086    0.752044    1.675584
      9          1           0       -3.475869    1.807692    1.922579
     10          7           0       -4.830615    0.326911    1.507157
     11          6           0       -4.846554   -0.982382    1.207287
     12          6           0       -2.482795   -1.244606    1.282300
     13          7           0       -1.338929   -1.926210    1.191933
     14          1           0       -1.328203   -2.901781    0.969790
     15          1           0       -0.454196   -1.485159    1.343132
     16          1           0       -7.858190   -1.843225    1.677168
     17          1           0       -7.393276   -0.351245    1.206071
     18          1           0       -7.768012   -1.479627    0.088745
     19          7           0       -2.817219    3.410010   -1.610264
     20          6           0       -1.572229    2.834335   -1.528644
     21          6           0       -3.101615    4.852363   -1.470866
     22          7           0        1.857803    3.137250   -1.076017
     23          1           0        2.654750    2.534303   -1.052032
     24          1           0        2.023587    4.114089   -0.938123
     25          7           0       -0.408904    3.484376   -1.309136
     26          6           0        0.621917    2.658315   -1.283682
     27          7           0        0.523189    1.299332   -1.459518
     28          1           0        1.365001    0.745206   -1.424203
     29          6           0       -0.663372    0.609148   -1.686666
     30          8           0       -0.643007   -0.619304   -1.832310
     31          6           0       -1.779588    1.483246   -1.716697
     32          7           0       -3.127624    1.216077   -1.912439
     33          6           0       -3.702840    2.385801   -1.841190
     34          1           0       -4.774045    2.558694   -1.950295
     35          1           0       -3.721302    4.998682   -0.700551
     36          1           0       -2.247288    5.344139   -1.307932
     37          1           0       -3.526154    5.192629   -2.309193
     38          1           0        5.823701   -1.516343   -0.497837
     39          1           0        5.927128   -1.567235   -2.256068
     40          1           0        5.078655   -0.240543   -1.461487
     41          1           0        2.918501   -5.232662   -1.444079
     42          6           0        2.901667   -4.143215   -1.476600
     43          8           0        0.538143   -4.000515   -1.619766
     44          6           0        1.645124   -3.464857   -1.570146
     45          1           0        0.869467   -1.573667   -1.670505
     46          7           0        1.736551   -2.088011   -1.604611
     47          8           0        2.861862   -0.115505   -1.595504
     48          6           0        2.881898   -1.333262   -1.559086
     49          1           0        5.016849   -3.902343   -1.359143
     50          6           0        4.035807   -3.434557   -1.430390
     51          6           0        5.302863   -1.295990   -1.417750
     52          7           0        4.053046   -2.059575   -1.469175
     53          1           0        4.236169    4.072002    3.066913
     54          1           0        3.021403    4.083586    1.977734
     55          1           0        4.571789    4.148964    1.471649
     56          1           0        2.200198   -2.882006    1.466252
     57          1           0        3.811172   -2.450881    1.825423
     58          7           0        2.871032   -2.161462    1.642152
     59          6           0        2.528191   -0.871676    1.632965
     60          6           0        2.927828    1.465627    1.830642
     61          7           0        1.657711    1.825012    1.581506
     62          1           0       -0.148109    0.952154    1.159919
     63          6           0        0.901195    0.749831    1.370353
     64          7           0        1.242704   -0.542788    1.379118
     65          1           0        6.064000    1.862339    2.508327
     66          6           0        5.073854    1.466138    2.281182
     67          7           0        4.790806    0.192240    2.159747
     68          6           0        3.433260    0.177922    1.874064
     69          6           0        3.952342    3.767240    2.157758
     70          7           0        3.993279    2.293350    2.094603
 ---------------------------------------------------------------------

 SCF Done:  E(RwB97XD) =  -2048.74211599     A.U. after   15 cycles

 The electronic state is 1-A.
 Alpha  occ. eigenvalues --  -19.25999 -19.22233 -19.20667 -14.52593 -14.52195
 Alpha  occ. eigenvalues --  -14.48832 -14.48257 -14.48163 -14.47988 -14.46982
 Alpha  occ. eigenvalues --  -14.46690 -14.45202 -14.43975 -14.43833 -14.42087
 Alpha  occ. eigenvalues --  -14.41815 -14.40839 -14.40820 -14.40287 -14.39684
 Alpha  occ. eigenvalues --  -10.45624 -10.41228 -10.40341 -10.39687 -10.38255
 Alpha  occ. eigenvalues --  -10.38113 -10.37726 -10.36833 -10.35323 -10.35187
 Alpha  occ. eigenvalues --  -10.34906 -10.34380 -10.33819 -10.33509 -10.33298
 Alpha  occ. eigenvalues --  -10.32752 -10.32515 -10.32346 -10.31437 -10.31006
 Alpha  occ. eigenvalues --  -10.30437 -10.28136 -10.27937  -1.19574  -1.14902
 Alpha  occ. eigenvalues --   -1.13268  -1.13231  -1.10740  -1.10634  -1.09499
 Alpha  occ. eigenvalues --   -1.09054  -1.08589  -1.04617  -1.04433  -1.02637
 Alpha  occ. eigenvalues --   -1.00748  -0.99900  -0.99805  -0.98600  -0.96632
 Alpha  occ. eigenvalues --   -0.96609  -0.96328  -0.92111  -0.91318  -0.87337
 Alpha  occ. eigenvalues --   -0.85718  -0.84153  -0.83705  -0.83359  -0.82566
 Alpha  occ. eigenvalues --   -0.81768  -0.79098  -0.76787  -0.74696  -0.74505
 Alpha  occ. eigenvalues --   -0.73724  -0.73503  -0.72376  -0.70498  -0.70201
 Alpha  occ. eigenvalues --   -0.67437  -0.66697  -0.66621  -0.65784  -0.64588
 Alpha  occ. eigenvalues --   -0.64078  -0.63869  -0.62778  -0.62184  -0.61794
 Alpha  occ. eigenvalues --   -0.60378  -0.60045  -0.60001  -0.59688  -0.59434
 Alpha  occ. eigenvalues --   -0.59162  -0.58444  -0.56729  -0.56112  -0.56077
 Alpha  occ. eigenvalues --   -0.55809  -0.55176  -0.54907  -0.54656  -0.54479
 Alpha  occ. eigenvalues --   -0.53752  -0.53733  -0.53287  -0.53104  -0.53043
 Alpha  occ. eigenvalues --   -0.52517  -0.52483  -0.51247  -0.50256  -0.50142
 Alpha  occ. eigenvalues --   -0.49715  -0.49576  -0.49453  -0.49080  -0.48940
 Alpha  occ. eigenvalues --   -0.48389  -0.48364  -0.48216  -0.47850  -0.47433
 Alpha  occ. eigenvalues --   -0.46383  -0.45723  -0.44728  -0.44408  -0.44116
 Alpha  occ. eigenvalues --   -0.40566  -0.40404  -0.39552  -0.37681  -0.37400
 Alpha  occ. eigenvalues --   -0.37320  -0.37077  -0.36570  -0.35975  -0.34847
 Alpha  occ. eigenvalues --   -0.34144  -0.33515  -0.33333  -0.33009  -0.32854
 Alpha  occ. eigenvalues --   -0.32683  -0.32397  -0.32212  -0.31867  -0.30322
 Alpha  occ. eigenvalues --   -0.29883  -0.29733  -0.25671  -0.25021
 Alpha virt. eigenvalues --    0.02696   0.04344   0.07464   0.08172   0.08585
 Alpha virt. eigenvalues --    0.09194   0.09626   0.10855   0.11403   0.11657
 Alpha virt. eigenvalues --    0.12154   0.13984   0.14426   0.14891   0.14996

 Mulliken charges:
               1
     1  N   -0.312487
     2  C    0.181770
     3  C    0.038691
     4  N   -0.258520
     5  C    0.134567
     6  H    0.024831
     7  N   -0.297325
     8  C    0.144054
     9  H    0.006616
    10  N   -0.291327
    11  C    0.253547
    12  C    0.121296
    13  N   -0.059596
    14  H    0.111309
    15  H    0.083046
    16  H    0.023212
    17  H    0.033061
    18  H    0.026444
    19  N   -0.312847
    20  C    0.247527
    21  C    0.181104
    22  N   -0.105196
    23  H    0.114745
    24  H    0.113332
    25  N   -0.306342
    26  C    0.230553
    27  N   -0.140927
    28  H    0.119131
    29  C    0.178478
    30  O   -0.319373
    31  C   -0.001432
    32  N   -0.224591
    33  C    0.129448
    34  H    0.026577
    35  H    0.028361
    36  H    0.028321
    37  H    0.024901
    38  H    0.060618
    39  H    0.059333
    40  H    0.076356
    41  H    0.032358
    42  C   -0.112480
    43  O   -0.261709
    44  C    0.163351
    45  H    0.133648
    46  N   -0.122996
    47  O   -0.345128
    48  C    0.343753
    49  H    0.047448
    50  C    0.159196
    51  C    0.041373
    52  N   -0.284194
    53  H    0.035232
    54  H    0.042485
    55  H    0.024795
    56  H    0.122785
    57  H    0.115496
    58  N   -0.067110
    59  C    0.085662
    60  C    0.229131
    61  N   -0.262425
    62  H    0.040651
    63  C    0.165470
    64  N   -0.304527
    65  H    0.035791
    66  C    0.136730
    67  N   -0.270258
    68  C    0.041916
    69  C    0.175094
    70  N   -0.312807
 Sum of Mulliken charges =  -0.00000

 Dipole moment (field-independent basis, Debye):
    X=              9.5637    Y=              4.8752    Z=              1.4310  Tot=             10.8296
 Quadrupole moment (field-independent basis, Debye-Ang):
   XX=           -164.2991   YY=           -207.9446   ZZ=           -252.2222
   XY=             -7.1959   XZ=             -0.8265   YZ=             -5.0999

 Normal termination of Gaussian 16 at Sat Jan 27 08:46:09 2018.
