 Gaussian 16, Revision A.03,
 Gaussian 16:  EM64L-G16RevA.03 25-Dec-2016

 ---------------------------------------
 #p wb97xd/cc-pvdz sp scf=(maxcycles=20)
 ---------------------------------------

 ------------------
 Base pair stacking
 ------------------
 Symbolic Z-matrix:
 Charge =  0 Multiplicity = 1

                         Standard orientation:
 ---------------------------------------------------------------------
 Center     Atomic      Atomic             Coordinates (Angstroms)
 Number     Number       Type             X           Y           Z
 ---------------------------------------------------------------------
      1          7           0        5.317173   -1.990855   -1.399604
      2          6           0        6.726806   -1.580914   -1.550915
      3          6           0        3.118840   -1.990272   -1.331521
      4          7           0        3.516855   -3.278767   -1.005821
      5          6           0        4.825342   -3.227554   -1.059876
      6          1           0        5.487602   -4.070246   -0.859332
      7          7           0        1.803922   -0.086698   -1.790139
      8          6           0        2.953698    0.563694   -1.996471
      9          1           0        2.851824    1.613346   -2.268708
     10          7           0        4.204559    0.114252   -1.917384
     11          6           0        4.217482   -1.185097   -1.576877
     12          6           0        1.850598   -1.392994   -1.448856
     13          7           0        0.703932   -2.043947   -1.242479
     14          1           0        0.690926   -3.011610   -0.988195
     15          1           0       -0.180728   -1.586803   -1.334954
     16          1           0        7.160879   -2.131808   -2.263856
     17          1           0        6.768370   -0.615234   -1.805570
     18          1           0        7.210332   -1.716982   -0.686231
     19          7           0        3.516064    3.441661    1.269259
     20          6           0        2.256656    2.893628    1.309138
     21          6           0        3.818504    4.871782    1.059541
     22          7           0       -1.191871    3.264170    1.129966
     23          1           0       -2.000693    2.679975    1.191364
     24          1           0       -1.347734    4.239933    0.974054
     25          7           0        1.093216    3.564135    1.164615
     26          6           0        0.046507    2.762537    1.251111
     27          7           0        0.130585    1.407703    1.462899
     28          1           0       -0.722848    0.873010    1.515098
     29          6           0        1.316947    0.696767    1.614468
     30          8           0        1.282641   -0.525729    1.801672
     31          6           0        2.450127    1.544466    1.523927
     32          7           0        3.803765    1.251389    1.617021
     33          6           0        4.395816    2.404261    1.460292
     34          1           0        5.475806    2.554826    1.475306
     35          1           0        4.375220    4.979254    0.236553
     36          1           0        2.964266    5.378524    0.951208
     37          1           0        4.318159    5.227694    1.848514
     38          1           0       -5.289973   -1.309091    1.032973
     39          1           0       -5.248467   -1.302845    2.794479
     40          1           0       -4.440745   -0.022125    1.889647
     41          1           0       -2.395964   -5.062542    1.859342
     42          6           0       -2.353369   -3.973325    1.854471
     43          8           0        0.016397   -3.882735    1.798301
     44          6           0       -1.079262   -3.322592    1.822141
     45          1           0       -0.257966   -1.448262    1.796127
     46          7           0       -1.138256   -1.943549    1.818630
     47          8           0       -2.218305    0.054036    1.836994
     48          6           0       -2.267149   -1.163439    1.842463
     49          1           0       -4.465407   -3.685767    1.903224
     50          6           0       -3.472121   -3.239558    1.878239
     51          6           0       -4.690161   -1.072765    1.899253
     52          7           0       -3.456891   -1.864017    1.872992
     53          1           0       -4.878664    4.024555   -2.849879
     54          1           0       -3.577878    4.040959   -1.865090
     55          1           0       -5.079275    4.159040   -1.235847
     56          1           0       -2.865255   -2.923004   -1.193627
     57          1           0       -4.490923   -2.464893   -1.433318
     58          7           0       -3.532898   -2.192456   -1.337485
     59          6           0       -3.163159   -0.911564   -1.398976
     60          6           0       -3.528074    1.427335   -1.640043
     61          7           0       -2.234340    1.763860   -1.508012
     62          1           0       -0.418741    0.861642   -1.207611
     63          6           0       -1.485940    0.677997   -1.324385
     64          7           0       -1.854368   -0.605744   -1.262510
     65          1           0       -6.700459    1.877601   -2.070619
     66          6           0       -5.703549    1.465113   -1.912618
     67          7           0       -5.438526    0.189207   -1.772944
     68          6           0       -4.062602    0.151352   -1.599380
     69          6           0       -4.527039    3.741496   -1.957557
     70          7           0       -4.593908    2.271678   -1.842744
 ---------------------------------------------------------------------

 SCF Done:  E(RwB97XD) =  -2048.74474026     A.U. after   15 cycles

 The electronic state is 1-A.
 Alpha  occ. eigenvalues --  -19.25664 -19.21959 -19.20516 -14.52431 -14.52378
 Alpha  occ. eigenvalues --  -14.48790 -14.48669 -14.47985 -14.47712 -14.46845
 Alpha  occ. eigenvalues --  -14.46471 -14.45423 -14.44482 -14.44408 -14.42070
 Alpha  occ. eigenvalues --  -14.41951 -14.40824 -14.40632 -14.40262 -14.39811
 Alpha  occ. eigenvalues --  -10.45354 -10.41136 -10.40124 -10.40088 -10.38153
 Alpha  occ. eigenvalues --  -10.37987 -10.37987 -10.37228 -10.35775 -10.35042
 Alpha  occ. eigenvalues --  -10.34993 -10.34305 -10.33926 -10.33353 -10.33270
 Alpha  occ. eigenvalues --  -10.32746 -10.32653 -10.32494 -10.31296 -10.30984
 Alpha  occ. eigenvalues --  -10.30225 -10.28047 -10.27865  -1.19285  -1.15186
 Alpha  occ. eigenvalues --   -1.13128  -1.12959  -1.10587  -1.10554  -1.09490
 Alpha  occ. eigenvalues --   -1.09258  -1.08458  -1.05035  -1.04500  -1.02371
 Alpha  occ. eigenvalues --   -1.01007  -0.99965  -0.99602  -0.98489  -0.97006
 Alpha  occ. eigenvalues --   -0.96575  -0.96261  -0.92189  -0.91164  -0.87652
 Alpha  occ. eigenvalues --   -0.85935  -0.84079  -0.83526  -0.83235  -0.82506
 Alpha  occ. eigenvalues --   -0.81646  -0.78906  -0.77129  -0.74930  -0.74565
 Alpha  occ. eigenvalues --   -0.73553  -0.73274  -0.72366  -0.70580  -0.70409
 Alpha  occ. eigenvalues --   -0.67293  -0.66986  -0.66492  -0.65771  -0.64477
 Alpha  occ. eigenvalues --   -0.64353  -0.63757  -0.62624  -0.62189  -0.61653
 Alpha  occ. eigenvalues --   -0.60669  -0.60260  -0.60009  -0.59544  -0.59422
 Alpha  occ. eigenvalues --   -0.59330  -0.58236  -0.56655  -0.56101  -0.55886
 Alpha  occ. eigenvalues --   -0.55600  -0.55351  -0.55022  -0.54515  -0.54253
 Alpha  occ. eigenvalues --   -0.53845  -0.53633  -0.53426  -0.53147  -0.52935
 Alpha  occ. eigenvalues --   -0.52795  -0.52348  -0.51132  -0.50179  -0.50048
 Alpha  occ. eigenvalues --   -0.49910  -0.49585  -0.49473  -0.49270  -0.48780
 Alpha  occ. eigenvalues --   -0.48389  -0.48288  -0.48032  -0.47663  -0.47268
 Alpha  occ. eigenvalues --   -0.46319  -0.45672  -0.45312  -0.44240  -0.43917
 Alpha  occ. eigenvalues --   -0.40751  -0.40569  -0.39298  -0.37833  -0.37639
 Alpha  occ. eigenvalues --   -0.37224  -0.37161  -0.36463  -0.35690  -0.34939
 Alpha  occ. eigenvalues --   -0.34529  -0.33669  -0.33155  -0.32906  -0.32853
 Alpha  occ. eigenvalues --   -0.32604  -0.32380  -0.32031  -0.31803  -0.30317
 Alpha  occ. eigenvalues --   -0.30227  -0.29862  -0.25425  -0.25207
 Alpha virt. eigenvalues --    0.02630   0.04202   0.06817   0.08512   0.08725
 Alpha virt. eigenvalues --    0.09278   0.09836   0.10581   0.11144   0.11622
 Alpha virt. eigenvalues --    0.12622   0.14206   0.14577   0.14954   0.15033

 Mulliken charges:
               1
     1  N   -0.313101
     2  C    0.182575
     3  C    0.045275
     4  N   -0.257557
     5  C    0.137432
     6  H    0.025082
     7  N   -0.301175
     8  C    0.140501
     9  H    0.008575
    10  N   -0.286640
    11  C    0.259769
    12  C    0.114009
    13  N   -0.066333
    14  H    0.111682
    15  H    0.080583
    16  H    0.021971
    17  H    0.032884
    18  H    0.027899
    19  N   -0.312094
    20  C    0.248176
    21  C    0.180819
    22  N   -0.106978
    23  H    0.112457
    24  H    0.113958
    25  N   -0.310042
    26  C    0.236854
    27  N   -0.149215
    28  H    0.122843
    29  C    0.194697
    30  O   -0.321988
    31  C   -0.014341
    32  N   -0.225281
    33  C    0.129315
    34  H    0.023948
    35  H    0.027982
    36  H    0.028700
    37  H    0.024736
    38  H    0.052911
    39  H    0.060837
    40  H    0.075992
    41  H    0.031423
    42  C   -0.115773
    43  O   -0.259857
    44  C    0.171467
    45  H    0.132862
    46  N   -0.124741
    47  O   -0.345635
    48  C    0.344381
    49  H    0.044705
    50  C    0.156555
    51  C    0.040750
    52  N   -0.278944
    53  H    0.035271
    54  H    0.040428
    55  H    0.028287
    56  H    0.117199
    57  H    0.116546
    58  N   -0.061799
    59  C    0.091556
    60  C    0.244258
    61  N   -0.270717
    62  H    0.042061
    63  C    0.167163
    64  N   -0.311320
    65  H    0.038216
    66  C    0.140039
    67  N   -0.267063
    68  C    0.030616
    69  C    0.178172
    70  N   -0.313824
 Sum of Mulliken charges =  -0.00000

 Dipole moment (field-independent basis, Debye):
    X=             -9.5440    Y=              5.1080    Z=             -0.9326  Tot=             10.8651
 Quadrupole moment (field-independent basis, Debye-Ang):
   XX=           -169.2763   YY=           -207.1625   ZZ=           -251.5953
   XY=              7.5430   XZ=             -8.6339   YZ=              2.9101

 Normal termination of Gaussian 16 at Sat Jan 27 10:16:43 2018.
