 Gaussian 16, Revision A.03,
 Gaussian 16:  EM64L-G16RevA.03 25-Dec-2016

 ---------------------------------------
 #p wb97xd/cc-pvdz sp scf=(maxcycles=20)
 ---------------------------------------

 ------------------
 Base pair stacking
 ------------------
 Symbolic Z-matrix:
 Charge =  0 Multiplicity = 1

                         Standard orientation:
 ---------------------------------------------------------------------
 Center     Atomic      Atomic             Coordinates (Angstroms)
 Number     Number       Type             X           Y           Z
 ---------------------------------------------------------------------
      1          7           0       -6.474346   -1.647225    0.562846
      2          6           0       -7.873604   -1.193768    0.442536
      3          6           0       -4.293400   -1.699247    0.842268
      4          7           0       -4.685847   -3.008935    0.606824
      5          6           0       -5.984077   -2.925179    0.447904
      6          1           0       -6.639515   -3.772110    0.242842
      7          7           0       -2.992469    0.218231    1.282477
      8          6           0       -4.134382    0.911645    1.229692
      9          1           0       -4.035280    1.983885    1.393233
     10          7           0       -5.374493    0.481441    1.006253
     11          6           0       -5.384872   -0.848577    0.818192
     12          6           0       -3.036316   -1.118100    1.089131
     13          7           0       -1.897497   -1.812007    1.141437
     14          1           0       -1.882765   -2.803060    1.004258
     15          1           0       -1.020691   -1.365148    1.319441
     16          1           0       -8.433238   -1.647379    1.136234
     17          1           0       -7.916663   -0.204066    0.575807
     18          1           0       -8.223009   -1.421522   -0.466333
     19          7           0       -2.223623    3.271892   -1.784603
     20          6           0       -0.989441    2.698675   -1.594148
     21          6           0       -2.518949    4.715367   -1.685322
     22          7           0        2.391503    3.010764   -0.863677
     23          1           0        3.183923    2.409098   -0.767303
     24          1           0        2.545075    3.989288   -0.723566
     25          7           0        0.151637    3.352525   -1.286787
     26          6           0        1.177082    2.528052   -1.167150
     27          7           0        1.093574    1.167073   -1.335259
     28          1           0        1.929777    0.614387   -1.224433
     29          6           0       -0.070010    0.472956   -1.651706
     30          8           0       -0.037362   -0.757021   -1.781382
     31          6           0       -1.180196    1.345321   -1.783472
     32          7           0       -2.507422    1.074354   -2.086691
     33          6           0       -3.086897    2.244104   -2.076245
     34          1           0       -4.145506    2.414463   -2.275237
     35          1           0       -3.200087    4.869523   -0.970419
     36          1           0       -1.681116    5.209974   -1.458037
     37          1           0       -2.873019    5.045740   -2.559570
     38          1           0        6.297543   -1.631280    0.091719
     39          1           0        6.545611   -1.701666   -1.651313
     40          1           0        5.634132   -0.367219   -0.944332
     41          1           0        3.481316   -5.361440   -1.049047
     42          6           0        3.466916   -4.272452   -1.095072
     43          8           0        1.123204   -4.134205   -1.434217
     44          6           0        2.222170   -3.596699   -1.299519
     45          1           0        1.456890   -1.707680   -1.484712
     46          7           0        2.315737   -2.220217   -1.341783
     47          8           0        3.435897   -0.246370   -1.262067
     48          6           0        3.453211   -1.463620   -1.210454
     49          1           0        5.565137   -4.027718   -0.806333
     50          6           0        4.593179   -3.561949   -0.963471
     51          6           0        5.854265   -1.421840   -0.870415
     52          7           0        4.613166   -2.187469   -1.016132
     53          1           0        3.600477    4.289863    2.906431
     54          1           0        2.468562    4.215792    1.733670
     55          1           0        4.052404    4.228029    1.339477
     56          1           0        1.600039   -2.762794    1.755857
     57          1           0        3.185795   -2.312534    2.194877
     58          7           0        2.265196   -2.034018    1.918940
     59          6           0        1.940049   -0.747640    1.775135
     60          6           0        2.353323    1.595466    1.802713
     61          7           0        1.109326    1.940111    1.431088
     62          1           0       -0.671709    1.045614    0.953172
     63          6           0        0.356866    0.855533    1.256745
     64          7           0        0.680679   -0.433704    1.400279
     65          1           0        5.436470    2.029214    2.673514
     66          6           0        4.460652    1.621202    2.408471
     67          7           0        4.171337    0.343372    2.375021
     68          6           0        2.838158    0.313084    1.992343
     69          6           0        3.379888    3.910228    2.007983
     70          7           0        3.406950    2.436116    2.073281
 ---------------------------------------------------------------------

 SCF Done:  E(RwB97XD) =  -2048.73310890     A.U. after   15 cycles

 The electronic state is 1-A.
 Alpha  occ. eigenvalues --  -19.26080 -19.22266 -19.20754 -14.52665 -14.51933
 Alpha  occ. eigenvalues --  -14.48869 -14.48500 -14.48030 -14.47778 -14.46944
 Alpha  occ. eigenvalues --  -14.46916 -14.44913 -14.43505 -14.43181 -14.42131
 Alpha  occ. eigenvalues --  -14.42005 -14.41181 -14.40862 -14.40586 -14.39868
 Alpha  occ. eigenvalues --  -10.45691 -10.41370 -10.40360 -10.39296 -10.38332
 Alpha  occ. eigenvalues --  -10.38093 -10.37486 -10.36433 -10.35274 -10.35150
 Alpha  occ. eigenvalues --  -10.34899 -10.34470 -10.33845 -10.33757 -10.33305
 Alpha  occ. eigenvalues --  -10.33080 -10.32792 -10.32009 -10.31404 -10.31022
 Alpha  occ. eigenvalues --  -10.30711 -10.28261 -10.28223  -1.19644  -1.14647
 Alpha  occ. eigenvalues --   -1.13372  -1.13273  -1.11079  -1.10693  -1.09555
 Alpha  occ. eigenvalues --   -1.08830  -1.08562  -1.04692  -1.04172  -1.02695
 Alpha  occ. eigenvalues --   -1.00567  -1.00169  -0.99985  -0.98647  -0.96732
 Alpha  occ. eigenvalues --   -0.96667  -0.96113  -0.92348  -0.91312  -0.87073
 Alpha  occ. eigenvalues --   -0.85541  -0.84236  -0.83772  -0.83670  -0.82632
 Alpha  occ. eigenvalues --   -0.82060  -0.79123  -0.76476  -0.74781  -0.74154
 Alpha  occ. eigenvalues --   -0.73882  -0.73557  -0.72647  -0.70779  -0.69899
 Alpha  occ. eigenvalues --   -0.67587  -0.66753  -0.66267  -0.66060  -0.64634
 Alpha  occ. eigenvalues --   -0.63928  -0.63777  -0.62855  -0.62450  -0.62064
 Alpha  occ. eigenvalues --   -0.60121  -0.60058  -0.59918  -0.59718  -0.59423
 Alpha  occ. eigenvalues --   -0.59041  -0.58699  -0.56885  -0.56317  -0.56149
 Alpha  occ. eigenvalues --   -0.56119  -0.55292  -0.55179  -0.54713  -0.54539
 Alpha  occ. eigenvalues --   -0.53815  -0.53636  -0.53176  -0.53097  -0.52746
 Alpha  occ. eigenvalues --   -0.52532  -0.52204  -0.51515  -0.50446  -0.50297
 Alpha  occ. eigenvalues --   -0.49942  -0.49602  -0.49284  -0.48982  -0.48708
 Alpha  occ. eigenvalues --   -0.48554  -0.48497  -0.48351  -0.48142  -0.47520
 Alpha  occ. eigenvalues --   -0.46673  -0.45796  -0.44800  -0.44233  -0.43576
 Alpha  occ. eigenvalues --   -0.40867  -0.39983  -0.39605  -0.37829  -0.37355
 Alpha  occ. eigenvalues --   -0.37053  -0.36896  -0.36872  -0.35887  -0.34422
 Alpha  occ. eigenvalues --   -0.34027  -0.33496  -0.33391  -0.33223  -0.33099
 Alpha  occ. eigenvalues --   -0.32734  -0.32480  -0.32225  -0.31902  -0.30566
 Alpha  occ. eigenvalues --   -0.30094  -0.29273  -0.25715  -0.25352
 Alpha virt. eigenvalues --    0.02774   0.04512   0.07700   0.08238   0.08331
 Alpha virt. eigenvalues --    0.09092   0.09454   0.11009   0.11496   0.11791
 Alpha virt. eigenvalues --    0.12374   0.13960   0.14212   0.14695   0.14993

 Mulliken charges:
               1
     1  N   -0.311739
     2  C    0.181381
     3  C    0.033778
     4  N   -0.259482
     5  C    0.133904
     6  H    0.025676
     7  N   -0.294991
     8  C    0.142415
     9  H    0.006122
    10  N   -0.291878
    11  C    0.248113
    12  C    0.126290
    13  N   -0.057574
    14  H    0.109787
    15  H    0.087368
    16  H    0.024282
    17  H    0.033968
    18  H    0.026324
    19  N   -0.312816
    20  C    0.241036
    21  C    0.181700
    22  N   -0.104056
    23  H    0.116308
    24  H    0.112989
    25  N   -0.292715
    26  C    0.212215
    27  N   -0.119273
    28  H    0.112457
    29  C    0.148273
    30  O   -0.314960
    31  C    0.011588
    32  N   -0.221671
    33  C    0.127305
    34  H    0.029165
    35  H    0.028410
    36  H    0.027748
    37  H    0.025072
    38  H    0.062530
    39  H    0.058504
    40  H    0.076214
    41  H    0.032584
    42  C   -0.111623
    43  O   -0.263266
    44  C    0.163797
    45  H    0.134003
    46  N   -0.128969
    47  O   -0.345899
    48  C    0.352791
    49  H    0.048718
    50  C    0.165148
    51  C    0.043664
    52  N   -0.293037
    53  H    0.036498
    54  H    0.047090
    55  H    0.017710
    56  H    0.126123
    57  H    0.114210
    58  N   -0.070681
    59  C    0.086467
    60  C    0.215331
    61  N   -0.255245
    62  H    0.053245
    63  C    0.161597
    64  N   -0.301650
    65  H    0.032987
    66  C    0.131346
    67  N   -0.267479
    68  C    0.046997
    69  C    0.166121
    70  N   -0.308349
 Sum of Mulliken charges =  -0.00000

 Dipole moment (field-independent basis, Debye):
    X=              9.2242    Y=              4.6886    Z=              2.1907  Tot=             10.5768
 Quadrupole moment (field-independent basis, Debye-Ang):
   XX=           -159.6305   YY=           -209.6285   ZZ=           -252.4053
   XY=             -5.5306   XZ=              5.8182   YZ=             -8.2143

 Normal termination of Gaussian 16 at Fri Jan 26 18:58:16 2018.
