 Gaussian 16, Revision A.03,
 Gaussian 16:  EM64L-G16RevA.03 25-Dec-2016

 ---------------------------------------
 #p wb97xd/cc-pvdz sp scf=(maxcycles=20)
 ---------------------------------------

 ------------------
 Base pair stacking
 ------------------
 Symbolic Z-matrix:
 Charge =  0 Multiplicity = 1

                         Standard orientation:
 ---------------------------------------------------------------------
 Center     Atomic      Atomic             Coordinates (Angstroms)
 Number     Number       Type             X           Y           Z
 ---------------------------------------------------------------------
      1          7           0       -6.413073   -1.651729    0.620741
      2          6           0       -7.802698   -1.206998    0.399012
      3          6           0       -4.239708   -1.683843    0.956549
      4          7           0       -4.645745   -3.009820    0.915815
      5          6           0       -5.938861   -2.937398    0.715138
      6          1           0       -6.601808   -3.798622    0.627096
      7          7           0       -2.921201    0.264278    1.127756
      8          6           0       -4.051592    0.953683    0.941983
      9          1           0       -3.940658    2.037181    0.941191
     10          7           0       -5.292621    0.507725    0.757900
     11          6           0       -5.318030   -0.835202    0.776169
     12          6           0       -2.980070   -1.085327    1.140977
     13          7           0       -1.852765   -1.775273    1.326283
     14          1           0       -1.849318   -2.775727    1.343344
     15          1           0       -0.973712   -1.315901    1.454298
     16          1           0       -8.383797   -1.542333    1.140675
     17          1           0       -7.834405   -0.208167    0.377623
     18          1           0       -8.135466   -1.568100   -0.472116
     19          7           0       -2.339763    3.179164   -1.675664
     20          6           0       -1.102941    2.619139   -1.464213
     21          6           0       -2.673206    4.606152   -1.493392
     22          7           0        2.231212    2.948181   -0.549402
     23          1           0        3.032036    2.357362   -0.455290
     24          1           0        2.354992    3.917625   -0.335931
     25          7           0        0.006608    3.273113   -1.057675
     26          6           0        1.044244    2.463165   -0.944067
     27          7           0        1.000713    1.115576   -1.207906
     28          1           0        1.843412    0.573514   -1.093940
     29          6           0       -0.129937    0.421620   -1.627350
     30          8           0       -0.062356   -0.795611   -1.838321
     31          6           0       -1.252734    1.278465   -1.753951
     32          7           0       -2.557332    1.002363   -2.139547
     33          6           0       -3.163883    2.156724   -2.078267
     34          1           0       -4.215530    2.319051   -2.316913
     35          1           0       -3.390983    4.697004   -0.803939
     36          1           0       -1.858931    5.100689   -1.192299
     37          1           0       -2.992952    4.988721   -2.359535
     38          1           0        6.195070   -1.669097    0.279557
     39          1           0        6.527307   -1.614350   -1.449978
     40          1           0        5.552240   -0.350334   -0.699732
     41          1           0        3.524411   -5.367801   -1.248095
     42          6           0        3.486704   -4.278734   -1.220864
     43          8           0        1.159174   -4.164660   -1.664354
     44          6           0        2.237597   -3.615684   -1.439815
     45          1           0        1.437952   -1.734188   -1.533860
     46          7           0        2.300803   -2.237954   -1.384064
     47          8           0        3.369375   -0.252142   -1.115933
     48          6           0        3.412718   -1.469460   -1.146145
     49          1           0        5.562525   -4.012294   -0.813672
     50          6           0        4.588493   -3.556460   -0.986349
     51          6           0        5.793252   -1.402887   -0.686751
     52          7           0        4.578764   -2.181488   -0.944693
     53          1           0        3.692724    4.465383    2.263072
     54          1           0        2.585682    4.224022    1.089055
     55          1           0        4.177746    4.158223    0.735383
     56          1           0        1.616507   -2.658151    2.162313
     57          1           0        3.198639   -2.162962    2.564487
     58          7           0        2.288379   -1.920232    2.227270
     59          6           0        1.984990   -0.667853    1.879889
     60          6           0        2.431259    1.646953    1.557031
     61          7           0        1.200736    1.943803    1.107445
     62          1           0       -0.582149    1.005842    0.730450
     63          6           0        0.436718    0.853560    1.083952
     64          7           0        0.738734   -0.401667    1.431467
     65          1           0        5.500615    2.175992    2.423823
     66          6           0        4.525038    1.742685    2.201511
     67          7           0        4.218154    0.478154    2.357883
     68          6           0        2.893329    0.403833    1.952852
     69          6           0        3.486320    3.954426    1.428615
     70          7           0        3.490722    2.507715    1.720204
 ---------------------------------------------------------------------

 SCF Done:  E(RwB97XD) =  -2048.63801336     A.U. after   15 cycles

 The electronic state is 1-A.
 Alpha  occ. eigenvalues --  -19.25959 -19.21973 -19.20681 -14.52497 -14.52489
 Alpha  occ. eigenvalues --  -14.48768 -14.48666 -14.48095 -14.47899 -14.46433
 Alpha  occ. eigenvalues --  -14.45291 -14.45130 -14.43659 -14.42675 -14.42347
 Alpha  occ. eigenvalues --  -14.41851 -14.41376 -14.40774 -14.40728 -14.40072
 Alpha  occ. eigenvalues --  -10.45545 -10.41247 -10.40104 -10.39542 -10.38182
 Alpha  occ. eigenvalues --  -10.37902 -10.37868 -10.36703 -10.35401 -10.35139
 Alpha  occ. eigenvalues --  -10.35115 -10.34496 -10.34356 -10.34032 -10.33270
 Alpha  occ. eigenvalues --  -10.33154 -10.32999 -10.32254 -10.31192 -10.30965
 Alpha  occ. eigenvalues --  -10.30826 -10.28467 -10.28033  -1.19522  -1.15515
 Alpha  occ. eigenvalues --   -1.13469  -1.13012  -1.11257  -1.10620  -1.09462
 Alpha  occ. eigenvalues --   -1.09365  -1.08584  -1.04914  -1.04407  -1.02525
 Alpha  occ. eigenvalues --   -1.01702  -1.00422  -0.99615  -0.98559  -0.96939
 Alpha  occ. eigenvalues --   -0.96616  -0.96421  -0.92577  -0.91107  -0.87804
 Alpha  occ. eigenvalues --   -0.86479  -0.84107  -0.83846  -0.83618  -0.82566
 Alpha  occ. eigenvalues --   -0.82234  -0.78937  -0.77137  -0.74919  -0.74691
 Alpha  occ. eigenvalues --   -0.73702  -0.73377  -0.72867  -0.70991  -0.70538
 Alpha  occ. eigenvalues --   -0.67725  -0.66924  -0.66562  -0.66286  -0.64698
 Alpha  occ. eigenvalues --   -0.64437  -0.63807  -0.62999  -0.62857  -0.62622
 Alpha  occ. eigenvalues --   -0.60696  -0.60512  -0.60210  -0.59797  -0.59552
 Alpha  occ. eigenvalues --   -0.59354  -0.58794  -0.57656  -0.56503  -0.56264
 Alpha  occ. eigenvalues --   -0.56137  -0.55992  -0.55438  -0.54612  -0.54289
 Alpha  occ. eigenvalues --   -0.54010  -0.53529  -0.53265  -0.53029  -0.52904
 Alpha  occ. eigenvalues --   -0.52375  -0.51982  -0.51678  -0.50650  -0.50165
 Alpha  occ. eigenvalues --   -0.50143  -0.49567  -0.49443  -0.48933  -0.48843
 Alpha  occ. eigenvalues --   -0.48781  -0.48668  -0.48257  -0.48162  -0.47388
 Alpha  occ. eigenvalues --   -0.46848  -0.46258  -0.45003  -0.44004  -0.42973
 Alpha  occ. eigenvalues --   -0.41091  -0.39996  -0.39477  -0.38188  -0.37272
 Alpha  occ. eigenvalues --   -0.37206  -0.37107  -0.36658  -0.35840  -0.34779
 Alpha  occ. eigenvalues --   -0.34395  -0.33516  -0.33447  -0.33138  -0.32625
 Alpha  occ. eigenvalues --   -0.32409  -0.32018  -0.31811  -0.30975  -0.30689
 Alpha  occ. eigenvalues --   -0.30212  -0.28748  -0.25888  -0.25145
 Alpha virt. eigenvalues --    0.03027   0.03805   0.07478   0.08085   0.08362
 Alpha virt. eigenvalues --    0.09036   0.09386   0.10864   0.11527   0.11912
 Alpha virt. eigenvalues --    0.12761   0.13775   0.14272   0.14654   0.15083

 Mulliken charges:
               1
     1  N   -0.312219
     2  C    0.181505
     3  C    0.033856
     4  N   -0.260896
     5  C    0.134715
     6  H    0.026307
     7  N   -0.293460
     8  C    0.148274
     9  H    0.004589
    10  N   -0.291136
    11  C    0.250652
    12  C    0.125609
    13  N   -0.060974
    14  H    0.107506
    15  H    0.085663
    16  H    0.024360
    17  H    0.034028
    18  H    0.027186
    19  N   -0.311127
    20  C    0.231848
    21  C    0.181918
    22  N   -0.096174
    23  H    0.115910
    24  H    0.097639
    25  N   -0.273021
    26  C    0.192285
    27  N   -0.107320
    28  H    0.116093
    29  C    0.134900
    30  O   -0.314277
    31  C    0.023304
    32  N   -0.219854
    33  C    0.119354
    34  H    0.028313
    35  H    0.026981
    36  H    0.027192
    37  H    0.025103
    38  H    0.060920
    39  H    0.058167
    40  H    0.076385
    41  H    0.032198
    42  C   -0.111642
    43  O   -0.261486
    44  C    0.174505
    45  H    0.133029
    46  N   -0.133817
    47  O   -0.345690
    48  C    0.354867
    49  H    0.047576
    50  C    0.166248
    51  C    0.043367
    52  N   -0.294953
    53  H    0.035176
    54  H    0.046264
    55  H    0.019353
    56  H    0.121414
    57  H    0.115525
    58  N   -0.070178
    59  C    0.087486
    60  C    0.209217
    61  N   -0.272759
    62  H    0.059635
    63  C    0.172513
    64  N   -0.301728
    65  H    0.034807
    66  C    0.133325
    67  N   -0.265160
    68  C    0.055479
    69  C    0.175981
    70  N   -0.320651
 Sum of Mulliken charges =  -0.00000

 Dipole moment (field-independent basis, Debye):
    X=              8.7902    Y=              4.5874    Z=              3.3444  Tot=             10.4641
 Quadrupole moment (field-independent basis, Debye-Ang):
   XX=           -159.8239   YY=           -211.3748   ZZ=           -254.7734
   XY=             -5.4067   XZ=              5.4511   YZ=            -10.6879

 Normal termination of Gaussian 16 at Sat Jan 27 01:31:18 2018.
