 Gaussian 16, Revision A.03,
 Gaussian 16:  EM64L-G16RevA.03 25-Dec-2016

 ---------------------------------------
 #p wb97xd/cc-pvdz sp scf=(maxcycles=20)
 ---------------------------------------

 ------------------
 Base pair stacking
 ------------------
 Symbolic Z-matrix:
 Charge =  0 Multiplicity = 1

                         Standard orientation:
 ---------------------------------------------------------------------
 Center     Atomic      Atomic             Coordinates (Angstroms)
 Number     Number       Type             X           Y           Z
 ---------------------------------------------------------------------
      1          7           0       -5.362860   -2.081664    1.343064
      2          6           0       -6.766531   -1.713948    1.612325
      3          6           0       -3.167881   -2.057158    1.206080
      4          7           0       -3.577260   -3.265573    0.661228
      5          6           0       -4.883272   -3.231972    0.765561
      6          1           0       -5.552355   -4.026664    0.434317
      7          7           0       -1.837283   -0.263970    1.965644
      8          6           0       -2.979269    0.331276    2.325001
      9          1           0       -2.867793    1.313260    2.782735
     10          7           0       -4.232390   -0.102350    2.204375
     11          6           0       -4.257362   -1.316705    1.630678
     12          6           0       -1.896030   -1.485194    1.390981
     13          7           0       -0.757166   -2.080998    1.031583
     14          1           0       -0.753167   -2.985125    0.602915
     15          1           0        0.130393   -1.644174    1.178468
     16          1           0       -7.177758   -2.389052    2.224937
     17          1           0       -6.799071   -0.811976    2.041895
     18          1           0       -7.277888   -1.690772    0.753271
     19          7           0       -3.442285    3.587335   -1.268137
     20          6           0       -2.188364    3.032547   -1.357238
     21          6           0       -3.729201    5.026008   -1.099031
     22          7           0        1.265580    3.394551   -1.388365
     23          1           0        2.068337    2.804775   -1.471998
     24          1           0        1.432170    4.375038   -1.280671
     25          7           0       -1.017132    3.703078   -1.305687
     26          6           0        0.021224    2.894018   -1.419116
     27          7           0       -0.077695    1.532208   -1.571450
     28          1           0        0.770223    0.992065   -1.650408
     29          6           0       -1.272309    0.821110   -1.627108
     30          8           0       -1.251345   -0.408025   -1.766905
     31          6           0       -2.396666    1.676775   -1.506602
     32          7           0       -3.754049    1.386267   -1.511183
     33          6           0       -4.333734    2.547092   -1.367457
     34          1           0       -5.412502    2.701748   -1.327376
     35          1           0       -4.238126    5.168640   -0.250817
     36          1           0       -2.869081    5.532855   -1.059531
     37          1           0       -4.272002    5.352457   -1.872080
     38          1           0        5.352539   -1.189456   -1.340471
     39          1           0        5.211238   -1.253152   -3.095646
     40          1           0        4.458934    0.066159   -2.198532
     41          1           0        2.408100   -4.959887   -1.851034
     42          6           0        2.368230   -3.871168   -1.887340
     43          8           0        0.005682   -3.767836   -1.700886
     44          6           0        1.099447   -3.213984   -1.809037
     45          1           0        0.285070   -1.336456   -1.811615
     46          7           0        1.161574   -1.836173   -1.864037
     47          8           0        2.243224    0.154264   -2.023351
     48          6           0        2.289008   -1.062670   -1.982875
     49          1           0        4.474752   -3.595195   -2.066931
     50          6           0        3.485451   -3.143912   -2.003670
     51          6           0        4.705100   -0.985121   -2.180202
     52          7           0        3.473557   -1.769203   -2.052595
     53          1           0        4.879384    3.615987    3.551392
     54          1           0        3.547444    3.806913    2.628584
     55          1           0        5.027794    4.046744    1.984278
     56          1           0        2.807872   -2.917505    0.707483
     57          1           0        4.440804   -2.503025    0.975487
     58          7           0        3.480404   -2.222546    0.962205
     59          6           0        3.113878   -0.976878    1.270623
     60          6           0        3.488275    1.279362    1.927109
     61          7           0        2.191214    1.627744    1.900789
     62          1           0        0.366132    0.786991    1.497304
     63          6           0        1.436403    0.590489    1.544072
     64          7           0        1.801610   -0.657923    1.234771
     65          1           0        6.673296    1.658937    2.331785
     66          6           0        5.671455    1.277497    2.132348
     67          7           0        5.401030    0.047850    1.768303
     68          6           0        4.020182    0.035516    1.634773
     69          6           0        4.498850    3.500460    2.633879
     70          7           0        4.560786    2.077364    2.247902
 ---------------------------------------------------------------------

 SCF Done:  E(RwB97XD) =  -2048.74185225     A.U. after   15 cycles

 The electronic state is 1-A.
 Alpha  occ. eigenvalues --  -19.26042 -19.22500 -19.20724 -14.52744 -14.52145
 Alpha  occ. eigenvalues --  -14.48963 -14.48368 -14.48142 -14.47737 -14.47111
 Alpha  occ. eigenvalues --  -14.46897 -14.45185 -14.44225 -14.44089 -14.42206
 Alpha  occ. eigenvalues --  -14.41481 -14.40997 -14.40323 -14.39993 -14.39476
 Alpha  occ. eigenvalues --  -10.45735 -10.41436 -10.40622 -10.39854 -10.38460
 Alpha  occ. eigenvalues --  -10.38357 -10.37743 -10.36946 -10.35493 -10.35352
 Alpha  occ. eigenvalues --  -10.34604 -10.34508 -10.33589 -10.33440 -10.33063
 Alpha  occ. eigenvalues --  -10.32484 -10.32376 -10.32222 -10.31731 -10.31114
 Alpha  occ. eigenvalues --  -10.30066 -10.28259 -10.27551  -1.19656  -1.14910
 Alpha  occ. eigenvalues --   -1.13494  -1.13359  -1.10745  -1.10319  -1.09709
 Alpha  occ. eigenvalues --   -1.09186  -1.08732  -1.04762  -1.04159  -1.02808
 Alpha  occ. eigenvalues --   -1.00740  -0.99950  -0.99576  -0.98714  -0.96762
 Alpha  occ. eigenvalues --   -0.96730  -0.95959  -0.91840  -0.91629  -0.87374
 Alpha  occ. eigenvalues --   -0.85630  -0.84288  -0.83881  -0.82978  -0.82683
 Alpha  occ. eigenvalues --   -0.81393  -0.79332  -0.76875  -0.74806  -0.74621
 Alpha  occ. eigenvalues --   -0.73859  -0.73680  -0.72041  -0.70316  -0.70114
 Alpha  occ. eigenvalues --   -0.67580  -0.66893  -0.66730  -0.65438  -0.64781
 Alpha  occ. eigenvalues --   -0.64142  -0.64015  -0.62854  -0.61939  -0.61834
 Alpha  occ. eigenvalues --   -0.60498  -0.60096  -0.60018  -0.59838  -0.59327
 Alpha  occ. eigenvalues --   -0.59023  -0.58573  -0.56791  -0.56204  -0.55787
 Alpha  occ. eigenvalues --   -0.55411  -0.55033  -0.54821  -0.54598  -0.54175
 Alpha  occ. eigenvalues --   -0.53883  -0.53721  -0.53464  -0.53327  -0.53177
 Alpha  occ. eigenvalues --   -0.52704  -0.52573  -0.50895  -0.50391  -0.49847
 Alpha  occ. eigenvalues --   -0.49782  -0.49624  -0.49353  -0.49161  -0.49050
 Alpha  occ. eigenvalues --   -0.48561  -0.48389  -0.48049  -0.47889  -0.47520
 Alpha  occ. eigenvalues --   -0.46060  -0.45780  -0.45303  -0.44108  -0.44073
 Alpha  occ. eigenvalues --   -0.40428  -0.40233  -0.39625  -0.37545  -0.37464
 Alpha  occ. eigenvalues --   -0.37428  -0.37340  -0.36215  -0.36089  -0.34680
 Alpha  occ. eigenvalues --   -0.34246  -0.34032  -0.33600  -0.32831  -0.32704
 Alpha  occ. eigenvalues --   -0.32608  -0.32547  -0.32350  -0.31994  -0.30028
 Alpha  occ. eigenvalues --   -0.29963  -0.29561  -0.25671  -0.24869
 Alpha virt. eigenvalues --    0.02141   0.04358   0.07183   0.08177   0.08955
 Alpha virt. eigenvalues --    0.09090   0.09616   0.10815   0.11065   0.11934
 Alpha virt. eigenvalues --    0.13129   0.14394   0.14424   0.14854   0.15295

 Mulliken charges:
               1
     1  N   -0.312875
     2  C    0.182192
     3  C    0.044038
     4  N   -0.253912
     5  C    0.136106
     6  H    0.023862
     7  N   -0.302836
     8  C    0.139835
     9  H    0.007519
    10  N   -0.290140
    11  C    0.256676
    12  C    0.113694
    13  N   -0.065165
    14  H    0.112846
    15  H    0.081395
    16  H    0.021862
    17  H    0.032692
    18  H    0.026592
    19  N   -0.311810
    20  C    0.248837
    21  C    0.180829
    22  N   -0.120555
    23  H    0.114957
    24  H    0.116744
    25  N   -0.311333
    26  C    0.247648
    27  N   -0.152495
    28  H    0.121096
    29  C    0.199343
    30  O   -0.320477
    31  C   -0.014513
    32  N   -0.225570
    33  C    0.128992
    34  H    0.025402
    35  H    0.028264
    36  H    0.028994
    37  H    0.025235
    38  H    0.055649
    39  H    0.061256
    40  H    0.076882
    41  H    0.033413
    42  C   -0.117646
    43  O   -0.261114
    44  C    0.168929
    45  H    0.133016
    46  N   -0.119874
    47  O   -0.345977
    48  C    0.344056
    49  H    0.046184
    50  C    0.149207
    51  C    0.040201
    52  N   -0.272724
    53  H    0.033752
    54  H    0.043424
    55  H    0.027119
    56  H    0.115659
    57  H    0.114893
    58  N   -0.062102
    59  C    0.100034
    60  C    0.246011
    61  N   -0.270541
    62  H    0.040547
    63  C    0.173115
    64  N   -0.316983
    65  H    0.036991
    66  C    0.139756
    67  N   -0.269536
    68  C    0.025966
    69  C    0.179296
    70  N   -0.312828
 Sum of Mulliken charges =  -0.00000

 Dipole moment (field-independent basis, Debye):
    X=              9.7391    Y=              5.2660    Z=             -0.1903  Tot=             11.0732
 Quadrupole moment (field-independent basis, Debye-Ang):
   XX=           -169.9734   YY=           -206.8957   ZZ=           -248.1413
   XY=             -7.6463   XZ=             -7.8491   YZ=              1.5039

 Normal termination of Gaussian 16 at Sat Jan 27 06:06:39 2018.
