 Gaussian 16, Revision A.03,
 Gaussian 16:  EM64L-G16RevA.03 25-Dec-2016

 ---------------------------------------
 #p wb97xd/cc-pvdz sp scf=(maxcycles=20)
 ---------------------------------------

 ------------------
 Base pair stacking
 ------------------
 Symbolic Z-matrix:
 Charge =  0 Multiplicity = 1

                         Standard orientation:
 ---------------------------------------------------------------------
 Center     Atomic      Atomic             Coordinates (Angstroms)
 Number     Number       Type             X           Y           Z
 ---------------------------------------------------------------------
      1          7           0       -6.279428   -1.706322    0.668818
      2          6           0       -7.689541   -1.275975    0.735095
      3          6           0       -4.085154   -1.762027    0.808093
      4          7           0       -4.472742   -2.991081    0.294345
      5          6           0       -5.779194   -2.908329    0.231005
      6          1           0       -6.433898   -3.701861   -0.130419
      7          7           0       -2.786987    0.035114    1.613054
      8          6           0       -3.939541    0.690070    1.786944
      9          1           0       -3.845746    1.696991    2.191384
     10          7           0       -5.184712    0.289839    1.537406
     11          6           0       -5.187823   -0.959516    1.043907
     12          6           0       -2.823753   -1.220056    1.114784
     13          7           0       -1.674310   -1.875460    0.940494
     14          1           0       -1.654045   -2.806480    0.574398
     15          1           0       -0.794730   -1.458445    1.169784
     16          1           0       -8.200320   -1.893958    1.332911
     17          1           0       -7.738297   -0.346144    1.098628
     18          1           0       -8.089492   -1.295193   -0.181237
     19          7           0       -2.380480    3.493918   -1.796721
     20          6           0       -1.148684    2.894197   -1.691552
     21          6           0       -2.627540    4.949294   -1.757371
     22          7           0        2.294466    3.141685   -1.310479
     23          1           0        3.076830    2.521994   -1.254493
     24          1           0        2.486082    4.121362   -1.245541
     25          7           0        0.033421    3.528577   -1.535847
     26          6           0        1.044179    2.680597   -1.465664
     27          7           0        0.909713    1.315452   -1.541916
     28          1           0        1.738292    0.744117   -1.478775
     29          6           0       -0.296715    0.641093   -1.702048
     30          8           0       -0.308485   -0.594764   -1.759267
     31          6           0       -1.391727    1.538802   -1.779026
     32          7           0       -2.748800    1.292573   -1.935958
     33          6           0       -3.294262    2.478597   -1.940855
     34          1           0       -4.362559    2.670329   -2.046937
     35          1           0       -3.231135    5.165989   -0.990882
     36          1           0       -1.759046    5.429661   -1.642333
     37          1           0       -3.057001    5.239381   -2.611907
     38          1           0        6.154997   -1.557656   -0.455428
     39          1           0        6.229128   -1.736771   -2.206728
     40          1           0        5.425862   -0.335573   -1.497655
     41          1           0        3.145775   -5.257308   -1.090805
     42          6           0        3.154863   -4.172909   -1.201324
     43          8           0        0.793521   -3.980947   -1.320910
     44          6           0        1.913815   -3.471348   -1.325608
     45          1           0        1.182769   -1.573122   -1.550685
     46          7           0        2.038061   -2.103254   -1.460269
     47          8           0        3.210898   -0.164299   -1.608926
     48          6           0        3.201963   -1.376449   -1.485331
     49          1           0        5.276869   -3.977921   -1.131445
     50          6           0        4.306453   -3.491718   -1.222245
     51          6           0        5.625058   -1.390520   -1.381331
     52          7           0        4.356428   -2.123918   -1.360026
     53          1           0        3.834073    3.795976    3.780947
     54          1           0        2.635161    3.966130    2.687434
     55          1           0        4.192257    4.113432    2.220711
     56          1           0        1.866596   -2.846686    1.122103
     57          1           0        3.469364   -2.467698    1.566603
     58          7           0        2.530124   -2.157974    1.414562
     59          6           0        2.179110   -0.882935    1.594141
     60          6           0        2.560695    1.399698    2.147038
     61          7           0        1.292018    1.787104    1.935357
     62          1           0       -0.501817    0.979966    1.359772
     63          6           0        0.545620    0.752737    1.553426
     64          7           0        0.895327   -0.525043    1.372992
     65          1           0        5.684073    1.703214    2.924555
     66          6           0        4.699917    1.341509    2.625307
     67          7           0        4.426913    0.099193    2.309419
     68          6           0        3.073779    0.122268    2.004100
     69          6           0        3.565422    3.630234    2.832074
     70          7           0        3.616825    2.182807    2.548696
 ---------------------------------------------------------------------

 SCF Done:  E(RwB97XD) =  -2048.74105019     A.U. after   15 cycles

 The electronic state is 1-A.
 Alpha  occ. eigenvalues --  -19.26379 -19.22942 -19.20855 -14.53031 -14.51736
 Alpha  occ. eigenvalues --  -14.48966 -14.48253 -14.48093 -14.47603 -14.47230
 Alpha  occ. eigenvalues --  -14.47162 -14.44804 -14.43509 -14.43471 -14.42309
 Alpha  occ. eigenvalues --  -14.41396 -14.40973 -14.40730 -14.40145 -14.39449
 Alpha  occ. eigenvalues --  -10.45997 -10.41559 -10.40892 -10.39197 -10.38563
 Alpha  occ. eigenvalues --  -10.38461 -10.37340 -10.36405 -10.35518 -10.34893
 Alpha  occ. eigenvalues --  -10.34653 -10.34571 -10.33417 -10.33409 -10.33306
 Alpha  occ. eigenvalues --  -10.32639 -10.32364 -10.31950 -10.31863 -10.31102
 Alpha  occ. eigenvalues --  -10.30406 -10.28322 -10.27793  -1.19951  -1.14462
 Alpha  occ. eigenvalues --   -1.13875  -1.13466  -1.10789  -1.10652  -1.09933
 Alpha  occ. eigenvalues --   -1.08864  -1.08569  -1.04250  -1.04149  -1.03043
 Alpha  occ. eigenvalues --   -1.00295  -1.00141  -0.99661  -0.98792  -0.96780
 Alpha  occ. eigenvalues --   -0.96323  -0.96016  -0.91882  -0.91757  -0.86894
 Alpha  occ. eigenvalues --   -0.85239  -0.84336  -0.84078  -0.83264  -0.82713
 Alpha  occ. eigenvalues --   -0.81661  -0.79531  -0.76347  -0.74875  -0.74044
 Alpha  occ. eigenvalues --   -0.74026  -0.73876  -0.72193  -0.70337  -0.69763
 Alpha  occ. eigenvalues --   -0.67706  -0.67083  -0.66159  -0.65591  -0.64934
 Alpha  occ. eigenvalues --   -0.64100  -0.63645  -0.62978  -0.62061  -0.61977
 Alpha  occ. eigenvalues --   -0.60283  -0.60063  -0.59900  -0.59721  -0.59059
 Alpha  occ. eigenvalues --   -0.58803  -0.58752  -0.56820  -0.56407  -0.55901
 Alpha  occ. eigenvalues --   -0.55773  -0.54941  -0.54770  -0.54672  -0.54414
 Alpha  occ. eigenvalues --   -0.53983  -0.53782  -0.53264  -0.53125  -0.52888
 Alpha  occ. eigenvalues --   -0.52855  -0.52098  -0.51145  -0.50502  -0.50038
 Alpha  occ. eigenvalues --   -0.49953  -0.49550  -0.49333  -0.49145  -0.48960
 Alpha  occ. eigenvalues --   -0.48542  -0.48443  -0.48145  -0.47956  -0.47689
 Alpha  occ. eigenvalues --   -0.46263  -0.45794  -0.44611  -0.44348  -0.44198
 Alpha  occ. eigenvalues --   -0.40379  -0.39958  -0.39879  -0.37586  -0.37512
 Alpha  occ. eigenvalues --   -0.37463  -0.36758  -0.36448  -0.36054  -0.34504
 Alpha  occ. eigenvalues --   -0.34043  -0.33968  -0.33515  -0.33016  -0.32814
 Alpha  occ. eigenvalues --   -0.32727  -0.32662  -0.32488  -0.32008  -0.30198
 Alpha  occ. eigenvalues --   -0.29701  -0.29339  -0.25782  -0.24933
 Alpha virt. eigenvalues --    0.02171   0.04736   0.07602   0.08078   0.08757
 Alpha virt. eigenvalues --    0.08994   0.09492   0.11195   0.11628   0.11816
 Alpha virt. eigenvalues --    0.12521   0.14185   0.14326   0.14997   0.15169

 Mulliken charges:
               1
     1  N   -0.311542
     2  C    0.181416
     3  C    0.036005
     4  N   -0.257380
     5  C    0.132667
     6  H    0.024099
     7  N   -0.298892
     8  C    0.140793
     9  H    0.007280
    10  N   -0.293227
    11  C    0.246970
    12  C    0.122973
    13  N   -0.053786
    14  H    0.113670
    15  H    0.088046
    16  H    0.023566
    17  H    0.033479
    18  H    0.025140
    19  N   -0.312351
    20  C    0.249382
    21  C    0.181208
    22  N   -0.122571
    23  H    0.115509
    24  H    0.116116
    25  N   -0.308350
    26  C    0.243476
    27  N   -0.141039
    28  H    0.113336
    29  C    0.177563
    30  O   -0.318428
    31  C   -0.003568
    32  N   -0.223308
    33  C    0.129232
    34  H    0.028580
    35  H    0.028802
    36  H    0.028379
    37  H    0.025334
    38  H    0.064307
    39  H    0.059838
    40  H    0.077107
    41  H    0.034266
    42  C   -0.104917
    43  O   -0.261450
    44  C    0.133793
    45  H    0.135197
    46  N   -0.114326
    47  O   -0.344117
    48  C    0.344871
    49  H    0.050696
    50  C    0.156577
    51  C    0.042484
    52  N   -0.283939
    53  H    0.032516
    54  H    0.044956
    55  H    0.022632
    56  H    0.129853
    57  H    0.114192
    58  N   -0.073077
    59  C    0.089501
    60  C    0.239042
    61  N   -0.264087
    62  H    0.043166
    63  C    0.169178
    64  N   -0.306502
    65  H    0.033391
    66  C    0.135481
    67  N   -0.270560
    68  C    0.034222
    69  C    0.179897
    70  N   -0.312769
 Sum of Mulliken charges =  -0.00000

 Dipole moment (field-independent basis, Debye):
    X=              9.9881    Y=              4.7938    Z=              0.6404  Tot=             11.0974
 Quadrupole moment (field-independent basis, Debye-Ang):
   XX=           -162.1923   YY=           -207.7245   ZZ=           -248.9154
   XY=             -7.2682   XZ=              3.3563   YZ=             -2.4229

 Normal termination of Gaussian 16 at Sat Jan 27 05:09:36 2018.
