 Gaussian 16, Revision A.03,
 Gaussian 16:  EM64L-G16RevA.03 25-Dec-2016

 ---------------------------------------
 #p wb97xd/cc-pvdz sp scf=(maxcycles=20)
 ---------------------------------------

 ------------------
 Base pair stacking
 ------------------
 Symbolic Z-matrix:
 Charge =  0 Multiplicity = 1

                         Standard orientation:
 ---------------------------------------------------------------------
 Center     Atomic      Atomic             Coordinates (Angstroms)
 Number     Number       Type             X           Y           Z
 ---------------------------------------------------------------------
      1          7           0       -6.390363   -1.653148    0.637808
      2          6           0       -7.776470   -1.215580    0.382382
      3          6           0       -4.219897   -1.675495    0.992604
      4          7           0       -4.630632   -3.000439    1.016067
      5          6           0       -5.921821   -2.933949    0.801377
      6          1           0       -6.587305   -3.796282    0.751839
      7          7           0       -2.895409    0.274340    1.075277
      8          6           0       -4.021647    0.957223    0.845419
      9          1           0       -3.906581    2.038887    0.790410
     10          7           0       -5.262840    0.506680    0.674102
     11          6           0       -5.293505   -0.833482    0.760465
     12          6           0       -2.959501   -1.072637    1.156657
     13          7           0       -1.836351   -1.756062    1.386055
     14          1           0       -1.836848   -2.754366    1.454016
     15          1           0       -0.956606   -1.293760    1.497726
     16          1           0       -8.364748   -1.510752    1.135355
     17          1           0       -7.804207   -0.219032    0.309937
     18          1           0       -8.103627   -1.619425   -0.471947
     19          7           0       -2.378135    3.151067   -1.638433
     20          6           0       -1.141129    2.594079   -1.420201
     21          6           0       -2.723971    4.571286   -1.428438
     22          7           0        2.175763    2.922715   -0.444499
     23          1           0        2.978911    2.334926   -0.351272
     24          1           0        2.289640    3.887675   -0.206599
     25          7           0       -0.042595    3.245373   -0.980785
     26          6           0        0.998489    2.439559   -0.869354
     27          7           0        0.968176    1.098244   -1.165105
     28          1           0        1.812559    0.558998   -1.050225
     29          6           0       -0.150987    0.407146   -1.618674
     30          8           0       -0.071931   -0.804386   -1.856759
     31          6           0       -1.277324    1.259608   -1.743379
     32          7           0       -2.573744    0.984362   -2.156203
     33          6           0       -3.188894    2.133127   -2.077880
     34          1           0       -4.237675    2.294336   -2.329566
     35          1           0       -3.453233    4.641492   -0.748692
     36          1           0       -1.917922    5.063794   -1.102889
     37          1           0       -3.032435    4.971933   -2.290489
     38          1           0        6.156677   -1.687557    0.340574
     39          1           0        6.516039   -1.590359   -1.381650
     40          1           0        5.520731   -0.350373   -0.618003
     41          1           0        3.535461   -5.366375   -1.315337
     42          6           0        3.490053   -4.278499   -1.263413
     43          8           0        1.169169   -4.168789   -1.741505
     44          6           0        2.240193   -3.618416   -1.486961
     45          1           0        1.429593   -1.740322   -1.550113
     46          7           0        2.293289   -2.241992   -1.398201
     47          8           0        3.344163   -0.256272   -1.066863
     48          6           0        3.396114   -1.472261   -1.124644
     49          1           0        5.557295   -4.008540   -0.816825
     50          6           0        4.583106   -3.554955   -0.994505
     51          6           0        5.768527   -1.401408   -0.625618
     52          7           0        4.563532   -2.181422   -0.921076
     53          1           0        3.725139    4.505353    2.049528
     54          1           0        2.626625    4.208297    0.880291
     55          1           0        4.221205    4.119184    0.543463
     56          1           0        1.622732   -2.606990    2.294299
     57          1           0        3.203463   -2.097345    2.683706
     58          7           0        2.296861   -1.869012    2.327131
     59          6           0        2.001027   -0.634916    1.914013
     60          6           0        2.458661    1.658930    1.477476
     61          7           0        1.232923    1.936680    1.003313
     62          1           0       -0.550452    0.986788    0.659937
     63          6           0        0.464978    0.849247    1.029058
     64          7           0        0.759429   -0.387675    1.442441
     65          1           0        5.522969    2.221001    2.341341
     66          6           0        4.547562    1.780246    2.133369
     67          7           0        4.234633    0.526361    2.351356
     68          6           0        2.912826    0.436010    1.939801
     69          6           0        3.523485    3.953280    1.240488
     70          7           0        3.520054    2.523291    1.605316
 ---------------------------------------------------------------------

 SCF Done:  E(RwB97XD) =  -2048.54448450     A.U. after   16 cycles

 The electronic state is 1-A.
 Alpha  occ. eigenvalues --  -19.25940 -19.21905 -19.20657 -14.52793 -14.52452
 Alpha  occ. eigenvalues --  -14.48742 -14.48708 -14.48192 -14.47862 -14.46199
 Alpha  occ. eigenvalues --  -14.45505 -14.43796 -14.43682 -14.42612 -14.42445
 Alpha  occ. eigenvalues --  -14.41768 -14.41429 -14.40816 -14.40679 -14.40122
 Alpha  occ. eigenvalues --  -10.45513 -10.41387 -10.40042 -10.39604 -10.38120
 Alpha  occ. eigenvalues --  -10.38110 -10.37815 -10.36941 -10.35469 -10.35128
 Alpha  occ. eigenvalues --  -10.35114 -10.34708 -10.34327 -10.34082 -10.33319
 Alpha  occ. eigenvalues --  -10.33090 -10.33047 -10.32407 -10.31141 -10.30953
 Alpha  occ. eigenvalues --  -10.30854 -10.28519 -10.27948  -1.19506  -1.16316
 Alpha  occ. eigenvalues --   -1.13731  -1.12952  -1.11303  -1.10644  -1.09989
 Alpha  occ. eigenvalues --   -1.09345  -1.08698  -1.04975  -1.04469  -1.02593
 Alpha  occ. eigenvalues --   -1.02399  -1.00493  -0.99632  -0.98590  -0.96994
 Alpha  occ. eigenvalues --   -0.96698  -0.96411  -0.92638  -0.91061  -0.88328
 Alpha  occ. eigenvalues --   -0.87051  -0.84080  -0.83891  -0.83588  -0.82570
 Alpha  occ. eigenvalues --   -0.82279  -0.78901  -0.77678  -0.75354  -0.74788
 Alpha  occ. eigenvalues --   -0.73654  -0.73335  -0.72926  -0.71064  -0.70957
 Alpha  occ. eigenvalues --   -0.68343  -0.67250  -0.66555  -0.66347  -0.65414
 Alpha  occ. eigenvalues --   -0.64435  -0.63806  -0.63505  -0.63029  -0.62712
 Alpha  occ. eigenvalues --   -0.61341  -0.60752  -0.60382  -0.60031  -0.59537
 Alpha  occ. eigenvalues --   -0.59470  -0.58906  -0.57993  -0.56605  -0.56314
 Alpha  occ. eigenvalues --   -0.56225  -0.55975  -0.55493  -0.54613  -0.54421
 Alpha  occ. eigenvalues --   -0.53848  -0.53377  -0.53247  -0.53126  -0.52862
 Alpha  occ. eigenvalues --   -0.52328  -0.51726  -0.51258  -0.50712  -0.50207
 Alpha  occ. eigenvalues --   -0.50134  -0.49670  -0.49404  -0.49003  -0.48931
 Alpha  occ. eigenvalues --   -0.48836  -0.48621  -0.48195  -0.48113  -0.47325
 Alpha  occ. eigenvalues --   -0.46914  -0.46561  -0.45054  -0.43965  -0.42966
 Alpha  occ. eigenvalues --   -0.41156  -0.39950  -0.39459  -0.38298  -0.37438
 Alpha  occ. eigenvalues --   -0.37188  -0.37164  -0.36664  -0.35858  -0.34929
 Alpha  occ. eigenvalues --   -0.34584  -0.33616  -0.33485  -0.33076  -0.32585
 Alpha  occ. eigenvalues --   -0.32395  -0.31968  -0.31775  -0.30711  -0.30399
 Alpha  occ. eigenvalues --   -0.29360  -0.27423  -0.25958  -0.25053
 Alpha virt. eigenvalues --    0.03086   0.03460   0.07220   0.08044   0.08321
 Alpha virt. eigenvalues --    0.08960   0.09283   0.10837   0.11647   0.11953
 Alpha virt. eigenvalues --    0.12830   0.13730   0.14308   0.14771   0.15049

 Mulliken charges:
               1
     1  N   -0.312405
     2  C    0.181552
     3  C    0.033784
     4  N   -0.261370
     5  C    0.134858
     6  H    0.026426
     7  N   -0.293032
     8  C    0.152018
     9  H    0.003570
    10  N   -0.291093
    11  C    0.251294
    12  C    0.125102
    13  N   -0.062143
    14  H    0.106813
    15  H    0.085167
    16  H    0.024343
    17  H    0.034054
    18  H    0.027439
    19  N   -0.309503
    20  C    0.229995
    21  C    0.182078
    22  N   -0.103722
    23  H    0.110761
    24  H    0.082345
    25  N   -0.267921
    26  C    0.211772
    27  N   -0.113953
    28  H    0.117200
    29  C    0.131578
    30  O   -0.314361
    31  C    0.026979
    32  N   -0.218728
    33  C    0.114548
    34  H    0.027854
    35  H    0.026267
    36  H    0.027063
    37  H    0.025208
    38  H    0.060314
    39  H    0.058174
    40  H    0.076582
    41  H    0.032182
    42  C   -0.111222
    43  O   -0.261062
    44  C    0.176486
    45  H    0.132778
    46  N   -0.134566
    47  O   -0.345365
    48  C    0.355741
    49  H    0.047308
    50  C    0.166403
    51  C    0.043217
    52  N   -0.295549
    53  H    0.033537
    54  H    0.039972
    55  H    0.022997
    56  H    0.120541
    57  H    0.115843
    58  N   -0.070299
    59  C    0.088585
    60  C    0.231385
    61  N   -0.291585
    62  H    0.060701
    63  C    0.176903
    64  N   -0.301775
    65  H    0.036027
    66  C    0.135479
    67  N   -0.263881
    68  C    0.054488
    69  C    0.194146
    70  N   -0.336321
 Sum of Mulliken charges =  -0.00000

 Dipole moment (field-independent basis, Debye):
    X=              8.6925    Y=              4.5395    Z=              3.7604  Tot=             10.5027
 Quadrupole moment (field-independent basis, Debye-Ang):
   XX=           -159.8234   YY=           -212.1431   ZZ=           -255.4137
   XY=             -5.4725   XZ=              5.4338   YZ=            -11.2816

 Normal termination of Gaussian 16 at Sat Jan 27 05:33:10 2018.
