 Gaussian 16, Revision A.03,
 Gaussian 16:  EM64L-G16RevA.03 25-Dec-2016

 ---------------------------------------
 #p wb97xd/cc-pvdz sp scf=(maxcycles=20)
 ---------------------------------------

 ------------------
 Base pair stacking
 ------------------
 Symbolic Z-matrix:
 Charge =  0 Multiplicity = 1

                         Standard orientation:
 ---------------------------------------------------------------------
 Center     Atomic      Atomic             Coordinates (Angstroms)
 Number     Number       Type             X           Y           Z
 ---------------------------------------------------------------------
      1          7           0        5.565107   -1.800997   -1.215605
      2          6           0        6.971717   -1.367160   -1.109515
      3          6           0        3.370470   -1.816379   -1.359308
      4          7           0        3.769873   -3.144871   -1.377043
      5          6           0        5.076074   -3.082434   -1.289754
      6          1           0        5.738567   -3.948361   -1.275069
      7          7           0        2.054732    0.140991   -1.380636
      8          6           0        3.201542    0.821399   -1.283378
      9          1           0        3.098167    1.905249   -1.254393
     10          7           0        4.451015    0.366094   -1.216859
     11          6           0        4.465985   -0.976413   -1.260131
     12          6           0        2.103424   -1.208454   -1.421947
     13          7           0        0.959724   -1.889402   -1.519019
     14          1           0        0.948270   -2.889376   -1.552732
     15          1           0        0.075824   -1.423477   -1.561333
     16          1           0        7.483159   -1.692344   -1.905045
     17          1           0        7.011676   -0.369030   -1.074005
     18          1           0        7.377421   -1.745123   -0.277327
     19          7           0        3.286042    3.257436    1.318462
     20          6           0        2.030783    2.704201    1.239116
     21          6           0        3.617723    4.666819    1.028036
     22          7           0       -1.362822    3.028813    0.575911
     23          1           0       -2.174379    2.445212    0.580302
     24          1           0       -1.493875    3.986258    0.317377
     25          7           0        0.898573    3.349969    0.885364
     26          6           0       -0.152742    2.549924    0.901915
     27          7           0       -0.101340    1.219000    1.238829
     28          1           0       -0.955762    0.683548    1.223990
     29          6           0        1.052546    0.533747    1.606041
     30          8           0        0.990228   -0.668448    1.891678
     31          6           0        2.190247    1.380119    1.592921
     32          7           0        3.518891    1.107579    1.888423
     33          6           0        4.129835    2.247734    1.712364
     34          1           0        5.198834    2.408164    1.856520
     35          1           0        4.278504    4.708019    0.279389
     36          1           0        2.786746    5.155157    0.764855
     37          1           0        4.009917    5.093305    1.842352
     38          1           0       -5.425698   -1.570456    0.334087
     39          1           0       -5.617028   -1.412806    2.078559
     40          1           0       -4.693181   -0.207615    1.181120
     41          1           0       -2.677118   -5.214575    1.854707
     42          6           0       -2.631048   -4.129465    1.761704
     43          8           0       -0.274350   -4.023964    2.010643
     44          6           0       -1.361918   -3.473137    1.841581
     45          1           0       -0.538868   -1.601053    1.762673
     46          7           0       -1.415880   -2.100025    1.711583
     47          8           0       -2.483026   -0.117439    1.415371
     48          6           0       -2.535745   -1.330328    1.519203
     49          1           0       -4.730197   -3.856669    1.506824
     50          6           0       -3.740985   -3.405861    1.574572
     51          6           0       -4.944777   -1.255631    1.248236
     52          7           0       -3.721152   -2.035759    1.452935
     53          1           0       -4.605896    4.394302   -1.857782
     54          1           0       -3.401521    4.126881   -0.790041
     55          1           0       -4.956718    4.062849   -0.298776
     56          1           0       -2.575293   -2.740182   -2.061358
     57          1           0       -4.183402   -2.230132   -2.314232
     58          7           0       -3.245449   -1.997890   -2.054356
     59          6           0       -2.904552   -0.753320   -1.713784
     60          6           0       -3.305628    1.557676   -1.313561
     61          7           0       -2.038436    1.840455   -0.969039
     62          1           0       -0.235444    0.887155   -0.766447
     63          6           0       -1.282426    0.746176   -1.031436
     64          7           0       -1.621992   -0.501253   -1.372317
     65          1           0       -6.435796    2.117127   -1.897710
     66          6           0       -5.447292    1.675128   -1.769522
     67          7           0       -5.163586    0.412005   -1.973787
     68          6           0       -3.808791    0.324002   -1.688264
     69          6           0       -4.330263    3.867777   -1.053548
     70          7           0       -4.369703    2.426437   -1.368173
 ---------------------------------------------------------------------

 SCF Done:  E(RwB97XD) =  -2048.65655298     A.U. after   16 cycles

 The electronic state is 1-A.
 Alpha  occ. eigenvalues --  -19.25515 -19.21623 -19.20168 -14.53019 -14.52219
 Alpha  occ. eigenvalues --  -14.48824 -14.48343 -14.48292 -14.47530 -14.46159
 Alpha  occ. eigenvalues --  -14.45789 -14.44748 -14.44578 -14.43615 -14.42526
 Alpha  occ. eigenvalues --  -14.41133 -14.41085 -14.40481 -14.40262 -14.40065
 Alpha  occ. eigenvalues --  -10.45193 -10.40250 -10.40088 -10.39763 -10.38360
 Alpha  occ. eigenvalues --  -10.37712 -10.37638 -10.37490 -10.35730 -10.35348
 Alpha  occ. eigenvalues --  -10.34964 -10.34917 -10.33753 -10.33716 -10.32975
 Alpha  occ. eigenvalues --  -10.32927 -10.32724 -10.32720 -10.30969 -10.30626
 Alpha  occ. eigenvalues --  -10.30498 -10.28226 -10.27385  -1.19199  -1.15716
 Alpha  occ. eigenvalues --   -1.12798  -1.12655  -1.10950  -1.10141  -1.09817
 Alpha  occ. eigenvalues --   -1.09089  -1.08195  -1.05490  -1.04820  -1.02165
 Alpha  occ. eigenvalues --   -1.01516  -1.00330  -0.99595  -0.98026  -0.96990
 Alpha  occ. eigenvalues --   -0.96638  -0.96090  -0.92504  -0.90866  -0.88153
 Alpha  occ. eigenvalues --   -0.86640  -0.83629  -0.83556  -0.83362  -0.82121
 Alpha  occ. eigenvalues --   -0.81966  -0.78665  -0.77493  -0.75732  -0.74112
 Alpha  occ. eigenvalues --   -0.73184  -0.73045  -0.72727  -0.71060  -0.70768
 Alpha  occ. eigenvalues --   -0.67508  -0.67107  -0.66286  -0.66139  -0.64916
 Alpha  occ. eigenvalues --   -0.64132  -0.63427  -0.62673  -0.62566  -0.61453
 Alpha  occ. eigenvalues --   -0.61133  -0.60624  -0.60489  -0.59766  -0.59507
 Alpha  occ. eigenvalues --   -0.59293  -0.58662  -0.56860  -0.56187  -0.55991
 Alpha  occ. eigenvalues --   -0.55907  -0.55864  -0.55421  -0.55020  -0.54577
 Alpha  occ. eigenvalues --   -0.53949  -0.53567  -0.53264  -0.53175  -0.52692
 Alpha  occ. eigenvalues --   -0.52563  -0.52123  -0.51408  -0.50538  -0.49963
 Alpha  occ. eigenvalues --   -0.49907  -0.49808  -0.49455  -0.49060  -0.48794
 Alpha  occ. eigenvalues --   -0.48412  -0.47864  -0.47708  -0.47154  -0.46947
 Alpha  occ. eigenvalues --   -0.46369  -0.45900  -0.44761  -0.44590  -0.43715
 Alpha  occ. eigenvalues --   -0.41637  -0.40863  -0.39241  -0.38468  -0.38210
 Alpha  occ. eigenvalues --   -0.37010  -0.36821  -0.36669  -0.35408  -0.35209
 Alpha  occ. eigenvalues --   -0.34397  -0.33390  -0.33371  -0.32758  -0.32182
 Alpha  occ. eigenvalues --   -0.31916  -0.31701  -0.31352  -0.30629  -0.30562
 Alpha  occ. eigenvalues --   -0.30212  -0.29179  -0.25607  -0.23602
 Alpha virt. eigenvalues --    0.02969   0.03929   0.06293   0.08300   0.08643
 Alpha virt. eigenvalues --    0.09510   0.10271   0.10399   0.11361   0.11530
 Alpha virt. eigenvalues --    0.12145   0.13867   0.14687   0.14922   0.15059

 Mulliken charges:
               1
     1  N   -0.313580
     2  C    0.182633
     3  C    0.040878
     4  N   -0.262686
     5  C    0.136744
     6  H    0.025792
     7  N   -0.299381
     8  C    0.153468
     9  H    0.011081
    10  N   -0.282061
    11  C    0.259565
    12  C    0.115849
    13  N   -0.065064
    14  H    0.106206
    15  H    0.080293
    16  H    0.022556
    17  H    0.033253
    18  H    0.028637
    19  N   -0.305644
    20  C    0.230233
    21  C    0.181336
    22  N   -0.035661
    23  H    0.113223
    24  H    0.110050
    25  N   -0.303061
    26  C    0.191957
    27  N   -0.157090
    28  H    0.125199
    29  C    0.184845
    30  O   -0.325284
    31  C   -0.014709
    32  N   -0.217259
    33  C    0.124564
    34  H    0.020084
    35  H    0.026893
    36  H    0.027115
    37  H    0.023682
    38  H    0.053638
    39  H    0.060295
    40  H    0.076998
    41  H    0.031192
    42  C   -0.112807
    43  O   -0.259589
    44  C    0.178091
    45  H    0.132929
    46  N   -0.129592
    47  O   -0.344464
    48  C    0.346911
    49  H    0.045116
    50  C    0.163423
    51  C    0.042502
    52  N   -0.287948
    53  H    0.040943
    54  H    0.013800
    55  H    0.036585
    56  H    0.118198
    57  H    0.117585
    58  N   -0.063902
    59  C    0.083595
    60  C    0.267981
    61  N   -0.330353
    62  H    0.068585
    63  C    0.164671
    64  N   -0.299456
    65  H    0.039203
    66  C    0.137377
    67  N   -0.260544
    68  C    0.027878
    69  C    0.185162
    70  N   -0.318658
 Sum of Mulliken charges =  -0.00000

 Dipole moment (field-independent basis, Debye):
    X=             -9.6313    Y=              4.7722    Z=             -3.1077  Tot=             11.1890
 Quadrupole moment (field-independent basis, Debye-Ang):
   XX=           -165.6249   YY=           -210.1480   ZZ=           -256.0174
   XY=              6.0125   XZ=             -6.5531   YZ=              9.0082

 Normal termination of Gaussian 16 at Sat Jan 27 04:58:47 2018.
