 Gaussian 16, Revision A.03,
 Gaussian 16:  EM64L-G16RevA.03 25-Dec-2016

 ---------------------------------------
 #p wb97xd/cc-pvdz sp scf=(maxcycles=20)
 ---------------------------------------

 ------------------
 Base pair stacking
 ------------------
 Symbolic Z-matrix:
 Charge =  0 Multiplicity = 1

                         Standard orientation:
 ---------------------------------------------------------------------
 Center     Atomic      Atomic             Coordinates (Angstroms)
 Number     Number       Type             X           Y           Z
 ---------------------------------------------------------------------
      1          7           0       -6.210558   -1.692064    0.766266
      2          6           0       -7.613096   -1.238440    0.694872
      3          6           0       -4.022145   -1.745792    0.979022
      4          7           0       -4.420653   -3.052314    0.736284
      5          6           0       -5.723139   -2.967654    0.617821
      6          1           0       -6.383907   -3.812204    0.420180
      7          7           0       -2.709779    0.166457    1.407961
      8          6           0       -3.853220    0.859315    1.399823
      9          1           0       -3.749935    1.929147    1.576050
     10          7           0       -5.099233    0.431064    1.207566
     11          6           0       -5.114395   -0.896063    1.000369
     12          6           0       -2.758569   -1.166938    1.196396
     13          7           0       -1.618226   -1.860296    1.204141
     14          1           0       -1.606996   -2.849212    1.052024
     15          1           0       -0.736755   -1.415132    1.362184
     16          1           0       -8.151267   -1.702788    1.398380
     17          1           0       -7.652768   -0.250849    0.843917
     18          1           0       -7.989613   -1.453214   -0.206302
     19          7           0       -2.527749    3.325706   -1.702112
     20          6           0       -1.288019    2.751104   -1.557398
     21          6           0       -2.820905    4.767244   -1.572763
     22          7           0        2.113212    3.056168   -0.924667
     23          1           0        2.908582    2.454022   -0.861079
     24          1           0        2.270297    4.032698   -0.774878
     25          7           0       -0.138619    3.401637   -1.274994
     26          6           0        0.890518    2.576624   -1.198456
     27          7           0        0.802863    1.218170   -1.383965
     28          1           0        1.642390    0.664837   -1.306534
     29          6           0       -0.369280    0.527492   -1.675364
     30          8           0       -0.339748   -0.700413   -1.824035
     31          6           0       -1.483508    1.400466   -1.760764
     32          7           0       -2.819097    1.132518   -2.027788
     33          6           0       -3.398751    2.301349   -1.982680
     34          1           0       -4.463000    2.473457   -2.147144
     35          1           0       -3.480274    4.910141   -0.835464
     36          1           0       -1.976924    5.259373   -1.363591
     37          1           0       -3.201396    5.110022   -2.430989
     38          1           0        6.049335   -1.595109   -0.155806
     39          1           0        6.244781   -1.639635   -1.906369
     40          1           0        5.354151   -0.316709   -1.152691
     41          1           0        3.202447   -5.311222   -1.265878
     42          6           0        3.185942   -4.221681   -1.295433
     43          8           0        0.832976   -4.081059   -1.561705
     44          6           0        1.935153   -3.544369   -1.452307
     45          1           0        1.163393   -1.653689   -1.586554
     46          7           0        2.026498   -2.167313   -1.477130
     47          8           0        3.147255   -0.193618   -1.402204
     48          6           0        3.166918   -1.411475   -1.369039
     49          1           0        5.291764   -3.978904   -1.066507
     50          6           0        4.315194   -3.511947   -1.187410
     51          6           0        5.577106   -1.372049   -1.100957
     52          7           0        4.332681   -2.136821   -1.220436
     53          1           0        3.926467    4.221067    2.892122
     54          1           0        2.759747    4.162960    1.753052
     55          1           0        4.330962    4.182724    1.311515
     56          1           0        1.896863   -2.816140    1.698804
     57          1           0        3.494851   -2.370638    2.096395
     58          7           0        2.566167   -2.089106    1.852460
     59          6           0        2.235977   -0.801113    1.737450
     60          6           0        2.648365    1.541788    1.787006
     61          7           0        1.393489    1.890473    1.458155
     62          1           0       -0.400560    1.001138    1.021046
     63          6           0        0.636826    0.807744    1.290647
     64          7           0        0.965669   -0.483094    1.405383
     65          1           0        5.756075    1.966101    2.570751
     66          6           0        4.772976    1.560951    2.329274
     67          7           0        4.483633    0.283420    2.285778
     68          6           0        3.139531    0.257297    1.943058
     69          6           0        3.679121    3.854408    1.995246
     70          7           0        3.709109    2.379526    2.038018
 ---------------------------------------------------------------------

 SCF Done:  E(RwB97XD) =  -2048.73531299     A.U. after   15 cycles

 The electronic state is 1-A.
 Alpha  occ. eigenvalues --  -19.26034 -19.22191 -19.20721 -14.52598 -14.52136
 Alpha  occ. eigenvalues --  -14.48855 -14.48353 -14.48053 -14.47976 -14.46962
 Alpha  occ. eigenvalues --  -14.46702 -14.45099 -14.43734 -14.43437 -14.42140
 Alpha  occ. eigenvalues --  -14.41947 -14.41027 -14.40847 -14.40448 -14.39780
 Alpha  occ. eigenvalues --  -10.45638 -10.41244 -10.40297 -10.39500 -10.38292
 Alpha  occ. eigenvalues --  -10.38054 -10.37627 -10.36652 -10.35187 -10.35140
 Alpha  occ. eigenvalues --  -10.35049 -10.34432 -10.33893 -10.33701 -10.33304
 Alpha  occ. eigenvalues --  -10.32935 -10.32669 -10.32168 -10.31376 -10.31017
 Alpha  occ. eigenvalues --  -10.30593 -10.28183 -10.28118  -1.19594  -1.14814
 Alpha  occ. eigenvalues --   -1.13329  -1.13203  -1.10930  -1.10669  -1.09495
 Alpha  occ. eigenvalues --   -1.08915  -1.08608  -1.04587  -1.04407  -1.02628
 Alpha  occ. eigenvalues --   -1.00680  -1.00057  -0.99891  -0.98639  -0.96654
 Alpha  occ. eigenvalues --   -0.96628  -0.96299  -0.92245  -0.91268  -0.87243
 Alpha  occ. eigenvalues --   -0.85696  -0.84190  -0.83699  -0.83534  -0.82598
 Alpha  occ. eigenvalues --   -0.81935  -0.79072  -0.76663  -0.74729  -0.74386
 Alpha  occ. eigenvalues --   -0.73781  -0.73495  -0.72532  -0.70654  -0.70094
 Alpha  occ. eigenvalues --   -0.67497  -0.66689  -0.66480  -0.65946  -0.64584
 Alpha  occ. eigenvalues --   -0.63979  -0.63882  -0.62835  -0.62343  -0.61892
 Alpha  occ. eigenvalues --   -0.60286  -0.60074  -0.59958  -0.59668  -0.59472
 Alpha  occ. eigenvalues --   -0.59144  -0.58531  -0.56830  -0.56223  -0.56114
 Alpha  occ. eigenvalues --   -0.55984  -0.55295  -0.55063  -0.54790  -0.54494
 Alpha  occ. eigenvalues --   -0.53780  -0.53724  -0.53215  -0.53064  -0.52942
 Alpha  occ. eigenvalues --   -0.52480  -0.52370  -0.51401  -0.50321  -0.50261
 Alpha  occ. eigenvalues --   -0.49832  -0.49555  -0.49354  -0.48934  -0.48926
 Alpha  occ. eigenvalues --   -0.48491  -0.48374  -0.48304  -0.48047  -0.47468
 Alpha  occ. eigenvalues --   -0.46539  -0.45803  -0.44664  -0.44136  -0.44062
 Alpha  occ. eigenvalues --   -0.40734  -0.40254  -0.39573  -0.37770  -0.37340
 Alpha  occ. eigenvalues --   -0.37275  -0.36950  -0.36749  -0.35961  -0.34797
 Alpha  occ. eigenvalues --   -0.34038  -0.33366  -0.33300  -0.33158  -0.32882
 Alpha  occ. eigenvalues --   -0.32682  -0.32454  -0.32182  -0.31882  -0.30444
 Alpha  occ. eigenvalues --   -0.29995  -0.29456  -0.25748  -0.25164
 Alpha virt. eigenvalues --    0.02809   0.04460   0.07650   0.08228   0.08429
 Alpha virt. eigenvalues --    0.09082   0.09520   0.10958   0.11549   0.11569
 Alpha virt. eigenvalues --    0.12182   0.13918   0.14317   0.14739   0.15006

 Mulliken charges:
               1
     1  N   -0.312190
     2  C    0.181574
     3  C    0.036097
     4  N   -0.259405
     5  C    0.134186
     6  H    0.025291
     7  N   -0.295530
     8  C    0.144884
     9  H    0.006049
    10  N   -0.292157
    11  C    0.250992
    12  C    0.124356
    13  N   -0.058558
    14  H    0.110014
    15  H    0.085039
    16  H    0.023785
    17  H    0.033441
    18  H    0.026444
    19  N   -0.313087
    20  C    0.245839
    21  C    0.181418
    22  N   -0.099403
    23  H    0.115605
    24  H    0.112619
    25  N   -0.299115
    26  C    0.216620
    27  N   -0.127200
    28  H    0.114669
    29  C    0.161901
    30  O   -0.316987
    31  C    0.007827
    32  N   -0.223422
    33  C    0.127726
    34  H    0.027893
    35  H    0.028355
    36  H    0.028048
    37  H    0.025004
    38  H    0.061901
    39  H    0.058586
    40  H    0.076330
    41  H    0.032364
    42  C   -0.111411
    43  O   -0.261931
    44  C    0.164243
    45  H    0.133799
    46  N   -0.126668
    47  O   -0.345914
    48  C    0.348824
    49  H    0.048111
    50  C    0.162429
    51  C    0.042540
    52  N   -0.289496
    53  H    0.036611
    54  H    0.043794
    55  H    0.022743
    56  H    0.124281
    57  H    0.115042
    58  N   -0.069352
    59  C    0.083221
    60  C    0.216095
    61  N   -0.257777
    62  H    0.043595
    63  C    0.165648
    64  N   -0.303392
    65  H    0.034528
    66  C    0.134447
    67  N   -0.268997
    68  C    0.049586
    69  C    0.168485
    70  N   -0.310888
 Sum of Mulliken charges =  -0.00000

 Dipole moment (field-independent basis, Debye):
    X=              9.3313    Y=              4.7807    Z=              1.9681  Tot=             10.6678
 Quadrupole moment (field-independent basis, Debye-Ang):
   XX=           -162.0463   YY=           -208.8831   ZZ=           -252.8691
   XY=             -6.5025   XZ=              2.5427   YZ=             -7.3496

 Normal termination of Gaussian 16 at Fri Jan 26 18:35:49 2018.
