 Gaussian 16, Revision A.03,
 Gaussian 16:  EM64L-G16RevA.03 25-Dec-2016

 ---------------------------------------
 #p wb97xd/cc-pvdz sp scf=(maxcycles=20)
 ---------------------------------------

 ------------------
 Base pair stacking
 ------------------
 Symbolic Z-matrix:
 Charge =  0 Multiplicity = 1

                         Standard orientation:
 ---------------------------------------------------------------------
 Center     Atomic      Atomic             Coordinates (Angstroms)
 Number     Number       Type             X           Y           Z
 ---------------------------------------------------------------------
      1          7           0       -7.239473   -1.598899   -0.029185
      2          6           0       -8.651391   -1.178835   -0.118893
      3          6           0       -5.066354   -1.623488    0.308865
      4          7           0       -5.401865   -2.888544   -0.151343
      5          6           0       -6.697658   -2.823099   -0.336595
      6          1           0       -7.314422   -3.645866   -0.699355
      7          7           0       -3.852134    0.237130    1.100488
      8          6           0       -5.017985    0.891157    1.125194
      9          1           0       -4.964482    1.924254    1.465929
     10          7           0       -6.234300    0.462624    0.793754
     11          6           0       -6.188630   -0.817540    0.389369
     12          6           0       -3.839525   -1.049493    0.688761
     13          7           0       -2.676714   -1.704019    0.663407
     14          1           0       -2.620328   -2.657656    0.365721
     15          1           0       -1.822759   -1.263709    0.940955
     16          1           0       -9.211505   -1.759427    0.472179
     17          1           0       -8.735915   -0.226827    0.173793
     18          1           0       -8.967457   -1.264620   -1.063741
     19          7           0       -1.266212    3.217236   -1.981159
     20          6           0       -0.046661    2.638190   -1.725331
     21          6           0       -1.521054    4.669410   -2.064561
     22          7           0        3.347507    2.944827   -1.056490
     23          1           0        4.123917    2.338102   -0.888253
     24          1           0        3.528993    3.928489   -1.042485
     25          7           0        1.114404    3.293267   -1.508913
     26          6           0        2.117845    2.462002   -1.290429
     27          7           0        1.995688    1.093589   -1.283960
     28          1           0        2.817319    0.536042   -1.107837
     29          6           0        0.810940    0.398088   -1.504188
     30          8           0        0.808799   -0.838841   -1.476782
     31          6           0       -0.275994    1.277677   -1.740375
     32          7           0       -1.612610    1.008030   -2.000412
     33          6           0       -2.159710    2.185549   -2.135827
     34          1           0       -3.214868    2.359118   -2.349807
     35          1           0       -2.191762    4.932137   -1.371792
     36          1           0       -0.668120    5.164991   -1.905908
     37          1           0       -1.873179    4.896132   -2.971992
     38          1           0        7.132701   -1.647018    0.462032
     39          1           0        7.364282   -1.944817   -1.259106
     40          1           0        6.495595   -0.506304   -0.722970
     41          1           0        4.205977   -5.410720   -0.182465
     42          6           0        4.221030   -4.336389   -0.366322
     43          8           0        1.879249   -4.176155   -0.709133
     44          6           0        2.993611   -3.657144   -0.648997
     45          1           0        2.278860   -1.786008   -1.068911
     46          7           0        3.124490   -2.300321   -0.866146
     47          8           0        4.298940   -0.364710   -1.043028
     48          6           0        4.283327   -1.565593   -0.837357
     49          1           0        6.327493   -4.116348   -0.120968
     50          6           0        5.367389   -3.647000   -0.331357
     51          6           0        6.687359   -1.548820   -0.516790
     52          7           0        5.424587   -2.291411   -0.558215
     53          1           0        2.534156    4.202084    3.585827
     54          1           0        1.437565    4.285273    2.380556
     55          1           0        3.029710    4.415510    2.045608
     56          1           0        0.837106   -2.625874    1.226906
     57          1           0        2.392161   -2.201697    1.785445
     58          7           0        1.469234   -1.912307    1.529185
     59          6           0        1.098917   -0.631463    1.588267
     60          6           0        1.421137    1.687274    2.014121
     61          7           0        0.175174    2.046864    1.663827
     62          1           0       -1.556869    1.184741    0.987539
     63          6           0       -0.530216    0.981539    1.289123
     64          7           0       -0.161124   -0.302113    1.229253
     65          1           0        4.461060    2.073814    3.044466
     66          6           0        3.509028    1.682876    2.684266
     67          7           0        3.269935    0.419240    2.431799
     68          6           0        1.949571    0.408136    2.006066
     69          6           0        2.352308    3.969175    2.630490
     70          7           0        2.434146    2.506322    2.453422
 ---------------------------------------------------------------------

 SCF Done:  E(RwB97XD) =  -2048.74168212     A.U. after   15 cycles

 The electronic state is 1-A.
 Alpha  occ. eigenvalues --  -19.26385 -19.23005 -19.21185 -14.53088 -14.50711
 Alpha  occ. eigenvalues --  -14.49137 -14.48696 -14.48607 -14.47647 -14.47606
 Alpha  occ. eigenvalues --  -14.45928 -14.43808 -14.42676 -14.42240 -14.42094
 Alpha  occ. eigenvalues --  -14.41865 -14.41392 -14.41131 -14.40708 -14.39932
 Alpha  occ. eigenvalues --  -10.46082 -10.41912 -10.41017 -10.38792 -10.38487
 Alpha  occ. eigenvalues --  -10.37815 -10.36339 -10.35742 -10.35276 -10.35216
 Alpha  occ. eigenvalues --  -10.34772 -10.34043 -10.33743 -10.33596 -10.33264
 Alpha  occ. eigenvalues --  -10.32888 -10.32482 -10.31767 -10.31183 -10.30858
 Alpha  occ. eigenvalues --  -10.30727 -10.28541 -10.28442  -1.20022  -1.13977
 Alpha  occ. eigenvalues --   -1.13849  -1.13364  -1.11280  -1.11025  -1.09978
 Alpha  occ. eigenvalues --   -1.09261  -1.07158  -1.04795  -1.03326  -1.02725
 Alpha  occ. eigenvalues --   -1.00552  -1.00219  -0.99210  -0.99073  -0.96978
 Alpha  occ. eigenvalues --   -0.96857  -0.94750  -0.92421  -0.91723  -0.85822
 Alpha  occ. eigenvalues --   -0.84553  -0.84257  -0.84219  -0.83837  -0.82883
 Alpha  occ. eigenvalues --   -0.82209  -0.79559  -0.75163  -0.75112  -0.74320
 Alpha  occ. eigenvalues --   -0.74056  -0.72833  -0.72747  -0.70899  -0.68545
 Alpha  occ. eigenvalues --   -0.68017  -0.67214  -0.66141  -0.65061  -0.64901
 Alpha  occ. eigenvalues --   -0.64264  -0.63204  -0.62596  -0.62387  -0.62251
 Alpha  occ. eigenvalues --   -0.60178  -0.60148  -0.59998  -0.59142  -0.58676
 Alpha  occ. eigenvalues --   -0.58364  -0.57832  -0.56946  -0.56511  -0.56311
 Alpha  occ. eigenvalues --   -0.56303  -0.55162  -0.55021  -0.54652  -0.54177
 Alpha  occ. eigenvalues --   -0.53921  -0.53560  -0.53437  -0.52989  -0.52140
 Alpha  occ. eigenvalues --   -0.51911  -0.51562  -0.51066  -0.50704  -0.50603
 Alpha  occ. eigenvalues --   -0.50050  -0.50025  -0.49485  -0.49151  -0.48928
 Alpha  occ. eigenvalues --   -0.48714  -0.48613  -0.48048  -0.47929  -0.47512
 Alpha  occ. eigenvalues --   -0.46794  -0.45187  -0.44964  -0.44684  -0.43048
 Alpha  occ. eigenvalues --   -0.40999  -0.39985  -0.39000  -0.37803  -0.37782
 Alpha  occ. eigenvalues --   -0.37034  -0.36949  -0.35767  -0.35548  -0.35124
 Alpha  occ. eigenvalues --   -0.34101  -0.33417  -0.33377  -0.33255  -0.32942
 Alpha  occ. eigenvalues --   -0.32721  -0.32393  -0.32302  -0.32004  -0.30824
 Alpha  occ. eigenvalues --   -0.30141  -0.28071  -0.25940  -0.25603
 Alpha virt. eigenvalues --    0.02310   0.05776   0.07734   0.08147   0.08593
 Alpha virt. eigenvalues --    0.08975   0.09574   0.11181   0.11674   0.12311
 Alpha virt. eigenvalues --    0.12861   0.14047   0.14389   0.14701   0.15617

 Mulliken charges:
               1
     1  N   -0.310689
     2  C    0.181119
     3  C    0.027131
     4  N   -0.258466
     5  C    0.132605
     6  H    0.026055
     7  N   -0.291937
     8  C    0.132585
     9  H    0.010658
    10  N   -0.289504
    11  C    0.241646
    12  C    0.121282
    13  N   -0.053912
    14  H    0.109703
    15  H    0.091412
    16  H    0.025227
    17  H    0.035298
    18  H    0.025457
    19  N   -0.310133
    20  C    0.264419
    21  C    0.182511
    22  N   -0.121550
    23  H    0.117279
    24  H    0.117708
    25  N   -0.302569
    26  C    0.224464
    27  N   -0.128933
    28  H    0.120951
    29  C    0.175492
    30  O   -0.324117
    31  C   -0.022551
    32  N   -0.215666
    33  C    0.128806
    34  H    0.031827
    35  H    0.030575
    36  H    0.027017
    37  H    0.025541
    38  H    0.063066
    39  H    0.061464
    40  H    0.076620
    41  H    0.034604
    42  C   -0.105554
    43  O   -0.271693
    44  C    0.156499
    45  H    0.136165
    46  N   -0.134103
    47  O   -0.347972
    48  C    0.359479
    49  H    0.051467
    50  C    0.173362
    51  C    0.042086
    52  N   -0.297759
    53  H    0.028832
    54  H    0.042840
    55  H    0.014758
    56  H    0.127713
    57  H    0.109914
    58  N   -0.056471
    59  C    0.089369
    60  C    0.236841
    61  N   -0.266357
    62  H    0.035823
    63  C    0.170943
    64  N   -0.297188
    65  H    0.025728
    66  C    0.124881
    67  N   -0.267263
    68  C    0.027487
    69  C    0.184524
    70  N   -0.306848
 Sum of Mulliken charges =  -0.00000

 Dipole moment (field-independent basis, Debye):
    X=              9.7783    Y=              4.5462    Z=              0.9227  Tot=             10.8229
 Quadrupole moment (field-independent basis, Debye-Ang):
   XX=           -150.6006   YY=           -209.8481   ZZ=           -247.3222
   XY=             -2.7834   XZ=             13.1951   YZ=             -5.7850

 Normal termination of Gaussian 16 at Sat Jan 27 08:13:03 2018.
