 Gaussian 16, Revision A.03,
 Gaussian 16:  EM64L-G16RevA.03 25-Dec-2016

 ---------------------------------------
 #p wb97xd/cc-pvdz sp scf=(maxcycles=20)
 ---------------------------------------

 ------------------
 Base pair stacking
 ------------------
 Symbolic Z-matrix:
 Charge =  0 Multiplicity = 1

                         Standard orientation:
 ---------------------------------------------------------------------
 Center     Atomic      Atomic             Coordinates (Angstroms)
 Number     Number       Type             X           Y           Z
 ---------------------------------------------------------------------
      1          7           0       -6.508764   -1.644934    0.516637
      2          6           0       -7.913757   -1.196430    0.463371
      3          6           0       -4.323625   -1.702540    0.759871
      4          7           0       -4.707241   -2.984427    0.393331
      5          6           0       -6.008354   -2.898406    0.261464
      6          1           0       -6.658783   -3.726136   -0.022708
      7          7           0       -3.034344    0.172013    1.381757
      8          6           0       -4.183301    0.854815    1.417419
      9          1           0       -4.091814    1.904967    1.691422
     10          7           0       -5.422464    0.437131    1.166601
     11          6           0       -5.423179   -0.865832    0.839930
     12          6           0       -3.068565   -1.137033    1.049614
     13          7           0       -1.922708   -1.820309    1.013479
     14          1           0       -1.900758   -2.791264    0.772691
     15          1           0       -1.047626   -1.385196    1.225727
     16          1           0       -8.459098   -1.726341    1.112967
     17          1           0       -7.964084   -0.226703    0.700497
     18          1           0       -8.274111   -1.331267   -0.459647
     19          7           0       -2.147132    3.342452   -1.848048
     20          6           0       -0.916278    2.757239   -1.673214
     21          6           0       -2.416894    4.793556   -1.801046
     22          7           0        2.491291    3.043369   -1.066281
     23          1           0        3.277148    2.433146   -0.969910
     24          1           0        2.664375    4.024227   -0.973130
     25          7           0        0.244193    3.404327   -1.431069
     26          6           0        1.260282    2.568632   -1.309485
     27          7           0        1.150437    1.203349   -1.416513
     28          1           0        1.981272    0.641949   -1.309228
     29          6           0       -0.033447    0.516036   -1.665286
     30          8           0       -0.023929   -0.718692   -1.743280
     31          6           0       -1.133882    1.400477   -1.798300
     32          7           0       -2.474378    1.139170   -2.046656
     33          6           0       -3.035192    2.317836   -2.067495
     34          1           0       -4.097056    2.497304   -2.239303
     35          1           0       -3.071648    4.989109   -1.071762
     36          1           0       -1.564534    5.283249   -1.622265
     37          1           0       -2.794482    5.092618   -2.676719
     38          1           0        6.355135   -1.618822   -0.040013
     39          1           0        6.544514   -1.766841   -1.785550
     40          1           0        5.677376   -0.388711   -1.107170
     41          1           0        3.446038   -5.346248   -0.928867
     42          6           0        3.446801   -4.260078   -1.020891
     43          8           0        1.095576   -4.097141   -1.289799
     44          6           0        2.206493   -3.572852   -1.213725
     45          1           0        1.464556   -1.680819   -1.454657
     46          7           0        2.319685   -2.201130   -1.317763
     47          8           0        3.471975   -0.244669   -1.358653
     48          6           0        3.472330   -1.458780   -1.255661
     49          1           0        5.556908   -4.038462   -0.810751
     50          6           0        4.587549   -3.563561   -0.956187
     51          6           0        5.883644   -1.442798   -0.995412
     52          7           0        4.626838   -2.193058   -1.068147
     53          1           0        3.543216    4.121347    3.336417
     54          1           0        2.395239    4.158629    2.177595
     55          1           0        3.973044    4.229213    1.765741
     56          1           0        1.592007   -2.792663    1.477737
     57          1           0        3.179679   -2.373948    1.940421
     58          7           0        2.252648   -2.077928    1.707618
     59          6           0        1.913516   -0.787126    1.704185
     60          6           0        2.305360    1.544448    1.972373
     61          7           0        1.052981    1.912795    1.655686
     62          1           0       -0.726374    1.054311    1.110256
     63          6           0        0.308198    0.844484    1.378384
     64          7           0        0.646016   -0.449138    1.381267
     65          1           0        5.396576    1.917528    2.842653
     66          6           0        4.420877    1.529111    2.549258
     67          7           0        4.142998    0.258810    2.385542
     68          6           0        2.804773    0.254536    2.019663
     69          6           0        3.313224    3.835778    2.406074
     70          7           0        3.354923    2.363333    2.315700
 ---------------------------------------------------------------------

 SCF Done:  E(RwB97XD) =  -2048.74184457     A.U. after   15 cycles

 The electronic state is 1-A.
 Alpha  occ. eigenvalues --  -19.26214 -19.22578 -19.20809 -14.52850 -14.51709
 Alpha  occ. eigenvalues --  -14.48927 -14.48374 -14.48138 -14.47516 -14.47222
 Alpha  occ. eigenvalues --  -14.47118 -14.44745 -14.43358 -14.43279 -14.42259
 Alpha  occ. eigenvalues --  -14.41754 -14.41039 -14.40930 -14.40435 -14.39706
 Alpha  occ. eigenvalues --  -10.45833 -10.41511 -10.40613 -10.39103 -10.38414
 Alpha  occ. eigenvalues --  -10.38312 -10.37305 -10.36313 -10.35412 -10.34964
 Alpha  occ. eigenvalues --  -10.34757 -10.34539 -10.33706 -10.33387 -10.33372
 Alpha  occ. eigenvalues --  -10.32937 -10.32637 -10.31872 -10.31609 -10.31063
 Alpha  occ. eigenvalues --  -10.30621 -10.28299 -10.28105  -1.19786  -1.14419
 Alpha  occ. eigenvalues --   -1.13553  -1.13429  -1.10945  -1.10751  -1.09736
 Alpha  occ. eigenvalues --   -1.08841  -1.08440  -1.04526  -1.04018  -1.02863
 Alpha  occ. eigenvalues --   -1.00286  -1.00120  -0.99979  -0.98735  -0.96735
 Alpha  occ. eigenvalues --   -0.96583  -0.95934  -0.92174  -0.91515  -0.86848
 Alpha  occ. eigenvalues --   -0.85244  -0.84303  -0.83930  -0.83539  -0.82682
 Alpha  occ. eigenvalues --   -0.81930  -0.79313  -0.76269  -0.74840  -0.73972
 Alpha  occ. eigenvalues --   -0.73946  -0.73726  -0.72484  -0.70624  -0.69681
 Alpha  occ. eigenvalues --   -0.67672  -0.66918  -0.66053  -0.65891  -0.64779
 Alpha  occ. eigenvalues --   -0.64028  -0.63537  -0.62923  -0.62276  -0.62065
 Alpha  occ. eigenvalues --   -0.60047  -0.59919  -0.59879  -0.59823  -0.59154
 Alpha  occ. eigenvalues --   -0.58833  -0.58749  -0.56828  -0.56276  -0.56161
 Alpha  occ. eigenvalues --   -0.56017  -0.55020  -0.54863  -0.54725  -0.54479
 Alpha  occ. eigenvalues --   -0.53911  -0.53731  -0.53192  -0.52987  -0.52768
 Alpha  occ. eigenvalues --   -0.52680  -0.52048  -0.51389  -0.50401  -0.50308
 Alpha  occ. eigenvalues --   -0.49798  -0.49767  -0.49171  -0.49153  -0.48745
 Alpha  occ. eigenvalues --   -0.48531  -0.48444  -0.48374  -0.47983  -0.47619
 Alpha  occ. eigenvalues --   -0.46536  -0.45739  -0.44654  -0.44479  -0.43778
 Alpha  occ. eigenvalues --   -0.40697  -0.39878  -0.39731  -0.37678  -0.37454
 Alpha  occ. eigenvalues --   -0.37257  -0.36744  -0.36694  -0.35866  -0.34413
 Alpha  occ. eigenvalues --   -0.33970  -0.33679  -0.33420  -0.33107  -0.33024
 Alpha  occ. eigenvalues --   -0.32771  -0.32569  -0.32433  -0.31966  -0.30455
 Alpha  occ. eigenvalues --   -0.29949  -0.29217  -0.25729  -0.25273
 Alpha virt. eigenvalues --    0.02523   0.04767   0.07683   0.08221   0.08438
 Alpha virt. eigenvalues --    0.09119   0.09410   0.11177   0.11582   0.11750
 Alpha virt. eigenvalues --    0.12317   0.14130   0.14272   0.14783   0.15019

 Mulliken charges:
               1
     1  N   -0.311504
     2  C    0.181333
     3  C    0.033566
     4  N   -0.258585
     5  C    0.133196
     6  H    0.025131
     7  N   -0.296188
     8  C    0.140378
     9  H    0.006988
    10  N   -0.292387
    11  C    0.246256
    12  C    0.125961
    13  N   -0.055390
    14  H    0.111339
    15  H    0.089029
    16  H    0.024173
    17  H    0.033946
    18  H    0.025712
    19  N   -0.312657
    20  C    0.246716
    21  C    0.181598
    22  N   -0.118396
    23  H    0.116199
    24  H    0.115830
    25  N   -0.301303
    26  C    0.232306
    27  N   -0.130211
    28  H    0.112300
    29  C    0.158869
    30  O   -0.316336
    31  C    0.004914
    32  N   -0.221938
    33  C    0.128743
    34  H    0.029392
    35  H    0.028813
    36  H    0.027988
    37  H    0.025192
    38  H    0.063604
    39  H    0.059120
    40  H    0.076523
    41  H    0.033227
    42  C   -0.109024
    43  O   -0.264169
    44  C    0.150015
    45  H    0.134602
    46  N   -0.122104
    47  O   -0.345516
    48  C    0.350706
    49  H    0.049848
    50  C    0.163739
    51  C    0.043500
    52  N   -0.291165
    53  H    0.033336
    54  H    0.046066
    55  H    0.017862
    56  H    0.129450
    57  H    0.113173
    58  N   -0.070685
    59  C    0.086482
    60  C    0.229483
    61  N   -0.257822
    62  H    0.049172
    63  C    0.161771
    64  N   -0.301952
    65  H    0.032393
    66  C    0.132277
    67  N   -0.268643
    68  C    0.037830
    69  C    0.176210
    70  N   -0.310280
 Sum of Mulliken charges =  -0.00000

 Dipole moment (field-independent basis, Debye):
    X=              9.5850    Y=              4.7195    Z=              1.4894  Tot=             10.7873
 Quadrupole moment (field-independent basis, Debye-Ang):
   XX=           -159.5027   YY=           -208.7766   ZZ=           -250.6355
   XY=             -5.8596   XZ=              6.1493   YZ=             -6.0293

 Normal termination of Gaussian 16 at Fri Jan 26 21:47:07 2018.
