 Gaussian 16, Revision A.03,
 Gaussian 16:  EM64L-G16RevA.03 25-Dec-2016

 ---------------------------------------
 #p wb97xd/cc-pvdz sp scf=(maxcycles=20)
 ---------------------------------------

 ------------------
 Base pair stacking
 ------------------
 Symbolic Z-matrix:
 Charge =  0 Multiplicity = 1

                         Standard orientation:
 ---------------------------------------------------------------------
 Center     Atomic      Atomic             Coordinates (Angstroms)
 Number     Number       Type             X           Y           Z
 ---------------------------------------------------------------------
      1          7           0       -6.926141   -1.627509    0.258481
      2          6           0       -8.311853   -1.190302    0.000316
      3          6           0       -4.765963   -1.647882    0.671398
      4          7           0       -5.155361   -2.976031    0.575901
      5          6           0       -6.441205   -2.910602    0.330962
      6          1           0       -7.090861   -3.775394    0.193004
      7          7           0       -3.476386    0.307341    0.949021
      8          6           0       -4.607080    0.990621    0.743525
      9          1           0       -4.508355    2.074702    0.779553
     10          7           0       -5.835634    0.537963    0.501348
     11          6           0       -5.846603   -0.805076    0.478011
     12          6           0       -3.520526   -1.042567    0.919225
     13          7           0       -2.392891   -1.726405    1.124125
     14          1           0       -2.378825   -2.726827    1.110996
     15          1           0       -1.524192   -1.262294    1.297642
     16          1           0       -8.915305   -1.554098    0.710016
     17          1           0       -8.353993   -0.191660    0.008049
     18          1           0       -8.609172   -1.527867   -0.892800
     19          7           0       -1.747501    3.107691   -1.781263
     20          6           0       -0.518523    2.555834   -1.510864
     21          6           0       -2.082297    4.541716   -1.670959
     22          7           0        2.789508    2.920215   -0.517928
     23          1           0        3.585875    2.333030   -0.375606
     24          1           0        2.909719    3.897910   -0.343618
     25          7           0        0.580854    3.225513   -1.102252
     26          6           0        1.612832    2.419948   -0.924234
     27          7           0        1.573306    1.062170   -1.130071
     28          1           0        2.411099    0.524505   -0.968879
     29          6           0        0.453102    0.352010   -1.550410
     30          8           0        0.523480   -0.873375   -1.706014
     31          6           0       -0.663529    1.203964   -1.745846
     32          7           0       -1.957502    0.912966   -2.155528
     33          6           0       -2.562604    2.069701   -2.161826
     34          1           0       -3.606741    2.222805   -2.436810
     35          1           0       -2.818885    4.663582   -1.006586
     36          1           0       -1.275535    5.047895   -1.368988
     37          1           0       -2.376673    4.886450   -2.561642
     38          1           0        6.716858   -1.661566    0.623078
     39          1           0        7.097570   -1.682957   -1.097161
     40          1           0        6.105071   -0.386062   -0.430569
     41          1           0        4.080677   -5.420053   -0.815984
     42          6           0        4.044990   -4.330789   -0.837436
     43          8           0        1.731097   -4.233175   -1.350741
     44          6           0        2.804202   -3.676328   -1.120171
     45          1           0        2.012283   -1.799691   -1.318779
     46          7           0        2.869311   -2.297558   -1.122917
     47          8           0        3.934985   -0.303310   -0.911872
     48          6           0        3.976063   -1.520847   -0.887634
     49          1           0        6.109253   -4.049509   -0.384077
     50          6           0        5.141599   -3.600388   -0.603818
     51          6           0        6.342950   -1.437358   -0.364850
     52          7           0        5.134192   -2.224905   -0.622574
     53          1           0        3.045092    4.538469    2.449068
     54          1           0        1.983539    4.322025    1.229084
     55          1           0        3.587869    4.283244    0.931285
     56          1           0        1.053951   -2.599293    2.057722
     57          1           0        2.615024   -2.100669    2.531563
     58          7           0        1.714731   -1.856948    2.169206
     59          6           0        1.409917   -0.597645    1.849195
     60          6           0        1.841428    1.730383    1.612911
     61          7           0        0.624520    2.028387    1.128394
     62          1           0       -1.133098    1.084414    0.659057
     63          6           0       -0.125879    0.931694    1.044331
     64          7           0        0.177595   -0.330476    1.364347
     65          1           0        4.871674    2.263673    2.605562
     66          6           0        3.909595    1.827520    2.335156
     67          7           0        3.611540    0.555732    2.441979
     68          6           0        2.302972    0.480452    1.987318
     69          6           0        2.874424    4.051282    1.592610
     70          7           0        2.884646    2.596435    1.840215
 ---------------------------------------------------------------------

 SCF Done:  E(RwB97XD) =  -2048.66183950     A.U. after   15 cycles

 The electronic state is 1-A.
 Alpha  occ. eigenvalues --  -19.25959 -19.22106 -19.20671 -14.52577 -14.51595
 Alpha  occ. eigenvalues --  -14.48917 -14.48895 -14.48004 -14.47392 -14.46560
 Alpha  occ. eigenvalues --  -14.46417 -14.44623 -14.43182 -14.42570 -14.42385
 Alpha  occ. eigenvalues --  -14.41825 -14.41604 -14.41009 -14.40930 -14.40247
 Alpha  occ. eigenvalues --  -10.45604 -10.41304 -10.40227 -10.38978 -10.38292
 Alpha  occ. eigenvalues --  -10.37944 -10.37244 -10.36029 -10.35558 -10.35337
 Alpha  occ. eigenvalues --  -10.34398 -10.34356 -10.34257 -10.33968 -10.33503
 Alpha  occ. eigenvalues --  -10.33481 -10.33203 -10.31793 -10.31250 -10.31062
 Alpha  occ. eigenvalues --  -10.31006 -10.28702 -10.28381  -1.19549  -1.14990
 Alpha  occ. eigenvalues --   -1.13276  -1.13127  -1.11492  -1.10740  -1.09459
 Alpha  occ. eigenvalues --   -1.09045  -1.08354  -1.05102  -1.03850  -1.02639
 Alpha  occ. eigenvalues --   -1.01732  -1.00582  -0.99287  -0.98613  -0.97115
 Alpha  occ. eigenvalues --   -0.96738  -0.95919  -0.92753  -0.91191  -0.87440
 Alpha  occ. eigenvalues --   -0.85844  -0.84316  -0.84063  -0.83767  -0.82723
 Alpha  occ. eigenvalues --   -0.82430  -0.79021  -0.76287  -0.74880  -0.74360
 Alpha  occ. eigenvalues --   -0.73894  -0.73490  -0.73048  -0.71190  -0.69849
 Alpha  occ. eigenvalues --   -0.67828  -0.66718  -0.66454  -0.66231  -0.64656
 Alpha  occ. eigenvalues --   -0.64105  -0.63831  -0.63455  -0.62853  -0.62809
 Alpha  occ. eigenvalues --   -0.60432  -0.60262  -0.59865  -0.59708  -0.59627
 Alpha  occ. eigenvalues --   -0.59307  -0.58814  -0.56885  -0.56620  -0.56466
 Alpha  occ. eigenvalues --   -0.56076  -0.55563  -0.55387  -0.54634  -0.54319
 Alpha  occ. eigenvalues --   -0.53755  -0.53473  -0.53332  -0.53093  -0.52528
 Alpha  occ. eigenvalues --   -0.52395  -0.51863  -0.51652  -0.50831  -0.50305
 Alpha  occ. eigenvalues --   -0.50283  -0.49544  -0.49384  -0.48941  -0.48868
 Alpha  occ. eigenvalues --   -0.48766  -0.48476  -0.48294  -0.47625  -0.47471
 Alpha  occ. eigenvalues --   -0.47073  -0.45611  -0.45215  -0.44130  -0.42496
 Alpha  occ. eigenvalues --   -0.41307  -0.39981  -0.39530  -0.38421  -0.37369
 Alpha  occ. eigenvalues --   -0.37298  -0.36824  -0.36191  -0.35462  -0.34795
 Alpha  occ. eigenvalues --   -0.33719  -0.33608  -0.33292  -0.33269  -0.32800
 Alpha  occ. eigenvalues --   -0.32741  -0.32182  -0.32079  -0.31919  -0.31001
 Alpha  occ. eigenvalues --   -0.30474  -0.28848  -0.25939  -0.25023
 Alpha virt. eigenvalues --    0.02963   0.04398   0.07253   0.07822   0.08295
 Alpha virt. eigenvalues --    0.09153   0.09923   0.10741   0.11251   0.12408
 Alpha virt. eigenvalues --    0.13383   0.13893   0.14031   0.14492   0.15008

 Mulliken charges:
               1
     1  N   -0.311289
     2  C    0.181181
     3  C    0.030070
     4  N   -0.260055
     5  C    0.134413
     6  H    0.027042
     7  N   -0.290485
     8  C    0.137378
     9  H    0.005714
    10  N   -0.289142
    11  C    0.245638
    12  C    0.126016
    13  N   -0.059522
    14  H    0.107845
    15  H    0.088536
    16  H    0.025202
    17  H    0.035047
    18  H    0.026841
    19  N   -0.311721
    20  C    0.236994
    21  C    0.182854
    22  N   -0.089271
    23  H    0.114926
    24  H    0.110927
    25  N   -0.252008
    26  C    0.142793
    27  N   -0.093174
    28  H    0.116825
    29  C    0.143053
    30  O   -0.316157
    31  C   -0.003743
    32  N   -0.217014
    33  C    0.128115
    34  H    0.031154
    35  H    0.028626
    36  H    0.026306
    37  H    0.025150
    38  H    0.061257
    39  H    0.059239
    40  H    0.075649
    41  H    0.032509
    42  C   -0.112576
    43  O   -0.264100
    44  C    0.174554
    45  H    0.134749
    46  N   -0.138887
    47  O   -0.345948
    48  C    0.359371
    49  H    0.048372
    50  C    0.169296
    51  C    0.043824
    52  N   -0.298257
    53  H    0.023216
    54  H    0.038288
    55  H   -0.002516
    56  H    0.123079
    57  H    0.114074
    58  N   -0.070184
    59  C    0.096434
    60  C    0.197906
    61  N   -0.250158
    62  H    0.064079
    63  C    0.149446
    64  N   -0.294390
    65  H    0.029377
    66  C    0.112810
    67  N   -0.261717
    68  C    0.048631
    69  C    0.213452
    70  N   -0.295945
 Sum of Mulliken charges =  -0.00000

 Dipole moment (field-independent basis, Debye):
    X=              8.5389    Y=              4.6701    Z=              3.1336  Tot=             10.2246
 Quadrupole moment (field-independent basis, Debye-Ang):
   XX=           -154.8325   YY=           -211.8261   ZZ=           -253.0314
   XY=             -2.5862   XZ=             11.1470   YZ=            -11.3004

 Normal termination of Gaussian 16 at Fri Jan 26 22:54:25 2018.
