 Gaussian 16, Revision A.03,
 Gaussian 16:  EM64L-G16RevA.03 25-Dec-2016

 ---------------------------------------
 #p wb97xd/cc-pvdz sp scf=(maxcycles=20)
 ---------------------------------------

 ------------------
 Base pair stacking
 ------------------
 Symbolic Z-matrix:
 Charge =  0 Multiplicity = 1

                         Standard orientation:
 ---------------------------------------------------------------------
 Center     Atomic      Atomic             Coordinates (Angstroms)
 Number     Number       Type             X           Y           Z
 ---------------------------------------------------------------------
      1          7           0        4.616512   -2.156104   -1.745018
      2          6           0        6.030237   -1.776930   -1.933724
      3          6           0        2.426065   -2.094556   -1.556646
      4          7           0        2.793904   -3.420199   -1.377475
      5          6           0        4.098847   -3.404216   -1.498132
      6          1           0        4.739924   -4.282351   -1.415413
      7          7           0        1.158343   -0.115963   -1.759026
      8          6           0        2.318514    0.515732   -1.965253
      9          1           0        2.240430    1.589476   -2.130280
     10          7           0        3.554862    0.022513   -1.998102
     11          6           0        3.538745   -1.303529   -1.784113
     12          6           0        1.175702   -1.450024   -1.546784
     13          7           0        0.018616   -2.082373   -1.340725
     14          1           0       -0.015936   -3.069289   -1.179424
     15          1           0       -0.852667   -1.591442   -1.340555
     16          1           0        6.406857   -2.269139   -2.718633
     17          1           0        6.093209   -0.792833   -2.097147
     18          1           0        6.552603   -2.011040   -1.113774
     19          7           0        4.241285    3.308596    0.857068
     20          6           0        2.969618    2.802087    0.976953
     21          6           0        4.575083    4.715662    0.557993
     22          7           0       -0.471508    3.267494    0.915743
     23          1           0       -1.293285    2.712310    1.041072
     24          1           0       -0.606050    4.237885    0.713364
     25          7           0        1.820617    3.499107    0.842763
     26          6           0        0.756151    2.735517    1.014440
     27          7           0        0.810603    1.391920    1.296056
     28          1           0       -0.054712    0.887023    1.411291
     29          6           0        1.981651    0.654235    1.438563
     30          8           0        1.920583   -0.554974    1.693183
     31          6           0        3.133617    1.460994    1.256881
     32          7           0        4.481122    1.132170    1.311634
     33          6           0        5.098528    2.256497    1.068942
     34          1           0        6.182028    2.374671    1.032611
     35          1           0        5.099965    4.762208   -0.291197
     36          1           0        3.731745    5.241729    0.456457
     37          1           0        5.116933    5.097639    1.305866
     38          1           0       -4.697799   -1.177448    1.231292
     39          1           0       -4.583027   -1.078804    2.986781
     40          1           0       -3.777678    0.126769    1.982123
     41          1           0       -1.879278   -4.968087    2.144295
     42          6           0       -1.806134   -3.882476    2.078514
     43          8           0        0.560865   -3.867247    1.922913
     44          6           0       -0.516585   -3.273513    1.959983
     45          1           0        0.355609   -1.429113    1.799330
     46          7           0       -0.536649   -1.895446    1.883861
     47          8           0       -1.558074    0.132266    1.836699
     48          6           0       -1.641065   -1.081139    1.910305
     49          1           0       -3.905361   -3.528511    2.195863
     50          6           0       -2.901741   -3.114735    2.106995
     51          6           0       -4.056097   -0.913774    2.058790
     52          7           0       -2.847846   -1.742522    2.026365
     53          1           0       -5.418277    4.282150   -2.054039
     54          1           0       -4.068600    4.162943   -1.145044
     55          1           0       -5.530279    4.265508   -0.425969
     56          1           0       -3.572512   -2.851905   -1.180023
     57          1           0       -5.190916   -2.322965   -1.285413
     58          7           0       -4.220065   -2.090682   -1.216796
     59          6           0       -3.808283   -0.821830   -1.176200
     60          6           0       -4.101025    1.539525   -1.173021
     61          7           0       -2.790955    1.821722   -1.080729
     62          1           0       -0.995799    0.839250   -0.967717
     63          6           0       -2.073504    0.700688   -1.042719
     64          7           0       -2.484061   -0.571070   -1.083261
     65          1           0       -7.273224    2.126724   -1.383998
     66          6           0       -6.284920    1.670416   -1.320952
     67          7           0       -6.058978    0.379443   -1.318192
     68          6           0       -4.678166    0.282649   -1.224792
     69          6           0       -5.031398    3.903174   -1.213383
     70          7           0       -5.144934    2.431903   -1.235583
 ---------------------------------------------------------------------

 SCF Done:  E(RwB97XD) =  -2048.74722130     A.U. after   15 cycles

 The electronic state is 1-A.
 Alpha  occ. eigenvalues --  -19.25227 -19.21380 -19.20414 -14.52658 -14.51948
 Alpha  occ. eigenvalues --  -14.49198 -14.48748 -14.48070 -14.47219 -14.46593
 Alpha  occ. eigenvalues --  -14.46196 -14.45584 -14.44987 -14.44949 -14.42862
 Alpha  occ. eigenvalues --  -14.41845 -14.40830 -14.40781 -14.40568 -14.40260
 Alpha  occ. eigenvalues --  -10.44890 -10.40973 -10.40599 -10.39499 -10.38167
 Alpha  occ. eigenvalues --  -10.38032 -10.37598 -10.37503 -10.36364 -10.35468
 Alpha  occ. eigenvalues --  -10.34596 -10.34239 -10.34068 -10.33507 -10.33287
 Alpha  occ. eigenvalues --  -10.33082 -10.32874 -10.32768 -10.30965 -10.30820
 Alpha  occ. eigenvalues --  -10.30094 -10.28163 -10.27979  -1.18846  -1.15443
 Alpha  occ. eigenvalues --   -1.12987  -1.12390  -1.10732  -1.10482  -1.09950
 Alpha  occ. eigenvalues --   -1.08815  -1.08304  -1.05505  -1.04949  -1.01871
 Alpha  occ. eigenvalues --   -1.01245  -1.00458  -0.99380  -0.98363  -0.97474
 Alpha  occ. eigenvalues --   -0.96510  -0.96449  -0.92630  -0.90682  -0.87982
 Alpha  occ. eigenvalues --   -0.86159  -0.84013  -0.83402  -0.83106  -0.82442
 Alpha  occ. eigenvalues --   -0.81741  -0.78438  -0.77495  -0.75329  -0.74472
 Alpha  occ. eigenvalues --   -0.73342  -0.72807  -0.72700  -0.70936  -0.70719
 Alpha  occ. eigenvalues --   -0.67392  -0.67091  -0.66111  -0.66051  -0.64728
 Alpha  occ. eigenvalues --   -0.64199  -0.63483  -0.62573  -0.62433  -0.61489
 Alpha  occ. eigenvalues --   -0.60986  -0.60631  -0.60078  -0.59699  -0.59216
 Alpha  occ. eigenvalues --   -0.59118  -0.57992  -0.56654  -0.56379  -0.55659
 Alpha  occ. eigenvalues --   -0.55589  -0.55560  -0.55440  -0.54808  -0.54045
 Alpha  occ. eigenvalues --   -0.53969  -0.53467  -0.53361  -0.53115  -0.52802
 Alpha  occ. eigenvalues --   -0.52672  -0.51961  -0.51236  -0.50323  -0.50276
 Alpha  occ. eigenvalues --   -0.49971  -0.49757  -0.49569  -0.48993  -0.48661
 Alpha  occ. eigenvalues --   -0.48580  -0.48001  -0.47796  -0.47591  -0.47040
 Alpha  occ. eigenvalues --   -0.46523  -0.45655  -0.45383  -0.44393  -0.43516
 Alpha  occ. eigenvalues --   -0.41115  -0.40965  -0.38932  -0.38190  -0.37997
 Alpha  occ. eigenvalues --   -0.37188  -0.37111  -0.36611  -0.35465  -0.35024
 Alpha  occ. eigenvalues --   -0.34982  -0.33755  -0.33203  -0.33116  -0.32727
 Alpha  occ. eigenvalues --   -0.32405  -0.32353  -0.31731  -0.31523  -0.30672
 Alpha  occ. eigenvalues --   -0.30464  -0.30125  -0.25896  -0.25078
 Alpha virt. eigenvalues --    0.03101   0.03930   0.06467   0.08156   0.09054
 Alpha virt. eigenvalues --    0.09498   0.09927   0.10344   0.11196   0.11240
 Alpha virt. eigenvalues --    0.13227   0.14400   0.14641   0.14933   0.15101

 Mulliken charges:
               1
     1  N   -0.313889
     2  C    0.184101
     3  C    0.056012
     4  N   -0.259877
     5  C    0.142105
     6  H    0.026810
     7  N   -0.293423
     8  C    0.129087
     9  H    0.013564
    10  N   -0.276757
    11  C    0.263921
    12  C    0.093291
    13  N   -0.071763
    14  H    0.110381
    15  H    0.081630
    16  H    0.020337
    17  H    0.034008
    18  H    0.031409
    19  N   -0.311084
    20  C    0.247780
    21  C    0.180721
    22  N   -0.109972
    23  H    0.113391
    24  H    0.114706
    25  N   -0.311447
    26  C    0.237857
    27  N   -0.136987
    28  H    0.114013
    29  C    0.182953
    30  O   -0.322032
    31  C   -0.009069
    32  N   -0.227889
    33  C    0.126726
    34  H    0.022396
    35  H    0.027317
    36  H    0.028988
    37  H    0.024615
    38  H    0.049505
    39  H    0.059507
    40  H    0.075018
    41  H    0.029668
    42  C   -0.114892
    43  O   -0.255569
    44  C    0.170090
    45  H    0.136280
    46  N   -0.127269
    47  O   -0.346556
    48  C    0.353999
    49  H    0.042395
    50  C    0.159009
    51  C    0.041813
    52  N   -0.284122
    53  H    0.035189
    54  H    0.037627
    55  H    0.031151
    56  H    0.118121
    57  H    0.121206
    58  N   -0.063102
    59  C    0.075587
    60  C    0.250823
    61  N   -0.279494
    62  H    0.030718
    63  C    0.183570
    64  N   -0.311318
    65  H    0.039914
    66  C    0.142736
    67  N   -0.261353
    68  C    0.029399
    69  C    0.180412
    70  N   -0.313990
 Sum of Mulliken charges =  -0.00000

 Dipole moment (field-independent basis, Debye):
    X=             -9.3505    Y=              5.2476    Z=             -1.1222  Tot=             10.7810
 Quadrupole moment (field-independent basis, Debye-Ang):
   XX=           -174.8825   YY=           -207.2429   ZZ=           -251.4185
   XY=              8.2743   XZ=            -16.0998   YZ=              4.5897

 Normal termination of Gaussian 16 at Sat Jan 27 11:24:16 2018.
