 Gaussian 16, Revision A.03,
 Gaussian 16:  EM64L-G16RevA.03 25-Dec-2016

 ---------------------------------------
 #p wb97xd/cc-pvdz sp scf=(maxcycles=20)
 ---------------------------------------

 ------------------
 Base pair stacking
 ------------------
 Symbolic Z-matrix:
 Charge =  0 Multiplicity = 1

                         Standard orientation:
 ---------------------------------------------------------------------
 Center     Atomic      Atomic             Coordinates (Angstroms)
 Number     Number       Type             X           Y           Z
 ---------------------------------------------------------------------
      1          7           0        4.617628   -2.194928   -1.754373
      2          6           0        6.027398   -1.825462   -1.986892
      3          6           0        2.430322   -2.125340   -1.534928
      4          7           0        2.803726   -3.438170   -1.286374
      5          6           0        4.106549   -3.427544   -1.428529
      6          1           0        4.750708   -4.298765   -1.306117
      7          7           0        1.155416   -0.163007   -1.829534
      8          6           0        2.310855    0.457268   -2.089907
      9          1           0        2.227912    1.519766   -2.314592
     10          7           0        3.547549   -0.035551   -2.114270
     11          6           0        3.537597   -1.347248   -1.824830
     12          6           0        1.178931   -1.482781   -1.541911
     13          7           0        0.026577   -2.103715   -1.281722
     14          1           0       -0.003352   -3.079871   -1.063906
     15          1           0       -0.845617   -1.614611   -1.295651
     16          1           0        6.392559   -2.361177   -2.748363
     17          1           0        6.085714   -0.852208   -2.207123
     18          1           0        6.563170   -2.011810   -1.163351
     19          7           0        4.235841    3.338251    0.864575
     20          6           0        2.965026    2.834054    1.001952
     21          6           0        4.568685    4.749317    0.583860
     22          7           0       -0.474839    3.312328    1.021145
     23          1           0       -1.295919    2.757809    1.153679
     24          1           0       -0.609861    4.286668    0.839058
     25          7           0        1.816135    3.537315    0.904361
     26          6           0        0.752588    2.774435    1.084560
     27          7           0        0.807766    1.425806    1.340844
     28          1           0       -0.056875    0.921893    1.465089
     29          6           0        1.978712    0.681646    1.445542
     30          8           0        1.918357   -0.531725    1.679665
     31          6           0        3.129703    1.487575    1.254289
     32          7           0        4.476792    1.153181    1.274923
     33          6           0        5.093290    2.279567    1.039550
     34          1           0        6.176247    2.394644    0.982677
     35          1           0        5.075907    4.809343   -0.275165
     36          1           0        3.725436    5.280027    0.509453
     37          1           0        5.127480    5.115903    1.326955
     38          1           0       -4.710555   -1.123007    1.345342
     39          1           0       -4.558797   -1.056387    3.099532
     40          1           0       -3.769988    0.164308    2.100008
     41          1           0       -1.888088   -4.939153    2.131018
     42          6           0       -1.812188   -3.852786    2.083194
     43          8           0        0.551088   -3.842912    1.878374
     44          6           0       -0.523074   -3.246226    1.948642
     45          1           0        0.352607   -1.402253    1.802853
     46          7           0       -0.539465   -1.866959    1.897675
     47          8           0       -1.553903    0.164786    1.908273
     48          6           0       -1.639967   -1.049457    1.961838
     49          1           0       -3.907134   -3.493766    2.250795
     50          6           0       -2.904024   -3.081912    2.148372
     51          6           0       -4.050717   -0.876483    2.163819
     52          7           0       -2.846578   -1.708666    2.091252
     53          1           0       -5.434247    4.203311   -2.269929
     54          1           0       -4.070095    4.137736   -1.377251
     55          1           0       -5.520409    4.279407   -0.641989
     56          1           0       -3.559942   -2.867101   -1.020214
     57          1           0       -5.180905   -2.346940   -1.129779
     58          7           0       -4.209578   -2.109970   -1.089990
     59          6           0       -3.799870   -0.840389   -1.128357
     60          6           0       -4.097457    1.516957   -1.255114
     61          7           0       -2.786692    1.805518   -1.199956
     62          1           0       -0.987925    0.833216   -1.059744
     63          6           0       -2.066383    0.689328   -1.109538
     64          7           0       -2.474868   -0.583166   -1.070972
     65          1           0       -7.273824    2.087412   -1.448649
     66          6           0       -6.283696    1.636609   -1.375452
     67          7           0       -6.055034    0.348162   -1.302706
     68          6           0       -4.672719    0.258485   -1.225959
     69          6           0       -5.033311    3.873354   -1.415313
     70          7           0       -5.144099    2.403084   -1.351799
 ---------------------------------------------------------------------

 SCF Done:  E(RwB97XD) =  -2048.74619244     A.U. after   15 cycles

 The electronic state is 1-A.
 Alpha  occ. eigenvalues --  -19.25295 -19.21465 -19.20472 -14.52580 -14.52007
 Alpha  occ. eigenvalues --  -14.49116 -14.48816 -14.47992 -14.47273 -14.46694
 Alpha  occ. eigenvalues --  -14.46368 -14.45519 -14.44923 -14.44828 -14.42737
 Alpha  occ. eigenvalues --  -14.41924 -14.40901 -14.40671 -14.40501 -14.40183
 Alpha  occ. eigenvalues --  -10.44957 -10.41079 -10.40513 -10.39576 -10.38108
 Alpha  occ. eigenvalues --  -10.38105 -10.37593 -10.37507 -10.36240 -10.35373
 Alpha  occ. eigenvalues --  -10.34655 -10.34318 -10.33986 -10.33409 -10.33349
 Alpha  occ. eigenvalues --  -10.33014 -10.32793 -10.32706 -10.31013 -10.30906
 Alpha  occ. eigenvalues --  -10.30054 -10.28069 -10.28059  -1.18896  -1.15366
 Alpha  occ. eigenvalues --   -1.13067  -1.12470  -1.10649  -1.10551  -1.09866
 Alpha  occ. eigenvalues --   -1.08876  -1.08397  -1.05410  -1.04859  -1.01934
 Alpha  occ. eigenvalues --   -1.01172  -1.00364  -0.99509  -0.98443  -0.97382
 Alpha  occ. eigenvalues --   -0.96582  -0.96359  -0.92545  -0.90762  -0.87897
 Alpha  occ. eigenvalues --   -0.86079  -0.84089  -0.83324  -0.83159  -0.82508
 Alpha  occ. eigenvalues --   -0.81673  -0.78509  -0.77416  -0.75231  -0.74549
 Alpha  occ. eigenvalues --   -0.73449  -0.72873  -0.72611  -0.70852  -0.70634
 Alpha  occ. eigenvalues --   -0.67312  -0.67187  -0.66124  -0.66017  -0.64647
 Alpha  occ. eigenvalues --   -0.64267  -0.63547  -0.62508  -0.62470  -0.61596
 Alpha  occ. eigenvalues --   -0.60917  -0.60545  -0.59996  -0.59611  -0.59231
 Alpha  occ. eigenvalues --   -0.59179  -0.58121  -0.56673  -0.56316  -0.55651
 Alpha  occ. eigenvalues --   -0.55551  -0.55505  -0.55349  -0.54738  -0.54072
 Alpha  occ. eigenvalues --   -0.53934  -0.53484  -0.53418  -0.53061  -0.52877
 Alpha  occ. eigenvalues --   -0.52723  -0.52018  -0.51169  -0.50259  -0.50218
 Alpha  occ. eigenvalues --   -0.50007  -0.49697  -0.49514  -0.49049  -0.48647
 Alpha  occ. eigenvalues --   -0.48573  -0.48071  -0.47837  -0.47667  -0.47101
 Alpha  occ. eigenvalues --   -0.46455  -0.45636  -0.45361  -0.44416  -0.43593
 Alpha  occ. eigenvalues --   -0.41000  -0.40882  -0.38988  -0.38118  -0.37912
 Alpha  occ. eigenvalues --   -0.37219  -0.37180  -0.36571  -0.35435  -0.35047
 Alpha  occ. eigenvalues --   -0.34865  -0.33831  -0.33128  -0.33030  -0.32786
 Alpha  occ. eigenvalues --   -0.32468  -0.32423  -0.31793  -0.31601  -0.30602
 Alpha  occ. eigenvalues --   -0.30402  -0.30059  -0.25807  -0.25166
 Alpha virt. eigenvalues --    0.03040   0.03987   0.06548   0.08260   0.08993
 Alpha virt. eigenvalues --    0.09432   0.09872   0.10399   0.11199   0.11292
 Alpha virt. eigenvalues --    0.13280   0.14467   0.14588   0.14939   0.14999

 Mulliken charges:
               1
     1  N   -0.313694
     2  C    0.183908
     3  C    0.055656
     4  N   -0.257959
     5  C    0.141803
     6  H    0.026533
     7  N   -0.295798
     8  C    0.132019
     9  H    0.011892
    10  N   -0.279181
    11  C    0.263286
    12  C    0.094963
    13  N   -0.071616
    14  H    0.111339
    15  H    0.081603
    16  H    0.020386
    17  H    0.033738
    18  H    0.031085
    19  N   -0.311328
    20  C    0.248974
    21  C    0.180746
    22  N   -0.113592
    23  H    0.114512
    24  H    0.115440
    25  N   -0.311916
    26  C    0.242346
    27  N   -0.141651
    28  H    0.115752
    29  C    0.187732
    30  O   -0.322028
    31  C   -0.011478
    32  N   -0.228084
    33  C    0.127093
    34  H    0.022884
    35  H    0.027454
    36  H    0.029136
    37  H    0.024797
    38  H    0.049260
    39  H    0.059695
    40  H    0.075054
    41  H    0.029821
    42  C   -0.114835
    43  O   -0.254103
    44  C    0.166272
    45  H    0.136129
    46  N   -0.125991
    47  O   -0.347865
    48  C    0.353405
    49  H    0.042306
    50  C    0.157729
    51  C    0.041767
    52  N   -0.283335
    53  H    0.034946
    54  H    0.038861
    55  H    0.030501
    56  H    0.117943
    57  H    0.120796
    58  N   -0.064403
    59  C    0.080902
    60  C    0.250174
    61  N   -0.277000
    62  H    0.033038
    63  C    0.180453
    64  N   -0.313265
    65  H    0.039630
    66  C    0.142752
    67  N   -0.262196
    68  C    0.028481
    69  C    0.180064
    70  N   -0.313736
 Sum of Mulliken charges =  -0.00000

 Dipole moment (field-independent basis, Debye):
    X=             -9.3107    Y=              5.3488    Z=             -0.7512  Tot=             10.7639
 Quadrupole moment (field-independent basis, Debye-Ang):
   XX=           -175.1603   YY=           -206.8374   ZZ=           -250.6161
   XY=              8.0335   XZ=            -15.7665   YZ=              3.2834

 Normal termination of Gaussian 16 at Fri Jan 26 19:54:06 2018.
