 Gaussian 16, Revision A.03,
 Gaussian 16:  EM64L-G16RevA.03 25-Dec-2016

 ---------------------------------------
 #p wb97xd/cc-pvdz sp scf=(maxcycles=20)
 ---------------------------------------

 ------------------
 Base pair stacking
 ------------------
 Symbolic Z-matrix:
 Charge =  0 Multiplicity = 1

                         Standard orientation:
 ---------------------------------------------------------------------
 Center     Atomic      Atomic             Coordinates (Angstroms)
 Number     Number       Type             X           Y           Z
 ---------------------------------------------------------------------
      1          7           0       -5.694935   -1.929728    1.119829
      2          6           0       -7.102495   -1.532562    1.317424
      3          6           0       -3.495926   -1.945581    1.082539
      4          7           0       -3.901945   -3.157907    0.543918
      5          6           0       -5.210522   -3.099840    0.587934
      6          1           0       -5.878147   -3.889728    0.242535
      7          7           0       -2.168953   -0.159944    1.865876
      8          6           0       -3.315107    0.462074    2.160809
      9          1           0       -3.206781    1.451346    2.603392
     10          7           0       -4.569106    0.047505    1.991919
     11          6           0       -4.589979   -1.177945    1.442128
     12          6           0       -2.223642   -1.391694    1.313708
     13          7           0       -1.080596   -2.014211    1.018586
     14          1           0       -1.073513   -2.927017    0.608751
     15          1           0       -0.192871   -1.589641    1.196994
     16          1           0       -7.553091   -2.187647    1.924055
     17          1           0       -7.138168   -0.621424    1.726905
     18          1           0       -7.573981   -1.518560    0.435666
     19          7           0       -3.069729    3.585963   -1.475904
     20          6           0       -1.823256    3.008105   -1.496639
     21          6           0       -3.338055    5.032538   -1.348905
     22          7           0        1.634522    3.310342   -1.377587
     23          1           0        2.429489    2.705328   -1.412719
     24          1           0        1.813701    4.289872   -1.282080
     25          7           0       -0.643668    3.659465   -1.405215
     26          6           0        0.384011    2.830604   -1.454963
     27          7           0        0.267572    1.467803   -1.584340
     28          1           0        1.108341    0.911729   -1.613732
     29          6           0       -0.935905    0.776204   -1.680122
     30          8           0       -0.930788   -0.455753   -1.794161
     31          6           0       -2.048971    1.653272   -1.628146
     32          7           0       -3.409766    1.385957   -1.688746
     33          6           0       -3.974360    2.559255   -1.594872
     34          1           0       -5.050880    2.733112   -1.607107
     35          1           0       -3.882157    5.201481   -0.527792
     36          1           0       -2.471604    5.525334   -1.280417
     37          1           0       -3.839384    5.352035   -2.152272
     38          1           0        5.631931   -1.340803   -1.051667
     39          1           0        5.569003   -1.438628   -2.809829
     40          1           0        4.800778   -0.088256   -1.974540
     41          1           0        2.646171   -5.070216   -1.620228
     42          6           0        2.627596   -3.981966   -1.680110
     43          8           0        0.261266   -3.834438   -1.603624
     44          6           0        1.368608   -3.301722   -1.672898
     45          1           0        0.589110   -1.411019   -1.750199
     46          7           0        1.457958   -1.926617   -1.752605
     47          8           0        2.581369    0.041306   -1.902313
     48          6           0        2.603356   -1.175125   -1.835417
     49          1           0        4.744700   -3.745810   -1.769022
     50          6           0        3.761849   -3.276478   -1.759957
     51          6           0        5.026896   -1.142977   -1.923942
     52          7           0        3.776932   -1.903085   -1.836916
     53          1           0        4.537928    3.636931    3.677993
     54          1           0        3.252723    3.831319    2.691797
     55          1           0        4.764766    4.032349    2.110944
     56          1           0        2.479798   -2.918050    0.874107
     57          1           0        4.106143   -2.526033    1.207896
     58          7           0        3.152530   -2.229533    1.145237
     59          6           0        2.794926   -0.971621    1.411611
     60          6           0        3.179825    1.291072    2.039138
     61          7           0        1.891778    1.660940    1.946771
     62          1           0        0.071947    0.843247    1.477458
     63          6           0        1.135298    0.629522    1.576875
     64          7           0        1.491577   -0.631117    1.309613
     65          1           0        6.349612    1.624546    2.580847
     66          6           0        5.351116    1.256207    2.343643
     67          7           0        5.075322    0.024043    1.992375
     68          6           0        3.701921    0.032503    1.796326
     69          6           0        4.197253    3.508828    2.746578
     70          7           0        4.250942    2.077159    2.392415
 ---------------------------------------------------------------------

 SCF Done:  E(RwB97XD) =  -2048.74203754     A.U. after   15 cycles

 The electronic state is 1-A.
 Alpha  occ. eigenvalues --  -19.26202 -19.22665 -19.20763 -14.52846 -14.52044
 Alpha  occ. eigenvalues --  -14.48947 -14.48276 -14.48204 -14.47833 -14.47150
 Alpha  occ. eigenvalues --  -14.46954 -14.45107 -14.44008 -14.43902 -14.42224
 Alpha  occ. eigenvalues --  -14.41360 -14.40968 -14.40437 -14.39993 -14.39413
 Alpha  occ. eigenvalues --  -10.45862 -10.41456 -10.40755 -10.39673 -10.38499
 Alpha  occ. eigenvalues --  -10.38376 -10.37644 -10.36797 -10.35423 -10.35314
 Alpha  occ. eigenvalues --  -10.34555 -10.34504 -10.33526 -10.33415 -10.33152
 Alpha  occ. eigenvalues --  -10.32424 -10.32334 -10.32225 -10.31798 -10.31098
 Alpha  occ. eigenvalues --  -10.30175 -10.28257 -10.27588  -1.19797  -1.14796
 Alpha  occ. eigenvalues --   -1.13640  -1.13383  -1.10745  -1.10401  -1.09798
 Alpha  occ. eigenvalues --   -1.09028  -1.08759  -1.04596  -1.04125  -1.02945
 Alpha  occ. eigenvalues --   -1.00635  -0.99992  -0.99537  -0.98728  -0.96752
 Alpha  occ. eigenvalues --   -0.96558  -0.96013  -0.91794  -0.91697  -0.87244
 Alpha  occ. eigenvalues --   -0.85534  -0.84285  -0.83970  -0.83043  -0.82678
 Alpha  occ. eigenvalues --   -0.81455  -0.79428  -0.76734  -0.74813  -0.74462
 Alpha  occ. eigenvalues --   -0.73920  -0.73766  -0.72044  -0.70223  -0.70091
 Alpha  occ. eigenvalues --   -0.67609  -0.66987  -0.66578  -0.65438  -0.64848
 Alpha  occ. eigenvalues --   -0.64051  -0.64008  -0.62891  -0.61959  -0.61827
 Alpha  occ. eigenvalues --   -0.60397  -0.60135  -0.60003  -0.59830  -0.59269
 Alpha  occ. eigenvalues --   -0.58964  -0.58616  -0.56784  -0.56294  -0.55786
 Alpha  occ. eigenvalues --   -0.55518  -0.54946  -0.54852  -0.54573  -0.54270
 Alpha  occ. eigenvalues --   -0.53912  -0.53631  -0.53521  -0.53207  -0.53188
 Alpha  occ. eigenvalues --   -0.52777  -0.52445  -0.50956  -0.50423  -0.49875
 Alpha  occ. eigenvalues --   -0.49839  -0.49550  -0.49310  -0.49195  -0.49077
 Alpha  occ. eigenvalues --   -0.48547  -0.48430  -0.48050  -0.47900  -0.47580
 Alpha  occ. eigenvalues --   -0.46089  -0.45800  -0.45132  -0.44210  -0.44111
 Alpha  occ. eigenvalues --   -0.40303  -0.40211  -0.39745  -0.37492  -0.37463
 Alpha  occ. eigenvalues --   -0.37432  -0.37205  -0.36261  -0.36203  -0.34640
 Alpha  occ. eigenvalues --   -0.34158  -0.33923  -0.33717  -0.32856  -0.32730
 Alpha  occ. eigenvalues --   -0.32631  -0.32597  -0.32336  -0.31997  -0.30041
 Alpha  occ. eigenvalues --   -0.29816  -0.29557  -0.25717  -0.24794
 Alpha virt. eigenvalues --    0.02128   0.04382   0.07463   0.07964   0.08883
 Alpha virt. eigenvalues --    0.09126   0.09591   0.10893   0.11238   0.11941
 Alpha virt. eigenvalues --    0.12868   0.14265   0.14387   0.14969   0.15220

 Mulliken charges:
               1
     1  N   -0.312578
     2  C    0.181851
     3  C    0.040778
     4  N   -0.255407
     5  C    0.134535
     6  H    0.023739
     7  N   -0.301405
     8  C    0.141288
     9  H    0.007113
    10  N   -0.291785
    11  C    0.253826
    12  C    0.117593
    13  N   -0.059868
    14  H    0.113225
    15  H    0.081556
    16  H    0.022483
    17  H    0.032823
    18  H    0.025824
    19  N   -0.311965
    20  C    0.248481
    21  C    0.180896
    22  N   -0.120182
    23  H    0.114822
    24  H    0.116277
    25  N   -0.310917
    26  C    0.246255
    27  N   -0.150161
    28  H    0.119457
    29  C    0.194655
    30  O   -0.319914
    31  C   -0.011583
    32  N   -0.224766
    33  C    0.129467
    34  H    0.026313
    35  H    0.028439
    36  H    0.028782
    37  H    0.025223
    38  H    0.060028
    39  H    0.060804
    40  H    0.076984
    41  H    0.033926
    42  C   -0.115740
    43  O   -0.261632
    44  C    0.159233
    45  H    0.132918
    46  N   -0.116719
    47  O   -0.344660
    48  C    0.341222
    49  H    0.047315
    50  C    0.151632
    51  C    0.040132
    52  N   -0.274268
    53  H    0.033544
    54  H    0.043958
    55  H    0.025934
    56  H    0.120850
    57  H    0.114889
    58  N   -0.065321
    59  C    0.096415
    60  C    0.243594
    61  N   -0.268379
    62  H    0.041628
    63  C    0.170127
    64  N   -0.311884
    65  H    0.036013
    66  C    0.138399
    67  N   -0.271107
    68  C    0.028513
    69  C    0.179211
    70  N   -0.312734
 Sum of Mulliken charges =  -0.00000

 Dipole moment (field-independent basis, Debye):
    X=              9.9072    Y=              5.0655    Z=              0.1229  Tot=             11.1278
 Quadrupole moment (field-independent basis, Debye-Ang):
   XX=           -167.1884   YY=           -207.0945   ZZ=           -248.7803
   XY=             -7.8724   XZ=             -3.9538   YZ=              0.2669

 Normal termination of Gaussian 16 at Sat Jan 27 05:20:23 2018.
