 Gaussian 16, Revision A.03,
 Gaussian 16:  EM64L-G16RevA.03 25-Dec-2016

 ---------------------------------------
 #p wb97xd/cc-pvdz sp scf=(maxcycles=20)
 ---------------------------------------

 ------------------
 Base pair stacking
 ------------------
 Symbolic Z-matrix:
 Charge =  0 Multiplicity = 1

                         Standard orientation:
 ---------------------------------------------------------------------
 Center     Atomic      Atomic             Coordinates (Angstroms)
 Number     Number       Type             X           Y           Z
 ---------------------------------------------------------------------
      1          7           0        4.944358   -1.969531   -1.559970
      2          6           0        6.362507   -1.561094   -1.564870
      3          6           0        2.745163   -1.945119   -1.543677
      4          7           0        3.118305   -3.281187   -1.564025
      5          6           0        4.428304   -3.242422   -1.573023
      6          1           0        5.074458   -4.120579   -1.589304
      7          7           0        1.466709    0.036603   -1.508236
      8          6           0        2.629583    0.696384   -1.507971
      9          1           0        2.548053    1.782380   -1.493044
     10          7           0        3.872208    0.218307   -1.523303
     11          6           0        3.859880   -1.124810   -1.540939
     12          6           0        1.488026   -1.314066   -1.526227
     13          7           0        0.328259   -1.974445   -1.526524
     14          1           0        0.296444   -2.974461   -1.539492
     15          1           0       -0.547867   -1.492377   -1.513806
     16          1           0        6.808656   -1.910734   -2.388818
     17          1           0        6.422863   -0.563437   -1.552136
     18          1           0        6.820989   -1.931406   -0.756993
     19          7           0        3.928169    3.257207    0.990732
     20          6           0        2.660738    2.726984    1.013686
     21          6           0        4.263018    4.654316    0.649137
     22          7           0       -0.765828    3.104866    0.592232
     23          1           0       -1.585244    2.537249    0.667076
     24          1           0       -0.898183    4.059729    0.324961
     25          7           0        1.517513    3.387887    0.730315
     26          6           0        0.456022    2.608761    0.838966
     27          7           0        0.507966    1.283540    1.197576
     28          1           0       -0.354730    0.764526    1.255393
     29          6           0        1.673080    0.582996    1.493579
     30          8           0        1.610207   -0.612282    1.806751
     31          6           0        2.821800    1.406818    1.381143
     32          7           0        4.163350    1.114138    1.584787
     33          6           0        4.780186    2.238822    1.342293
     34          1           0        5.859558    2.381183    1.405275
     35          1           0        4.868077    4.668906   -0.146160
     36          1           0        3.423955    5.153691    0.437337
     37          1           0        4.721148    5.088094    1.424229
     38          1           0       -4.917385   -1.418651    0.737109
     39          1           0       -4.978120   -1.225161    2.487397
     40          1           0       -4.100713   -0.054830    1.501569
     41          1           0       -2.131062   -5.086557    2.126138
     42          6           0       -2.072433   -4.004442    2.008554
     43          8           0        0.297657   -3.939959    2.083650
     44          6           0       -0.789285   -3.371417    1.983087
     45          1           0        0.059277   -1.517376    1.807571
     46          7           0       -0.827934   -2.000155    1.830157
     47          8           0       -1.878097   -0.003104    1.572959
     48          6           0       -1.944856   -1.212628    1.704348
     49          1           0       -4.179344   -3.695857    1.901334
     50          6           0       -3.179900   -3.263086    1.888171
     51          6           0       -4.365496   -1.096370    1.607515
     52          7           0       -3.144408   -1.896102    1.738290
     53          1           0       -5.133592    4.408391   -1.584896
     54          1           0       -3.859542    4.137483   -0.602293
     55          1           0       -5.375664    4.112616    0.001722
     56          1           0       -3.251586   -2.766567   -1.793898
     57          1           0       -4.864444   -2.230268   -1.939448
     58          7           0       -3.906028   -2.011453   -1.752988
     59          6           0       -3.518912   -0.767632   -1.462782
     60          6           0       -3.848195    1.557681   -1.080377
     61          7           0       -2.554390    1.822210   -0.834408
     62          1           0       -0.758821    0.838123   -0.744359
     63          6           0       -1.824703    0.712550   -0.929815
     64          7           0       -2.210553   -0.534161   -1.220375
     65          1           0       -7.002088    2.166683   -1.446773
     66          6           0       -6.014955    1.708088   -1.381943
     67          7           0       -5.769618    0.436164   -1.581183
     68          6           0       -4.399404    0.327262   -1.393054
     69          6           0       -4.809519    3.891570   -0.792510
     70          7           0       -4.897665    2.445696   -1.074832
 ---------------------------------------------------------------------

 SCF Done:  E(RwB97XD) =  -2048.73310299     A.U. after   15 cycles

 The electronic state is 1-A.
 Alpha  occ. eigenvalues --  -19.25195 -19.21398 -19.20147 -14.52987 -14.52045
 Alpha  occ. eigenvalues --  -14.49394 -14.48424 -14.48220 -14.47293 -14.46163
 Alpha  occ. eigenvalues --  -14.45855 -14.45081 -14.45057 -14.44765 -14.42925
 Alpha  occ. eigenvalues --  -14.41355 -14.40999 -14.40465 -14.40422 -14.40177
 Alpha  occ. eigenvalues --  -10.44917 -10.40841 -10.40365 -10.39536 -10.38413
 Alpha  occ. eigenvalues --  -10.37884 -10.37714 -10.37482 -10.36751 -10.35514
 Alpha  occ. eigenvalues --  -10.34717 -10.34469 -10.33852 -10.33678 -10.33281
 Alpha  occ. eigenvalues --  -10.32952 -10.32929 -10.32709 -10.30817 -10.30716
 Alpha  occ. eigenvalues --  -10.30266 -10.28229 -10.27544  -1.18970  -1.15741
 Alpha  occ. eigenvalues --   -1.12641  -1.12430  -1.10865  -1.10196  -1.10152
 Alpha  occ. eigenvalues --   -1.08908  -1.07847  -1.05834  -1.04974  -1.01934
 Alpha  occ. eigenvalues --   -1.01531  -1.00493  -0.98750  -0.98003  -0.97678
 Alpha  occ. eigenvalues --   -0.96609  -0.96166  -0.92640  -0.90707  -0.88328
 Alpha  occ. eigenvalues --   -0.86499  -0.83676  -0.83476  -0.83204  -0.82147
 Alpha  occ. eigenvalues --   -0.81868  -0.78486  -0.77762  -0.75759  -0.74130
 Alpha  occ. eigenvalues --   -0.72945  -0.72805  -0.72793  -0.71225  -0.70808
 Alpha  occ. eigenvalues --   -0.67795  -0.66597  -0.66204  -0.66050  -0.65043
 Alpha  occ. eigenvalues --   -0.64051  -0.63378  -0.62663  -0.62431  -0.61228
 Alpha  occ. eigenvalues --   -0.61000  -0.60792  -0.60422  -0.59893  -0.59402
 Alpha  occ. eigenvalues --   -0.59110  -0.57581  -0.56793  -0.56184  -0.55891
 Alpha  occ. eigenvalues --   -0.55785  -0.55711  -0.55588  -0.54824  -0.54416
 Alpha  occ. eigenvalues --   -0.53814  -0.53679  -0.53240  -0.53150  -0.52786
 Alpha  occ. eigenvalues --   -0.52451  -0.51980  -0.51350  -0.50616  -0.50223
 Alpha  occ. eigenvalues --   -0.50004  -0.49774  -0.49666  -0.48953  -0.48812
 Alpha  occ. eigenvalues --   -0.48376  -0.47915  -0.47839  -0.47145  -0.46879
 Alpha  occ. eigenvalues --   -0.46487  -0.45702  -0.45353  -0.44024  -0.43539
 Alpha  occ. eigenvalues --   -0.41577  -0.40972  -0.38918  -0.38429  -0.38286
 Alpha  occ. eigenvalues --   -0.37291  -0.36790  -0.36390  -0.35749  -0.35109
 Alpha  occ. eigenvalues --   -0.34836  -0.33411  -0.33329  -0.32767  -0.32578
 Alpha  occ. eigenvalues --   -0.32181  -0.32012  -0.31615  -0.31457  -0.30849
 Alpha  occ. eigenvalues --   -0.30522  -0.30109  -0.25822  -0.24598
 Alpha virt. eigenvalues --    0.02829   0.03892   0.06033   0.08080   0.08974
 Alpha virt. eigenvalues --    0.09765   0.10097   0.10348   0.11227   0.11282
 Alpha virt. eigenvalues --    0.12827   0.14022   0.14644   0.15285   0.15328

 Mulliken charges:
               1
     1  N   -0.314735
     2  C    0.183911
     3  C    0.049392
     4  N   -0.263941
     5  C    0.139481
     6  H    0.026267
     7  N   -0.292666
     8  C    0.133171
     9  H    0.017270
    10  N   -0.275261
    11  C    0.265118
    12  C    0.099992
    13  N   -0.070009
    14  H    0.106676
    15  H    0.079085
    16  H    0.020918
    17  H    0.034140
    18  H    0.030422
    19  N   -0.307142
    20  C    0.233943
    21  C    0.180626
    22  N   -0.087341
    23  H    0.107532
    24  H    0.108935
    25  N   -0.306776
    26  C    0.217700
    27  N   -0.133971
    28  H    0.112785
    29  C    0.183876
    30  O   -0.323970
    31  C   -0.020943
    32  N   -0.220175
    33  C    0.126804
    34  H    0.020168
    35  H    0.027123
    36  H    0.028133
    37  H    0.023766
    38  H    0.048323
    39  H    0.060813
    40  H    0.076138
    41  H    0.030429
    42  C   -0.113231
    43  O   -0.258706
    44  C    0.179057
    45  H    0.135182
    46  N   -0.130617
    47  O   -0.342744
    48  C    0.353231
    49  H    0.043578
    50  C    0.162219
    51  C    0.043431
    52  N   -0.286782
    53  H    0.036755
    54  H    0.032962
    55  H    0.033867
    56  H    0.118941
    57  H    0.121460
    58  N   -0.060004
    59  C    0.074089
    60  C    0.265327
    61  N   -0.303195
    62  H    0.044964
    63  C    0.187616
    64  N   -0.304880
    65  H    0.040645
    66  C    0.140635
    67  N   -0.258884
    68  C    0.023002
    69  C    0.181559
    70  N   -0.315486
 Sum of Mulliken charges =  -0.00000

 Dipole moment (field-independent basis, Debye):
    X=             -9.6875    Y=              4.7811    Z=             -2.5048  Tot=             11.0897
 Quadrupole moment (field-independent basis, Debye-Ang):
   XX=           -170.8139   YY=           -209.5441   ZZ=           -254.3006
   XY=              8.0590   XZ=            -13.6595   YZ=              8.2003

 Normal termination of Gaussian 16 at Sat Jan 27 06:31:05 2018.
