 Gaussian 16, Revision A.03,
 Gaussian 16:  EM64L-G16RevA.03 25-Dec-2016

 ---------------------------------------
 #p wb97xd/cc-pvdz sp scf=(maxcycles=20)
 ---------------------------------------

 ------------------
 Base pair stacking
 ------------------
 Symbolic Z-matrix:
 Charge =  0 Multiplicity = 1

                         Standard orientation:
 ---------------------------------------------------------------------
 Center     Atomic      Atomic             Coordinates (Angstroms)
 Number     Number       Type             X           Y           Z
 ---------------------------------------------------------------------
      1          7           0        4.622885   -2.055379   -1.695436
      2          6           0        6.044783   -1.664124   -1.751283
      3          6           0        2.425967   -2.004329   -1.604537
      4          7           0        2.782345   -3.344905   -1.628634
      5          6           0        4.091643   -3.321997   -1.682432
      6          1           0        4.726419   -4.207973   -1.714807
      7          7           0        1.173029   -0.007132   -1.538891
      8          6           0        2.342971    0.638548   -1.582571
      9          1           0        2.274869    1.725521   -1.572138
     10          7           0        3.578600    0.145434   -1.636956
     11          6           0        3.549781   -1.197522   -1.645195
     12          6           0        1.177728   -1.358045   -1.548569
     13          7           0        0.010873   -2.004371   -1.505020
     14          1           0       -0.033206   -3.004004   -1.510222
     15          1           0       -0.858537   -1.511705   -1.465737
     16          1           0        6.458419   -2.024285   -2.587570
     17          1           0        6.117352   -0.667207   -1.747275
     18          1           0        6.526111   -2.034855   -0.957010
     19          7           0        4.246080    3.232733    0.815761
     20          6           0        2.973976    2.717997    0.885341
     21          6           0        4.585620    4.623528    0.453651
     22          7           0       -0.460245    3.134548    0.578127
     23          1           0       -1.283311    2.577339    0.684579
     24          1           0       -0.590311    4.089242    0.309137
     25          7           0        1.829667    3.390856    0.636596
     26          6           0        0.763340    2.625293    0.786482
     27          7           0        0.811776    1.301814    1.151956
     28          1           0       -0.054539    0.793625    1.242549
     29          6           0        1.977920    0.589133    1.412844
     30          8           0        1.911589   -0.603310    1.735959
     31          6           0        3.131817    1.398315    1.255921
     32          7           0        4.475967    1.090752    1.415782
     33          6           0        5.097463    2.206363    1.144936
     34          1           0        6.179962    2.336084    1.170236
     35          1           0        5.163345    4.625824   -0.361842
     36          1           0        3.745801    5.131653    0.267172
     37          1           0        5.074997    5.056600    1.209799
     38          1           0       -4.657757   -1.337541    0.894291
     39          1           0       -4.656500   -1.132361    2.644306
     40          1           0       -3.799397    0.021088    1.621416
     41          1           0       -1.869353   -5.030019    2.212266
     42          6           0       -1.801951   -3.949449    2.085528
     43          8           0        0.569919   -3.913101    2.079560
     44          6           0       -0.513007   -3.332127    2.012216
     45          1           0        0.350985   -1.489597    1.795565
     46          7           0       -0.540598   -1.961485    1.851530
     47          8           0       -1.575186    0.046440    1.616852
     48          6           0       -1.651751   -1.161341    1.758514
     49          1           0       -3.907489   -3.616141    2.047952
     50          6           0       -2.904026   -3.195555    1.997919
     51          6           0       -4.072748   -1.016494    1.743268
     52          7           0       -2.857463   -1.830065    1.837790
     53          1           0       -5.373797    4.443407   -1.420283
     54          1           0       -4.070299    4.163324   -0.479786
     55          1           0       -5.565143    4.160536    0.175589
     56          1           0       -3.585136   -2.754899   -1.645217
     57          1           0       -5.195551   -2.200111   -1.739418
     58          7           0       -4.228812   -1.991711   -1.587121
     59          6           0       -3.817323   -0.750856   -1.318562
     60          6           0       -4.105813    1.580615   -0.940727
     61          7           0       -2.801335    1.831060   -0.740670
     62          1           0       -1.015523    0.825952   -0.705151
     63          6           0       -2.088507    0.712088   -0.853420
     64          7           0       -2.498789   -0.531663   -1.122352
     65          1           0       -7.262926    2.225329   -1.203735
     66          6           0       -6.279657    1.755263   -1.169442
     67          7           0       -6.056336    0.479251   -1.368418
     68          6           0       -4.681895    0.355000   -1.226253
     69          6           0       -5.029052    3.927695   -0.635940
     70          7           0       -5.143892    2.481256   -0.905438
 ---------------------------------------------------------------------

 SCF Done:  E(RwB97XD) =  -2048.74153433     A.U. after   15 cycles

 The electronic state is 1-A.
 Alpha  occ. eigenvalues --  -19.25104 -19.21241 -19.20278 -14.52882 -14.51876
 Alpha  occ. eigenvalues --  -14.49446 -14.48544 -14.48251 -14.47153 -14.46266
 Alpha  occ. eigenvalues --  -14.45767 -14.45470 -14.45306 -14.45145 -14.43143
 Alpha  occ. eigenvalues --  -14.41617 -14.41049 -14.40657 -14.40595 -14.40369
 Alpha  occ. eigenvalues --  -10.44780 -10.40859 -10.40615 -10.39378 -10.38314
 Alpha  occ. eigenvalues --  -10.37899 -10.37812 -10.37337 -10.36800 -10.35670
 Alpha  occ. eigenvalues --  -10.34499 -10.34282 -10.33966 -10.33739 -10.33251
 Alpha  occ. eigenvalues --  -10.33100 -10.33050 -10.32818 -10.30819 -10.30667
 Alpha  occ. eigenvalues --  -10.30182 -10.28366 -10.27717  -1.18836  -1.15666
 Alpha  occ. eigenvalues --   -1.12775  -1.12277  -1.10925  -1.10282  -1.10223
 Alpha  occ. eigenvalues --   -1.08749  -1.08025  -1.05833  -1.05150  -1.01787
 Alpha  occ. eigenvalues --   -1.01448  -1.00674  -0.98960  -0.98138  -0.97766
 Alpha  occ. eigenvalues --   -0.96663  -0.96297  -0.92811  -0.90554  -0.88266
 Alpha  occ. eigenvalues --   -0.86379  -0.83820  -0.83561  -0.83054  -0.82255
 Alpha  occ. eigenvalues --   -0.81890  -0.78333  -0.77744  -0.75690  -0.74262
 Alpha  occ. eigenvalues --   -0.73030  -0.72918  -0.72711  -0.71202  -0.70934
 Alpha  occ. eigenvalues --   -0.67730  -0.66752  -0.66316  -0.65956  -0.64985
 Alpha  occ. eigenvalues --   -0.64044  -0.63374  -0.62790  -0.62386  -0.61218
 Alpha  occ. eigenvalues --   -0.61111  -0.60869  -0.60331  -0.59964  -0.59283
 Alpha  occ. eigenvalues --   -0.59002  -0.57632  -0.56877  -0.56300  -0.55900
 Alpha  occ. eigenvalues --   -0.55704  -0.55693  -0.55637  -0.55014  -0.54215
 Alpha  occ. eigenvalues --   -0.53806  -0.53594  -0.53235  -0.53205  -0.52667
 Alpha  occ. eigenvalues --   -0.52572  -0.51869  -0.51382  -0.50600  -0.50369
 Alpha  occ. eigenvalues --   -0.49858  -0.49791  -0.49703  -0.48887  -0.48856
 Alpha  occ. eigenvalues --   -0.48418  -0.47852  -0.47811  -0.47341  -0.46917
 Alpha  occ. eigenvalues --   -0.46671  -0.45752  -0.45368  -0.44201  -0.43355
 Alpha  occ. eigenvalues --   -0.41537  -0.41073  -0.38910  -0.38365  -0.38260
 Alpha  occ. eigenvalues --   -0.37433  -0.36937  -0.36361  -0.35702  -0.35333
 Alpha  occ. eigenvalues --   -0.34866  -0.33864  -0.33372  -0.33016  -0.32576
 Alpha  occ. eigenvalues --   -0.32254  -0.32216  -0.31564  -0.31407  -0.30814
 Alpha  occ. eigenvalues --   -0.30560  -0.30118  -0.26187  -0.24694
 Alpha virt. eigenvalues --    0.03152   0.03788   0.06253   0.07857   0.09107
 Alpha virt. eigenvalues --    0.09570   0.10029   0.10326   0.11171   0.11328
 Alpha virt. eigenvalues --    0.13205   0.14177   0.14585   0.15059   0.15458

 Mulliken charges:
               1
     1  N   -0.314821
     2  C    0.184521
     3  C    0.055836
     4  N   -0.264377
     5  C    0.141840
     6  H    0.027116
     7  N   -0.286071
     8  C    0.118935
     9  H    0.020587
    10  N   -0.268613
    11  C    0.265431
    12  C    0.087511
    13  N   -0.071976
    14  H    0.106734
    15  H    0.081525
    16  H    0.020114
    17  H    0.034865
    18  H    0.031915
    19  N   -0.309076
    20  C    0.235206
    21  C    0.180678
    22  N   -0.100084
    23  H    0.108588
    24  H    0.112056
    25  N   -0.305305
    26  C    0.218744
    27  N   -0.118099
    28  H    0.112042
    29  C    0.166388
    30  O   -0.321316
    31  C    0.001164
    32  N   -0.225601
    33  C    0.124768
    34  H    0.020931
    35  H    0.026892
    36  H    0.028480
    37  H    0.024068
    38  H    0.050263
    39  H    0.058634
    40  H    0.074640
    41  H    0.029745
    42  C   -0.113120
    43  O   -0.258832
    44  C    0.178376
    45  H    0.136486
    46  N   -0.130247
    47  O   -0.343859
    48  C    0.356074
    49  H    0.043028
    50  C    0.161616
    51  C    0.043869
    52  N   -0.285890
    53  H    0.035625
    54  H    0.035278
    55  H    0.033249
    56  H    0.118220
    57  H    0.122215
    58  N   -0.059196
    59  C    0.060664
    60  C    0.254263
    61  N   -0.293872
    62  H    0.018168
    63  C    0.208299
    64  N   -0.306192
    65  H    0.040562
    66  C    0.142147
    67  N   -0.258733
    68  C    0.030220
    69  C    0.181566
    70  N   -0.314866
 Sum of Mulliken charges =  -0.00000

 Dipole moment (field-independent basis, Debye):
    X=             -9.4987    Y=              4.9200    Z=             -2.1746  Tot=             10.9161
 Quadrupole moment (field-independent basis, Debye-Ang):
   XX=           -174.0356   YY=           -209.0915   ZZ=           -253.2798
   XY=              8.9093   XZ=            -16.9804   YZ=              8.0415

 Normal termination of Gaussian 16 at Sat Jan 27 07:17:02 2018.
