 Gaussian 16, Revision A.03,
 Gaussian 16:  EM64L-G16RevA.03 25-Dec-2016

 ---------------------------------------
 #p wb97xd/cc-pvdz sp scf=(maxcycles=20)
 ---------------------------------------

 ------------------
 Base pair stacking
 ------------------
 Symbolic Z-matrix:
 Charge =  0 Multiplicity = 1

                         Standard orientation:
 ---------------------------------------------------------------------
 Center     Atomic      Atomic             Coordinates (Angstroms)
 Number     Number       Type             X           Y           Z
 ---------------------------------------------------------------------
      1          7           0        4.973658   -2.117478   -1.593400
      2          6           0        6.382056   -1.733183   -1.809538
      3          6           0        2.780535   -2.078982   -1.431919
      4          7           0        3.170954   -3.370148   -1.107595
      5          6           0        4.476599   -3.341659   -1.217857
      6          1           0        5.132931   -4.193031   -1.035299
      7          7           0        1.478577   -0.158917   -1.857635
      8          6           0        2.628999    0.469520   -2.120645
      9          1           0        2.532784    1.517512   -2.401208
     10          7           0        3.874568   -0.000022   -2.089282
     11          6           0        3.880743   -1.295375   -1.733658
     12          6           0        1.518399   -1.461775   -1.502587
     13          7           0        0.371088   -2.090823   -1.239637
     14          1           0        0.353101   -3.055123   -0.973133
     15          1           0       -0.509109   -1.619919   -1.300050
     16          1           0        6.776211   -2.299564   -2.533443
     17          1           0        6.428524   -0.771352   -2.077593
     18          1           0        6.899791   -1.867343   -0.964575
     19          7           0        3.874991    3.417852    1.069602
     20          6           0        2.609620    2.891664    1.169743
     21          6           0        4.191578    4.840133    0.829631
     22          7           0       -0.836882    3.318282    1.132786
     23          1           0       -1.651791    2.748582    1.235711
     24          1           0       -0.983252    4.294664    0.971636
     25          7           0        1.452215    3.580000    1.066557
     26          6           0        0.397169    2.797249    1.207338
     27          7           0        0.468018    1.443738    1.432037
     28          1           0       -0.391048    0.924175    1.527051
     29          6           0        1.647969    0.714676    1.541764
     30          8           0        1.601665   -0.504822    1.745298
     31          6           0        2.789979    1.542012    1.392707
     32          7           0        4.141375    1.227217    1.431760
     33          6           0        4.744992    2.368031    1.235819
     34          1           0        5.826960    2.500502    1.203060
     35          1           0        4.714318    4.928630   -0.017552
     36          1           0        3.341894    5.359935    0.751473
     37          1           0        4.730238    5.196688    1.592206
     38          1           0       -5.009732   -1.185941    1.266426
     39          1           0       -4.892918   -1.159955    3.024363
     40          1           0       -4.103716    0.096356    2.070309
     41          1           0       -2.144924   -4.977885    2.015176
     42          6           0       -2.084733   -3.889681    1.995087
     43          8           0        0.281626   -3.839770    1.837109
     44          6           0       -0.802695   -3.260966    1.900599
     45          1           0        0.047325   -1.401200    1.816615
     46          7           0       -0.839183   -1.881257    1.882618
     47          8           0       -1.884604    0.134360    1.922285
     48          6           0       -1.953110   -1.081971    1.944826
     49          1           0       -4.187779   -3.565944    2.130044
     50          6           0       -3.189293   -3.136892    2.057350
     51          6           0       -4.369666   -0.949740    2.103446
     52          7           0       -3.151766   -1.761957    2.034532
     53          1           0       -5.174938    4.052013   -2.682846
     54          1           0       -3.833193    4.057874   -1.754534
     55          1           0       -5.304196    4.208588   -1.063523
     56          1           0       -3.206681   -2.908867   -1.028267
     57          1           0       -4.833373   -2.426182   -1.204251
     58          7           0       -3.867798   -2.168858   -1.152607
     59          6           0       -3.480094   -0.895192   -1.245519
     60          6           0       -3.816620    1.446581   -1.499634
     61          7           0       -2.513090    1.762711   -1.426878
     62          1           0       -0.701336    0.833509   -1.192851
     63          6           0       -1.775414    0.666578   -1.261889
     64          7           0       -2.161845   -0.609964   -1.168592
     65          1           0       -6.996701    1.945317   -1.800461
     66          6           0       -6.000842    1.517924   -1.679920
     67          7           0       -5.751026    0.239432   -1.535939
     68          6           0       -4.369748    0.180354   -1.420575
     69          6           0       -4.790202    3.773431   -1.802862
     70          7           0       -4.876170    2.306393   -1.667221
 ---------------------------------------------------------------------

 SCF Done:  E(RwB97XD) =  -2048.74549992     A.U. after   15 cycles

 The electronic state is 1-A.
 Alpha  occ. eigenvalues --  -19.25500 -19.21778 -19.20502 -14.52487 -14.52245
 Alpha  occ. eigenvalues --  -14.48868 -14.48825 -14.47930 -14.47531 -14.46805
 Alpha  occ. eigenvalues --  -14.46473 -14.45457 -14.44691 -14.44600 -14.42316
 Alpha  occ. eigenvalues --  -14.41962 -14.40881 -14.40575 -14.40315 -14.39930
 Alpha  occ. eigenvalues --  -10.45201 -10.41149 -10.40303 -10.39897 -10.38153
 Alpha  occ. eigenvalues --  -10.38039 -10.37864 -10.37350 -10.35984 -10.35112
 Alpha  occ. eigenvalues --  -10.34907 -10.34342 -10.33926 -10.33326 -10.33311
 Alpha  occ. eigenvalues --  -10.32874 -10.32657 -10.32542 -10.31171 -10.31014
 Alpha  occ. eigenvalues --  -10.30116 -10.28079 -10.27891  -1.19120  -1.15259
 Alpha  occ. eigenvalues --   -1.13120  -1.12777  -1.10576  -1.10550  -1.09656
 Alpha  occ. eigenvalues --   -1.09117  -1.08457  -1.05199  -1.04608  -1.02197
 Alpha  occ. eigenvalues --   -1.01072  -1.00088  -0.99595  -0.98491  -0.97174
 Alpha  occ. eigenvalues --   -0.96601  -0.96248  -0.92299  -0.91030  -0.87754
 Alpha  occ. eigenvalues --   -0.85984  -0.84108  -0.83389  -0.83218  -0.82529
 Alpha  occ. eigenvalues --   -0.81613  -0.78763  -0.77254  -0.75057  -0.74585
 Alpha  occ. eigenvalues --   -0.73533  -0.73123  -0.72421  -0.70689  -0.70460
 Alpha  occ. eigenvalues --   -0.67294  -0.67110  -0.66354  -0.65830  -0.64514
 Alpha  occ. eigenvalues --   -0.64360  -0.63702  -0.62585  -0.62263  -0.61659
 Alpha  occ. eigenvalues --   -0.60775  -0.60377  -0.59972  -0.59465  -0.59399
 Alpha  occ. eigenvalues --   -0.59328  -0.58217  -0.56673  -0.56149  -0.55791
 Alpha  occ. eigenvalues --   -0.55512  -0.55412  -0.55134  -0.54545  -0.54190
 Alpha  occ. eigenvalues --   -0.53864  -0.53586  -0.53462  -0.53036  -0.52951
 Alpha  occ. eigenvalues --   -0.52855  -0.52229  -0.51103  -0.50186  -0.50104
 Alpha  occ. eigenvalues --   -0.49970  -0.49605  -0.49473  -0.49210  -0.48725
 Alpha  occ. eigenvalues --   -0.48427  -0.48239  -0.47987  -0.47685  -0.47211
 Alpha  occ. eigenvalues --   -0.46332  -0.45660  -0.45338  -0.44270  -0.43821
 Alpha  occ. eigenvalues --   -0.40843  -0.40661  -0.39164  -0.37945  -0.37745
 Alpha  occ. eigenvalues --   -0.37227  -0.37214  -0.36457  -0.35568  -0.34976
 Alpha  occ. eigenvalues --   -0.34667  -0.33806  -0.33076  -0.32923  -0.32806
 Alpha  occ. eigenvalues --   -0.32579  -0.32450  -0.31910  -0.31817  -0.30432
 Alpha  occ. eigenvalues --   -0.30288  -0.29904  -0.25493  -0.25273
 Alpha virt. eigenvalues --    0.02720   0.04176   0.06645   0.08479   0.08842
 Alpha virt. eigenvalues --    0.09333   0.09844   0.10509   0.11137   0.11525
 Alpha virt. eigenvalues --    0.12991   0.14362   0.14578   0.14916   0.15070

 Mulliken charges:
               1
     1  N   -0.313355
     2  C    0.183136
     3  C    0.050080
     4  N   -0.256777
     5  C    0.139247
     6  H    0.025500
     7  N   -0.300431
     8  C    0.137676
     9  H    0.009646
    10  N   -0.284078
    11  C    0.261529
    12  C    0.107156
    13  N   -0.069915
    14  H    0.112015
    15  H    0.080523
    16  H    0.021222
    17  H    0.033101
    18  H    0.029103
    19  N   -0.311703
    20  C    0.248956
    21  C    0.180750
    22  N   -0.111481
    23  H    0.113272
    24  H    0.114999
    25  N   -0.311196
    26  C    0.241283
    27  N   -0.147532
    28  H    0.119150
    29  C    0.195110
    30  O   -0.322145
    31  C   -0.015613
    32  N   -0.226261
    33  C    0.128565
    34  H    0.023435
    35  H    0.027798
    36  H    0.028978
    37  H    0.024817
    38  H    0.049482
    39  H    0.060819
    40  H    0.075581
    41  H    0.030831
    42  C   -0.115106
    43  O   -0.256714
    44  C    0.168520
    45  H    0.134135
    46  N   -0.125889
    47  O   -0.347311
    48  C    0.349080
    49  H    0.043413
    50  C    0.155822
    51  C    0.041736
    52  N   -0.280438
    53  H    0.034997
    54  H    0.040106
    55  H    0.029276
    56  H    0.117329
    57  H    0.118480
    58  N   -0.062771
    59  C    0.089026
    60  C    0.248673
    61  N   -0.273554
    62  H    0.038278
    63  C    0.174302
    64  N   -0.314249
    65  H    0.038930
    66  C    0.141359
    67  N   -0.264881
    68  C    0.028735
    69  C    0.179179
    70  N   -0.313731
 Sum of Mulliken charges =  -0.00000

 Dipole moment (field-independent basis, Debye):
    X=             -9.4291    Y=              5.2735    Z=             -0.6522  Tot=             10.8233
 Quadrupole moment (field-independent basis, Debye-Ang):
   XX=           -172.2684   YY=           -206.8447   ZZ=           -250.7374
   XY=              7.6019   XZ=            -12.2356   YZ=              2.2447

 Normal termination of Gaussian 16 at Sat Jan 27 11:01:35 2018.
