 Gaussian 16, Revision A.03,
 Gaussian 16:  EM64L-G16RevA.03 25-Dec-2016

 ---------------------------------------
 #p wb97xd/cc-pvdz sp scf=(maxcycles=20)
 ---------------------------------------

 ------------------
 Base pair stacking
 ------------------
 Symbolic Z-matrix:
 Charge =  0 Multiplicity = 1

                         Standard orientation:
 ---------------------------------------------------------------------
 Center     Atomic      Atomic             Coordinates (Angstroms)
 Number     Number       Type             X           Y           Z
 ---------------------------------------------------------------------
      1          7           0       -6.741103   -1.620191    0.353866
      2          6           0       -8.141324   -1.171874    0.225890
      3          6           0       -4.565060   -1.668172    0.669918
      4          7           0       -4.943669   -2.970589    0.378172
      5          6           0       -6.239495   -2.889546    0.199435
      6          1           0       -6.884979   -3.732454   -0.049140
      7          7           0       -3.286205    0.239891    1.205420
      8          6           0       -4.432093    0.927156    1.158550
      9          1           0       -4.343774    1.993055    1.364266
     10          7           0       -5.664903    0.497437    0.896964
     11          6           0       -5.662182   -0.824526    0.658584
     12          6           0       -3.316824   -1.088405    0.960923
     13          7           0       -2.174014   -1.776162    1.007227
     14          1           0       -2.149580   -2.761177    0.832957
     15          1           0       -1.303786   -1.330521    1.217594
     16          1           0       -8.709697   -1.655201    0.891862
     17          1           0       -8.194002   -0.188246    0.395691
     18          1           0       -8.473058   -1.367316   -0.697021
     19          7           0       -1.898031    3.245842   -1.867824
     20          6           0       -0.669466    2.671783   -1.646187
     21          6           0       -2.184383    4.693830   -1.822682
     22          7           0        2.707130    2.987798   -0.897532
     23          1           0        3.494588    2.384811   -0.772781
     24          1           0        2.866159    3.969675   -0.791036
     25          7           0        0.473357    3.328773   -1.352288
     26          6           0        1.492104    2.502450   -1.194293
     27          7           0        1.400783    1.136906   -1.314507
     28          1           0        2.232222    0.583116   -1.176685
     29          6           0        0.235252    0.439510   -1.616263
     30          8           0        0.260645   -0.794498   -1.701698
     31          6           0       -0.867793    1.313798   -1.788823
     32          7           0       -2.194194    1.040803   -2.093872
     33          6           0       -2.765753    2.213919   -2.130245
     34          1           0       -3.821432    2.383946   -2.344507
     35          1           0       -2.870555    4.877839   -1.119756
     36          1           0       -1.345174    5.190785   -1.605792
     37          1           0       -2.528676    4.995066   -2.711234
     38          1           0        6.573148   -1.642447    0.257148
     39          1           0        6.835678   -1.776646   -1.480004
     40          1           0        5.927268   -0.411906   -0.829115
     41          1           0        3.741494   -5.392594   -0.774698
     42          6           0        3.734896   -4.305867   -0.859643
     43          8           0        1.395177   -4.164611   -1.224151
     44          6           0        2.496580   -3.629777   -1.099010
     45          1           0        1.745793   -1.743651   -1.358171
     46          7           0        2.599871   -2.256315   -1.189492
     47          8           0        3.732719   -0.288201   -1.170322
     48          6           0        3.741303   -1.502917   -1.075196
     49          1           0        5.832183   -4.064620   -0.561320
     50          6           0        4.864800   -3.598451   -0.743526
     51          6           0        6.139581   -1.464623   -0.715707
     52          7           0        4.894592   -2.226884   -0.844979
     53          1           0        3.247070    4.291033    3.099313
     54          1           0        2.136484    4.253919    1.904615
     55          1           0        3.726855    4.291711    1.539430
     56          1           0        1.319117   -2.726131    1.647452
     57          1           0        2.893565   -2.282256    2.131345
     58          7           0        1.975921   -1.999634    1.849792
     59          6           0        1.643878   -0.710933    1.748957
     60          6           0        2.039350    1.632157    1.872470
     61          7           0        0.799554    1.982309    1.492044
     62          1           0       -0.966196    1.094700    0.949007
     63          6           0        0.058275    0.900116    1.263448
     64          7           0        0.389010   -0.391442    1.363875
     65          1           0        5.103456    2.053187    2.813818
     66          6           0        4.135477    1.648998    2.516199
     67          7           0        3.856211    0.371445    2.429312
     68          6           0        2.530209    0.346776    2.022080
     69          6           0        3.045074    3.944279    2.183362
     70          7           0        3.081841    2.468970    2.193350
 ---------------------------------------------------------------------

 SCF Done:  E(RwB97XD) =  -2048.73810760     A.U. after   15 cycles

 The electronic state is 1-A.
 Alpha  occ. eigenvalues --  -19.26141 -19.22448 -19.20810 -14.52784 -14.51543
 Alpha  occ. eigenvalues --  -14.48953 -14.48586 -14.48142 -14.47356 -14.47289
 Alpha  occ. eigenvalues --  -14.47083 -14.44585 -14.43130 -14.42999 -14.42253
 Alpha  occ. eigenvalues --  -14.41966 -14.41269 -14.40952 -14.40654 -14.39900
 Alpha  occ. eigenvalues --  -10.45777 -10.41545 -10.40519 -10.38902 -10.38432
 Alpha  occ. eigenvalues --  -10.38207 -10.37167 -10.36107 -10.35421 -10.35181
 Alpha  occ. eigenvalues --  -10.34553 -10.34491 -10.33929 -10.33413 -10.33351
 Alpha  occ. eigenvalues --  -10.33162 -10.32845 -10.31712 -10.31500 -10.31072
 Alpha  occ. eigenvalues --  -10.30780 -10.28352 -10.28339  -1.19727  -1.14291
 Alpha  occ. eigenvalues --   -1.13460  -1.13433  -1.11166  -1.10779  -1.09667
 Alpha  occ. eigenvalues --   -1.08912  -1.08220  -1.04739  -1.03800  -1.02823
 Alpha  occ. eigenvalues --   -1.00387  -1.00204  -0.99983  -0.98741  -0.96788
 Alpha  occ. eigenvalues --   -0.96759  -0.95741  -0.92386  -0.91426  -0.86712
 Alpha  occ. eigenvalues --   -0.85145  -0.84345  -0.83906  -0.83747  -0.82716
 Alpha  occ. eigenvalues --   -0.82128  -0.79238  -0.76096  -0.74878  -0.74043
 Alpha  occ. eigenvalues --   -0.73756  -0.73679  -0.72696  -0.70838  -0.69509
 Alpha  occ. eigenvalues --   -0.67734  -0.66874  -0.66103  -0.65869  -0.64748
 Alpha  occ. eigenvalues --   -0.64034  -0.63362  -0.62942  -0.62478  -0.62196
 Alpha  occ. eigenvalues --   -0.60066  -0.59927  -0.59839  -0.59658  -0.59205
 Alpha  occ. eigenvalues --   -0.58943  -0.58670  -0.56890  -0.56340  -0.56237
 Alpha  occ. eigenvalues --   -0.56202  -0.55206  -0.55008  -0.54679  -0.54392
 Alpha  occ. eigenvalues --   -0.53915  -0.53665  -0.53199  -0.52875  -0.52677
 Alpha  occ. eigenvalues --   -0.52467  -0.51905  -0.51564  -0.50514  -0.50397
 Alpha  occ. eigenvalues --   -0.49987  -0.49714  -0.49162  -0.49109  -0.48718
 Alpha  occ. eigenvalues --   -0.48590  -0.48490  -0.48373  -0.47914  -0.47621
 Alpha  occ. eigenvalues --   -0.46743  -0.45688  -0.44873  -0.44413  -0.43385
 Alpha  occ. eigenvalues --   -0.40931  -0.39758  -0.39638  -0.37834  -0.37465
 Alpha  occ. eigenvalues --   -0.37049  -0.36958  -0.36520  -0.35701  -0.34610
 Alpha  occ. eigenvalues --   -0.33655  -0.33574  -0.33361  -0.33228  -0.33089
 Alpha  occ. eigenvalues --   -0.32851  -0.32554  -0.32347  -0.31998  -0.30671
 Alpha  occ. eigenvalues --   -0.30134  -0.29017  -0.25697  -0.25532
 Alpha virt. eigenvalues --    0.02663   0.04846   0.07743   0.08168   0.08209
 Alpha virt. eigenvalues --    0.09299   0.09358   0.11084   0.11428   0.12027
 Alpha virt. eigenvalues --    0.12541   0.14109   0.14218   0.14659   0.14964

 Mulliken charges:
               1
     1  N   -0.311229
     2  C    0.181230
     3  C    0.031351
     4  N   -0.259070
     5  C    0.133424
     6  H    0.025861
     7  N   -0.293747
     8  C    0.138210
     9  H    0.006995
    10  N   -0.291188
    11  C    0.244972
    12  C    0.126794
    13  N   -0.056793
    14  H    0.110082
    15  H    0.089556
    16  H    0.024673
    17  H    0.034460
    18  H    0.026010
    19  N   -0.312640
    20  C    0.244764
    21  C    0.182050
    22  N   -0.114401
    23  H    0.117065
    24  H    0.116077
    25  N   -0.292422
    26  C    0.219185
    27  N   -0.120570
    28  H    0.114021
    29  C    0.151483
    30  O   -0.315892
    31  C    0.002621
    32  N   -0.220060
    33  C    0.128841
    34  H    0.030429
    35  H    0.028978
    36  H    0.027581
    37  H    0.025191
    38  H    0.062886
    39  H    0.059281
    40  H    0.076293
    41  H    0.032956
    42  C   -0.111455
    43  O   -0.265900
    44  C    0.160575
    45  H    0.134702
    46  N   -0.128576
    47  O   -0.346121
    48  C    0.354928
    49  H    0.049599
    50  C    0.167866
    51  C    0.043809
    52  N   -0.295231
    53  H    0.033910
    54  H    0.047424
    55  H    0.011313
    56  H    0.128102
    57  H    0.112714
    58  N   -0.069594
    59  C    0.090041
    60  C    0.225360
    61  N   -0.255507
    62  H    0.056737
    63  C    0.152681
    64  N   -0.297848
    65  H    0.030635
    66  C    0.126834
    67  N   -0.266797
    68  C    0.035973
    69  C    0.172739
    70  N   -0.304217
 Sum of Mulliken charges =  -0.00000

 Dipole moment (field-independent basis, Debye):
    X=              9.2777    Y=              4.6720    Z=              1.9437  Tot=             10.5679
 Quadrupole moment (field-independent basis, Debye-Ang):
   XX=           -156.9121   YY=           -209.8214   ZZ=           -251.0035
   XY=             -4.5151   XZ=              8.8133   YZ=             -7.9612

 Normal termination of Gaussian 16 at Sat Jan 27 10:50:33 2018.
