 Gaussian 16, Revision A.03,
 Gaussian 16:  EM64L-G16RevA.03 25-Dec-2016

 ---------------------------------------
 #p wb97xd/cc-pvdz sp scf=(maxcycles=20)
 ---------------------------------------

 ------------------
 Base pair stacking
 ------------------
 Symbolic Z-matrix:
 Charge =  0 Multiplicity = 1

                         Standard orientation:
 ---------------------------------------------------------------------
 Center     Atomic      Atomic             Coordinates (Angstroms)
 Number     Number       Type             X           Y           Z
 ---------------------------------------------------------------------
      1          7           0       -6.246624   -1.697931    0.723746
      2          6           0       -7.653179   -1.251167    0.721602
      3          6           0       -4.054963   -1.755751    0.898655
      4          7           0       -4.447989   -3.031703    0.521532
      5          6           0       -5.752655   -2.945801    0.431252
      6          1           0       -6.410429   -3.769602    0.152654
      7          7           0       -2.749625    0.109967    1.513589
      8          6           0       -3.897838    0.789903    1.596569
      9          1           0       -3.799345    1.835242    1.886106
     10          7           0       -5.143580    0.374395    1.376628
     11          6           0       -5.152632   -0.922621    1.027210
     12          6           0       -2.792328   -1.193098    1.159615
     13          7           0       -1.647228   -1.873506    1.076238
     14          1           0       -1.631422   -2.840045    0.817807
     15          1           0       -0.766605   -1.440580    1.269131
     16          1           0       -8.177583   -1.793429    1.378207
     17          1           0       -7.697463   -0.285864    0.977226
     18          1           0       -8.041578   -1.370421   -0.192139
     19          7           0       -2.454700    3.403375   -1.759318
     20          6           0       -1.218282    2.817472   -1.632752
     21          6           0       -2.724793    4.852934   -1.678478
     22          7           0        2.205966    3.099207   -1.125871
     23          1           0        2.995227    2.488842   -1.064483
     24          1           0        2.380545    4.078596   -1.020803
     25          7           0       -0.051763    3.462354   -1.415015
     26          6           0        0.968683    2.626537   -1.339470
     27          7           0        0.857392    1.263146   -1.467118
     28          1           0        1.691870    0.701488   -1.395344
     29          6           0       -0.332671    0.578116   -1.691479
     30          8           0       -0.323946   -0.655038   -1.791477
     31          6           0       -1.437837    1.462717   -1.774984
     32          7           0       -2.784996    1.203321   -1.986593
     33          6           0       -3.347744    2.381130   -1.969410
     34          1           0       -4.414624    2.561631   -2.105302
     35          1           0       -3.357060    5.034419   -0.926082
     36          1           0       -1.867982    5.340989   -1.517372
     37          1           0       -3.129522    5.166645   -2.536724
     38          1           0        6.105671   -1.573143   -0.301212
     39          1           0        6.241459   -1.690093   -2.054074
     40          1           0        5.393791   -0.325707   -1.325180
     41          1           0        3.175509   -5.289744   -1.165825
     42          6           0        3.172023   -4.202125   -1.238664
     43          8           0        0.813427   -4.038846   -1.432258
     44          6           0        1.925459   -3.513915   -1.381139
     45          1           0        1.173977   -1.619319   -1.565757
     46          7           0        2.033594   -2.140379   -1.464403
     47          8           0        3.181510   -0.181357   -1.506186
     48          6           0        3.186638   -1.397090   -1.424677
     49          1           0        5.287293   -3.980322   -1.089598
     50          6           0        4.313296   -3.504737   -1.196778
     51          6           0        5.604794   -1.381212   -1.238408
     52          7           0        4.347323   -2.132406   -1.285700
     53          1           0        3.879756    4.036516    3.334507
     54          1           0        2.696627    4.092039    2.212341
     55          1           0        4.260922    4.172780    1.753498
     56          1           0        1.881379   -2.847351    1.415051
     57          1           0        3.481980   -2.433901    1.836022
     58          7           0        2.547840   -2.135544    1.637086
     59          6           0        2.207067   -0.845513    1.666827
     60          6           0        2.603912    1.481708    1.963916
     61          7           0        1.341902    1.853242    1.692423
     62          1           0       -0.452261    1.001182    1.186873
     63          6           0        0.590343    0.788583    1.419338
     64          7           0        0.929791   -0.504250    1.389036
     65          1           0        5.719943    1.845161    2.745223
     66          6           0        4.736192    1.460154    2.475151
     67          7           0        4.455077    0.192415    2.297689
     68          6           0        3.106237    0.192092    1.973083
     69          6           0        3.621629    3.766924    2.406771
     70          7           0        3.662462    2.296365    2.289210
 ---------------------------------------------------------------------

 SCF Done:  E(RwB97XD) =  -2048.74303127     A.U. after   15 cycles

 The electronic state is 1-A.
 Alpha  occ. eigenvalues --  -19.26178 -19.22502 -19.20768 -14.52783 -14.51925
 Alpha  occ. eigenvalues --  -14.48897 -14.48226 -14.48104 -14.47890 -14.47088
 Alpha  occ. eigenvalues --  -14.47026 -14.44958 -14.43661 -14.43554 -14.42208
 Alpha  occ. eigenvalues --  -14.41685 -14.40902 -14.40879 -14.40304 -14.39624
 Alpha  occ. eigenvalues --  -10.45792 -10.41418 -10.40554 -10.39390 -10.38363
 Alpha  occ. eigenvalues --  -10.38277 -10.37493 -10.36555 -10.35333 -10.35054
 Alpha  occ. eigenvalues --  -10.34859 -10.34488 -10.33557 -10.33551 -10.33350
 Alpha  occ. eigenvalues --  -10.32791 -10.32521 -10.32089 -10.31591 -10.31048
 Alpha  occ. eigenvalues --  -10.30502 -10.28240 -10.27960  -1.19742  -1.14635
 Alpha  occ. eigenvalues --   -1.13481  -1.13372  -1.10794  -1.10712  -1.09680
 Alpha  occ. eigenvalues --   -1.08789  -1.08699  -1.04424  -1.04292  -1.02810
 Alpha  occ. eigenvalues --   -1.00477  -1.00022  -0.99867  -0.98696  -0.96703
 Alpha  occ. eigenvalues --   -0.96483  -0.96178  -0.92072  -0.91479  -0.87068
 Alpha  occ. eigenvalues --   -0.85445  -0.84251  -0.83863  -0.83402  -0.82642
 Alpha  occ. eigenvalues --   -0.81802  -0.79267  -0.76511  -0.74784  -0.74214
 Alpha  occ. eigenvalues --   -0.73882  -0.73671  -0.72368  -0.70500  -0.69926
 Alpha  occ. eigenvalues --   -0.67589  -0.66858  -0.66323  -0.65775  -0.64729
 Alpha  occ. eigenvalues --   -0.63980  -0.63793  -0.62875  -0.62166  -0.61961
 Alpha  occ. eigenvalues --   -0.60138  -0.60011  -0.59907  -0.59829  -0.59271
 Alpha  occ. eigenvalues --   -0.58975  -0.58647  -0.56783  -0.56237  -0.56071
 Alpha  occ. eigenvalues --   -0.55881  -0.54993  -0.54813  -0.54703  -0.54557
 Alpha  occ. eigenvalues --   -0.53863  -0.53700  -0.53171  -0.53146  -0.52965
 Alpha  occ. eigenvalues --   -0.52644  -0.52255  -0.51277  -0.50357  -0.50178
 Alpha  occ. eigenvalues --   -0.49721  -0.49695  -0.49276  -0.49106  -0.48838
 Alpha  occ. eigenvalues --   -0.48504  -0.48429  -0.48313  -0.47958  -0.47560
 Alpha  occ. eigenvalues --   -0.46409  -0.45746  -0.44516  -0.44356  -0.44229
 Alpha  occ. eigenvalues --   -0.40562  -0.40102  -0.39701  -0.37614  -0.37411
 Alpha  occ. eigenvalues --   -0.37318  -0.36926  -0.36603  -0.36045  -0.34584
 Alpha  occ. eigenvalues --   -0.33983  -0.33683  -0.33537  -0.33019  -0.32935
 Alpha  occ. eigenvalues --   -0.32707  -0.32503  -0.32392  -0.31934  -0.30328
 Alpha  occ. eigenvalues --   -0.29858  -0.29475  -0.25731  -0.25090
 Alpha virt. eigenvalues --    0.02533   0.04576   0.07675   0.08135   0.08589
 Alpha virt. eigenvalues --    0.09040   0.09508   0.11072   0.11565   0.11672
 Alpha virt. eigenvalues --    0.12211   0.14030   0.14347   0.14867   0.15027

 Mulliken charges:
               1
     1  N   -0.311889
     2  C    0.181491
     3  C    0.036164
     4  N   -0.258339
     5  C    0.133509
     6  H    0.024741
     7  N   -0.297351
     8  C    0.142643
     9  H    0.006676
    10  N   -0.292731
    11  C    0.249066
    12  C    0.124051
    13  N   -0.056228
    14  H    0.111888
    15  H    0.086287
    16  H    0.023685
    17  H    0.033461
    18  H    0.025802
    19  N   -0.312765
    20  C    0.248224
    21  C    0.181324
    22  N   -0.115086
    23  H    0.115766
    24  H    0.114815
    25  N   -0.304833
    26  C    0.234227
    27  N   -0.135384
    28  H    0.113040
    29  C    0.169430
    30  O   -0.317503
    31  C    0.001195
    32  N   -0.223557
    33  C    0.128942
    34  H    0.028237
    35  H    0.028619
    36  H    0.028211
    37  H    0.025115
    38  H    0.063069
    39  H    0.059071
    40  H    0.076523
    41  H    0.033090
    42  C   -0.109321
    43  O   -0.262458
    44  C    0.151645
    45  H    0.134472
    46  N   -0.122029
    47  O   -0.345234
    48  C    0.347843
    49  H    0.049188
    50  C    0.159760
    51  C    0.042520
    52  N   -0.287162
    53  H    0.033870
    54  H    0.044864
    55  H    0.021541
    56  H    0.128018
    57  H    0.114680
    58  N   -0.070763
    59  C    0.084602
    60  C    0.229484
    61  N   -0.259626
    62  H    0.043899
    63  C    0.166583
    64  N   -0.304690
    65  H    0.034029
    66  C    0.135003
    67  N   -0.269968
    68  C    0.042062
    69  C    0.176554
    70  N   -0.312059
 Sum of Mulliken charges =  -0.00000

 Dipole moment (field-independent basis, Debye):
    X=              9.6616    Y=              4.7970    Z=              1.3180  Tot=             10.8671
 Quadrupole moment (field-independent basis, Debye-Ang):
   XX=           -162.0547   YY=           -208.1786   ZZ=           -251.0287
   XY=             -6.7345   XZ=              3.0056   YZ=             -5.0331

 Normal termination of Gaussian 16 at Fri Jan 26 21:01:49 2018.
