 Gaussian 16, Revision A.03,
 Gaussian 16:  EM64L-G16RevA.03 25-Dec-2016

 ---------------------------------------
 #p wb97xd/cc-pvdz sp scf=(maxcycles=20)
 ---------------------------------------

 ------------------
 Base pair stacking
 ------------------
 Symbolic Z-matrix:
 Charge =  0 Multiplicity = 1

                         Standard orientation:
 ---------------------------------------------------------------------
 Center     Atomic      Atomic             Coordinates (Angstroms)
 Number     Number       Type             X           Y           Z
 ---------------------------------------------------------------------
      1          7           0        4.265791   -2.392141   -1.894275
      2          6           0        5.659288   -2.080631   -2.267267
      3          6           0        2.100371   -2.254803   -1.534543
      4          7           0        2.476806   -3.534374   -1.152817
      5          6           0        3.766329   -3.565908   -1.384820
      6          1           0        4.408454   -4.427769   -1.200987
      7          7           0        0.828219   -0.319186   -1.979462
      8          6           0        1.968683    0.242669   -2.393303
      9          1           0        1.881053    1.271212   -2.740672
     10          7           0        3.195370   -0.272848   -2.442224
     11          6           0        3.192329   -1.539032   -1.993680
     12          6           0        0.858360   -1.594237   -1.534039
     13          7           0       -0.279034   -2.156827   -1.120518
     14          1           0       -0.303579   -3.098387   -0.782773
     15          1           0       -1.144901   -1.656597   -1.134227
     16          1           0        5.963998   -2.712032   -2.980472
     17          1           0        5.711951   -1.142775   -2.608997
     18          1           0        6.250117   -2.175300   -1.466047
     19          7           0        4.564793    3.337309    0.663648
     20          6           0        3.294677    2.863338    0.887733
     21          6           0        4.915053    4.746483    0.394863
     22          7           0       -0.117936    3.432105    1.191517
     23          1           0       -0.941723    2.896030    1.373878
     24          1           0       -0.238752    4.414482    1.046472
     25          7           0        2.162362    3.599383    0.899914
     26          6           0        1.094704    2.860182    1.143449
     27          7           0        1.131001    1.503801    1.358850
     28          1           0        0.264638    1.019692    1.537738
     29          6           0        2.284685    0.726095    1.350937
     30          8           0        2.207995   -0.491451    1.556963
     31          6           0        3.439848    1.506295    1.090608
     32          7           0        4.774247    1.135766    0.995803
     33          6           0        5.402532    2.251645    0.742256
     34          1           0        6.480559    2.339481    0.602970
     35          1           0        5.354957    4.817535   -0.499702
     36          1           0        4.084167    5.301324    0.401416
     37          1           0        5.540629    5.076683    1.100858
     38          1           0       -4.440980   -0.896569    1.732410
     39          1           0       -4.150459   -0.884190    3.470249
     40          1           0       -3.407591    0.343189    2.444070
     41          1           0       -1.676498   -4.807269    2.191367
     42          6           0       -1.573382   -3.722384    2.166404
     43          8           0        0.765896   -3.769455    1.775660
     44          6           0       -0.281871   -3.146700    1.946388
     45          1           0        0.632338   -1.323219    1.780560
     46          7           0       -0.262549   -1.766587    1.933325
     47          8           0       -1.214235    0.290268    2.077772
     48          6           0       -1.330702   -0.922299    2.105881
     49          1           0       -3.637589   -3.312755    2.508567
     50          6           0       -2.634151   -2.924953    2.338051
     51          6           0       -3.712257   -0.691169    2.502366
     52          7           0       -2.541919   -1.552642    2.312854
     53          1           0       -5.730414    4.085185   -2.497311
     54          1           0       -4.307180    4.103058   -1.699692
     55          1           0       -5.700191    4.360841   -0.889049
     56          1           0       -3.845729   -2.814384   -0.520067
     57          1           0       -5.464899   -2.280781   -0.580564
     58          7           0       -4.490788   -2.059210   -0.637391
     59          6           0       -4.071669   -0.811795   -0.859794
     60          6           0       -4.353017    1.517735   -1.254617
     61          7           0       -3.038710    1.785913   -1.326007
     62          1           0       -1.244714    0.803992   -1.191851
     63          6           0       -2.325430    0.675607   -1.148981
     64          7           0       -2.743341   -0.574700   -0.926110
     65          1           0       -7.529024    2.120526   -1.297011
     66          6           0       -6.540926    1.663305   -1.237478
     67          7           0       -6.321070    0.389232   -1.022811
     68          6           0       -4.937791    0.283352   -1.031264
     69          6           0       -5.273361    3.854344   -1.638345
     70          7           0       -5.394628    2.405161   -1.387027
 ---------------------------------------------------------------------

 SCF Done:  E(RwB97XD) =  -2048.74137681     A.U. after   15 cycles

 The electronic state is 1-A.
 Alpha  occ. eigenvalues --  -19.25340 -19.21454 -19.20641 -14.52418 -14.51986
 Alpha  occ. eigenvalues --  -14.49067 -14.49000 -14.47831 -14.47217 -14.46883
 Alpha  occ. eigenvalues --  -14.46676 -14.45365 -14.44891 -14.44654 -14.42730
 Alpha  occ. eigenvalues --  -14.42114 -14.41116 -14.40498 -14.40446 -14.40187
 Alpha  occ. eigenvalues --  -10.44953 -10.41300 -10.40426 -10.39527 -10.38279
 Alpha  occ. eigenvalues --  -10.37969 -10.37636 -10.37369 -10.36099 -10.35338
 Alpha  occ. eigenvalues --  -10.34609 -10.34506 -10.33794 -10.33545 -10.33221
 Alpha  occ. eigenvalues --  -10.32905 -10.32707 -10.32681 -10.31152 -10.30941
 Alpha  occ. eigenvalues --  -10.29874 -10.28258 -10.27986  -1.18891  -1.15221
 Alpha  occ. eigenvalues --   -1.13258  -1.12457  -1.10741  -1.10504  -1.09793
 Alpha  occ. eigenvalues --   -1.08868  -1.08601  -1.05307  -1.04840  -1.01904
 Alpha  occ. eigenvalues --   -1.01030  -1.00349  -0.99771  -0.98634  -0.97280
 Alpha  occ. eigenvalues --   -0.96772  -0.96205  -0.92533  -0.90781  -0.87764
 Alpha  occ. eigenvalues --   -0.85916  -0.84284  -0.83212  -0.83135  -0.82674
 Alpha  occ. eigenvalues --   -0.81534  -0.78521  -0.77313  -0.75101  -0.74737
 Alpha  occ. eigenvalues --   -0.73673  -0.72865  -0.72535  -0.70749  -0.70560
 Alpha  occ. eigenvalues --   -0.67442  -0.67167  -0.66146  -0.65939  -0.64534
 Alpha  occ. eigenvalues --   -0.64397  -0.63592  -0.62638  -0.62431  -0.61827
 Alpha  occ. eigenvalues --   -0.60824  -0.60433  -0.59787  -0.59521  -0.59233
 Alpha  occ. eigenvalues --   -0.59117  -0.58380  -0.56811  -0.56246  -0.55711
 Alpha  occ. eigenvalues --   -0.55472  -0.55340  -0.55254  -0.54735  -0.54185
 Alpha  occ. eigenvalues --   -0.53787  -0.53577  -0.53484  -0.53024  -0.52932
 Alpha  occ. eigenvalues --   -0.52696  -0.52013  -0.51035  -0.50286  -0.50145
 Alpha  occ. eigenvalues --   -0.49987  -0.49633  -0.49389  -0.49062  -0.48778
 Alpha  occ. eigenvalues --   -0.48476  -0.48113  -0.47912  -0.47704  -0.47193
 Alpha  occ. eigenvalues --   -0.46370  -0.45620  -0.45339  -0.44582  -0.43582
 Alpha  occ. eigenvalues --   -0.40847  -0.40799  -0.39045  -0.38035  -0.37798
 Alpha  occ. eigenvalues --   -0.37408  -0.37338  -0.36499  -0.35382  -0.35053
 Alpha  occ. eigenvalues --   -0.34685  -0.34072  -0.33022  -0.32940  -0.32900
 Alpha  occ. eigenvalues --   -0.32655  -0.32422  -0.31939  -0.31528  -0.30508
 Alpha  occ. eigenvalues --   -0.30315  -0.29983  -0.25868  -0.25275
 Alpha virt. eigenvalues --    0.03137   0.03929   0.06759   0.08369   0.08894
 Alpha virt. eigenvalues --    0.09246   0.09711   0.10490   0.11148   0.11355
 Alpha virt. eigenvalues --    0.13728   0.14385   0.14597   0.14784   0.15111

 Mulliken charges:
               1
     1  N   -0.313354
     2  C    0.183847
     3  C    0.056254
     4  N   -0.252126
     5  C    0.143326
     6  H    0.026713
     7  N   -0.298103
     8  C    0.132491
     9  H    0.011020
    10  N   -0.280730
    11  C    0.262934
    12  C    0.088333
    13  N   -0.070922
    14  H    0.111292
    15  H    0.083190
    16  H    0.019742
    17  H    0.033637
    18  H    0.032307
    19  N   -0.311388
    20  C    0.249089
    21  C    0.180826
    22  N   -0.122246
    23  H    0.118708
    24  H    0.117496
    25  N   -0.312372
    26  C    0.248853
    27  N   -0.147932
    28  H    0.120123
    29  C    0.191996
    30  O   -0.321228
    31  C   -0.011738
    32  N   -0.230235
    33  C    0.126189
    34  H    0.023910
    35  H    0.027494
    36  H    0.029634
    37  H    0.025306
    38  H    0.050585
    39  H    0.058211
    40  H    0.075005
    41  H    0.029547
    42  C   -0.112311
    43  O   -0.246145
    44  C    0.150260
    45  H    0.137174
    46  N   -0.121628
    47  O   -0.351664
    48  C    0.353864
    49  H    0.041719
    50  C    0.155963
    51  C    0.042245
    52  N   -0.282693
    53  H    0.034155
    54  H    0.041100
    55  H    0.029949
    56  H    0.116463
    57  H    0.120932
    58  N   -0.068352
    59  C    0.086423
    60  C    0.249207
    61  N   -0.274742
    62  H    0.035090
    63  C    0.180406
    64  N   -0.316581
    65  H    0.039257
    66  C    0.143724
    67  N   -0.262564
    68  C    0.026143
    69  C    0.180001
    70  N   -0.313078
 Sum of Mulliken charges =  -0.00000

 Dipole moment (field-independent basis, Debye):
    X=             -9.0551    Y=              5.6979    Z=              0.2453  Tot=             10.7014
 Quadrupole moment (field-independent basis, Debye-Ang):
   XX=           -178.8845   YY=           -206.0908   ZZ=           -247.5431
   XY=              7.7258   XZ=            -17.7627   YZ=              0.3494

 Normal termination of Gaussian 16 at Sat Jan 27 00:11:46 2018.
