 Gaussian 16, Revision A.03,
 Gaussian 16:  EM64L-G16RevA.03 25-Dec-2016

 ---------------------------------------
 #p wb97xd/cc-pvdz sp scf=(maxcycles=20)
 ---------------------------------------

 ------------------
 Base pair stacking
 ------------------
 Symbolic Z-matrix:
 Charge =  0 Multiplicity = 1

                         Standard orientation:
 ---------------------------------------------------------------------
 Center     Atomic      Atomic             Coordinates (Angstroms)
 Number     Number       Type             X           Y           Z
 ---------------------------------------------------------------------
      1          7           0       -5.982609   -1.789998    0.920257
      2          6           0       -7.391397   -1.360327    1.013485
      3          6           0       -3.784978   -1.836261    0.995058
      4          7           0       -4.184082   -3.083934    0.538161
      5          6           0       -5.492099   -3.006123    0.511384
      6          1           0       -6.154949   -3.813555    0.198926
      7          7           0       -2.468676   -0.008482    1.694726
      8          6           0       -3.617483    0.650077    1.879520
      9          1           0       -3.514646    1.671209    2.244170
     10          7           0       -4.868359    0.238568    1.682409
     11          6           0       -4.882507   -1.027890    1.234849
     12          6           0       -2.516580   -1.280995    1.243626
     13          7           0       -1.370896   -1.940020    1.058548
     14          1           0       -1.358809   -2.883681    0.725999
     15          1           0       -0.486096   -1.513201    1.245868
     16          1           0       -7.882021   -1.957193    1.648469
     17          1           0       -7.432047   -0.417996    1.344371
     18          1           0       -7.818726   -1.413618    0.110964
     19          7           0       -2.749118    3.500386   -1.647617
     20          6           0       -1.507920    2.913819   -1.589139
     21          6           0       -3.013864    4.949812   -1.548705
     22          7           0        1.938736    3.193319   -1.266275
     23          1           0        2.729901    2.582583   -1.248921
     24          1           0        2.119111    4.172383   -1.168267
     25          7           0       -0.331116    3.557827   -1.432768
     26          6           0        0.691569    2.721530   -1.414278
     27          7           0        0.573013    1.358508   -1.539210
     28          1           0        1.409917    0.796436   -1.513792
     29          6           0       -0.627668    0.674382   -1.701034
     30          8           0       -0.624834   -0.558512   -1.804480
     31          6           0       -1.735361    1.559496   -1.722803
     32          7           0       -3.092050    1.301014   -1.862381
     33          6           0       -3.652576    2.478926   -1.811990
     34          1           0       -4.725140    2.660068   -1.889915
     35          1           0       -3.604729    5.129550   -0.762968
     36          1           0       -2.149442    5.437214   -1.432635
     37          1           0       -3.464012    5.265814   -2.383168
     38          1           0        5.875191   -1.482185   -0.664166
     39          1           0        5.916553   -1.594709   -2.422077
     40          1           0        5.109838   -0.231952   -1.645238
     41          1           0        2.901272   -5.195766   -1.379476
     42          6           0        2.894319   -4.107970   -1.449268
     43          8           0        0.528795   -3.943542   -1.515450
     44          6           0        1.642191   -3.419058   -1.522821
     45          1           0        0.882654   -1.523790   -1.662003
     46          7           0        1.746267   -2.045330   -1.608301
     47          8           0        2.891086   -0.086536   -1.706754
     48          6           0        2.900075   -1.302468   -1.628712
     49          1           0        5.014642   -3.887130   -1.413522
     50          6           0        4.036486   -3.411009   -1.467003
     51          6           0        5.324748   -1.287737   -1.572604
     52          7           0        4.066258   -2.038459   -1.554161
     53          1           0        4.203089    3.841791    3.523702
     54          1           0        2.971258    3.969719    2.461483
     55          1           0        4.513121    4.103064    1.942863
     56          1           0        2.176849   -2.896977    1.168118
     57          1           0        3.791109   -2.498908    1.549933
     58          7           0        2.846764   -2.196778    1.415230
     59          6           0        2.497396   -0.916754    1.558992
     60          6           0        2.888438    1.385208    2.016983
     61          7           0        1.612777    1.762150    1.829852
     62          1           0       -0.195102    0.931083    1.338390
     63          6           0        0.858392    0.713108    1.508401
     64          7           0        1.206443   -0.569690    1.363921
     65          1           0        6.032886    1.722973    2.688206
     66          6           0        5.041274    1.348688    2.432160
     67          7           0        4.762704    0.095172    2.169918
     68          6           0        3.400913    0.104451    1.905009
     69          6           0        3.906486    3.641151    2.590024
     70          7           0        3.953777    2.184484    2.357883
 ---------------------------------------------------------------------

 SCF Done:  E(RwB97XD) =  -2048.74341492     A.U. after   15 cycles

 The electronic state is 1-A.
 Alpha  occ. eigenvalues --  -19.26195 -19.22589 -19.20756 -14.52808 -14.52005
 Alpha  occ. eigenvalues --  -14.48908 -14.48188 -14.48092 -14.48023 -14.47118
 Alpha  occ. eigenvalues --  -14.46961 -14.45061 -14.43861 -14.43777 -14.42201
 Alpha  occ. eigenvalues --  -14.41506 -14.40922 -14.40655 -14.40128 -14.39500
 Alpha  occ. eigenvalues --  -10.45828 -10.41420 -10.40649 -10.39555 -10.38371
 Alpha  occ. eigenvalues --  -10.38358 -10.37588 -10.36701 -10.35362 -10.35211
 Alpha  occ. eigenvalues --  -10.34689 -10.34477 -10.33548 -10.33372 -10.33348
 Alpha  occ. eigenvalues --  -10.32594 -10.32356 -10.32233 -10.31691 -10.31063
 Alpha  occ. eigenvalues --  -10.30338 -10.28231 -10.27760  -1.19770  -1.14737
 Alpha  occ. eigenvalues --   -1.13561  -1.13362  -1.10715  -1.10588  -1.09728
 Alpha  occ. eigenvalues --   -1.08916  -1.08733  -1.04482  -1.04247  -1.02874
 Alpha  occ. eigenvalues --   -1.00577  -0.99981  -0.99684  -0.98699  -0.96715
 Alpha  occ. eigenvalues --   -0.96468  -0.96166  -0.91914  -0.91574  -0.87175
 Alpha  occ. eigenvalues --   -0.85506  -0.84252  -0.83905  -0.83213  -0.82646
 Alpha  occ. eigenvalues --   -0.81621  -0.79339  -0.76643  -0.74782  -0.74360
 Alpha  occ. eigenvalues --   -0.73879  -0.73716  -0.72192  -0.70328  -0.70049
 Alpha  occ. eigenvalues --   -0.67580  -0.66912  -0.66474  -0.65592  -0.64777
 Alpha  occ. eigenvalues --   -0.64000  -0.63924  -0.62870  -0.61986  -0.61935
 Alpha  occ. eigenvalues --   -0.60279  -0.60088  -0.59921  -0.59839  -0.59272
 Alpha  occ. eigenvalues --   -0.58994  -0.58609  -0.56763  -0.56262  -0.55918
 Alpha  occ. eigenvalues --   -0.55697  -0.54946  -0.54765  -0.54683  -0.54435
 Alpha  occ. eigenvalues --   -0.53877  -0.53668  -0.53338  -0.53165  -0.53097
 Alpha  occ. eigenvalues --   -0.52702  -0.52369  -0.51111  -0.50379  -0.50002
 Alpha  occ. eigenvalues --   -0.49777  -0.49580  -0.49316  -0.49150  -0.49008
 Alpha  occ. eigenvalues --   -0.48489  -0.48420  -0.48175  -0.47896  -0.47562
 Alpha  occ. eigenvalues --   -0.46236  -0.45761  -0.44736  -0.44335  -0.44259
 Alpha  occ. eigenvalues --   -0.40372  -0.40224  -0.39724  -0.37538  -0.37423
 Alpha  occ. eigenvalues --   -0.37398  -0.37079  -0.36407  -0.36162  -0.34658
 Alpha  occ. eigenvalues --   -0.34053  -0.33811  -0.33628  -0.32906  -0.32793
 Alpha  occ. eigenvalues --   -0.32691  -0.32523  -0.32386  -0.31955  -0.30176
 Alpha  occ. eigenvalues --   -0.29750  -0.29632  -0.25722  -0.24903
 Alpha virt. eigenvalues --    0.02360   0.04441   0.07624   0.07966   0.08742
 Alpha virt. eigenvalues --    0.09108   0.09580   0.10970   0.11432   0.11815
 Alpha virt. eigenvalues --    0.12413   0.14097   0.14391   0.15036   0.15049

 Mulliken charges:
               1
     1  N   -0.312158
     2  C    0.181644
     3  C    0.038581
     4  N   -0.257196
     5  C    0.133758
     6  H    0.024177
     7  N   -0.299274
     8  C    0.142542
     9  H    0.006881
    10  N   -0.292491
    11  C    0.251455
    12  C    0.120992
    13  N   -0.057474
    14  H    0.113220
    15  H    0.083579
    16  H    0.023105
    17  H    0.033082
    18  H    0.025720
    19  N   -0.312388
    20  C    0.248532
    21  C    0.181059
    22  N   -0.117406
    23  H    0.115110
    24  H    0.115147
    25  N   -0.309110
    26  C    0.241479
    27  N   -0.144194
    28  H    0.116677
    29  C    0.184085
    30  O   -0.319102
    31  C   -0.006033
    32  N   -0.224387
    33  C    0.129580
    34  H    0.027186
    35  H    0.028542
    36  H    0.028499
    37  H    0.025134
    38  H    0.062095
    39  H    0.059804
    40  H    0.076707
    41  H    0.033427
    42  C   -0.111027
    43  O   -0.261765
    44  C    0.151930
    45  H    0.133962
    46  N   -0.118484
    47  O   -0.344520
    48  C    0.342554
    49  H    0.048472
    50  C    0.155641
    51  C    0.041274
    52  N   -0.280636
    53  H    0.033689
    54  H    0.044213
    55  H    0.024236
    56  H    0.125630
    57  H    0.115364
    58  N   -0.068950
    59  C    0.089412
    60  C    0.237856
    61  N   -0.264452
    62  H    0.041929
    63  C    0.168032
    64  N   -0.307626
    65  H    0.035168
    66  C    0.136987
    67  N   -0.271183
    68  C    0.036057
    69  C    0.178490
    70  N   -0.312840
 Sum of Mulliken charges =  -0.00000

 Dipole moment (field-independent basis, Debye):
    X=              9.8436    Y=              4.9030    Z=              0.7546  Tot=             11.0230
 Quadrupole moment (field-independent basis, Debye-Ang):
   XX=           -164.5305   YY=           -207.4764   ZZ=           -250.1645
   XY=             -7.5031   XZ=             -0.3031   YZ=             -2.5148

 Normal termination of Gaussian 16 at Sat Jan 27 00:34:27 2018.
