 Gaussian 16, Revision A.03,
 Gaussian 16:  EM64L-G16RevA.03 25-Dec-2016

 ---------------------------------------
 #p wb97xd/cc-pvdz sp scf=(maxcycles=20)
 ---------------------------------------

 ------------------
 Base pair stacking
 ------------------
 Symbolic Z-matrix:
 Charge =  0 Multiplicity = 1

                         Standard orientation:
 ---------------------------------------------------------------------
 Center     Atomic      Atomic             Coordinates (Angstroms)
 Number     Number       Type             X           Y           Z
 ---------------------------------------------------------------------
      1          7           0       -6.964486   -1.617296    0.212486
      2          6           0       -8.359193   -1.175039    0.019631
      3          6           0       -4.797820   -1.649865    0.589059
      4          7           0       -5.173179   -2.967082    0.368218
      5          6           0       -6.463498   -2.894734    0.150182
      6          1           0       -7.105156   -3.750144   -0.063096
      7          7           0       -3.526831    0.285165    1.039828
      8          6           0       -4.668594    0.970438    0.919974
      9          1           0       -4.581961    2.046843    1.061793
     10          7           0       -5.895538    0.527760    0.652475
     11          6           0       -5.891207   -0.806414    0.496308
     12          6           0       -3.555689   -1.055629    0.877055
     13          7           0       -2.416984   -1.741425    0.996308
     14          1           0       -2.391461   -2.735371    0.883880
     15          1           0       -1.551075   -1.285315    1.201991
     16          1           0       -8.946812   -1.615189    0.698704
     17          1           0       -8.412845   -0.182702    0.126937
     18          1           0       -8.666946   -1.426497   -0.898009
     19          7           0       -1.665946    3.159959   -1.853049
     20          6           0       -0.438673    2.598688   -1.594528
     21          6           0       -1.972292    4.603644   -1.801781
     22          7           0        2.905087    2.947935   -0.723314
     23          1           0        3.695344    2.353379   -0.577563
     24          1           0        3.047632    3.930410   -0.600227
     25          7           0        0.684531    3.266365   -1.252989
     26          6           0        1.707621    2.451008   -1.068339
     27          7           0        1.638150    1.085924   -1.207061
     28          1           0        2.471256    0.540958   -1.046130
     29          6           0        0.493048    0.377656   -1.557699
     30          8           0        0.537291   -0.854868   -1.656073
     31          6           0       -0.614382    1.240102   -1.759355
     32          7           0       -1.925584    0.954205   -2.114223
     33          6           0       -2.510537    2.120460   -2.157604
     34          1           0       -3.560103    2.279827   -2.407174
     35          1           0       -2.685133    4.770872   -1.121565
     36          1           0       -1.147707    5.108435   -1.549749
     37          1           0       -2.288889    4.910952   -2.698522
     38          1           0        6.787197   -1.647024    0.515334
     39          1           0        7.112502   -1.757612   -1.212845
     40          1           0        6.164249   -0.411998   -0.579204
     41          1           0        4.042107   -5.419801   -0.658209
     42          6           0        4.024547   -4.332318   -0.731104
     43          8           0        1.697506   -4.215940   -1.176589
     44          6           0        2.786849   -3.668938   -1.006540
     45          1           0        2.021480   -1.789406   -1.270882
     46          7           0        2.875596   -2.293336   -1.077858
     47          8           0        3.981678   -0.311630   -0.996464
     48          6           0        4.002517   -1.527176   -0.914763
     49          1           0        6.106736   -4.068491   -0.356042
     50          6           0        5.140467   -3.612295   -0.567120
     51          6           0        6.385940   -1.463234   -0.470201
     52          7           0        5.156187   -2.239374   -0.652019
     53          1           0        2.968215    4.432955    2.854373
     54          1           0        1.889682    4.324245    1.634932
     55          1           0        3.489332    4.336319    1.310838
     56          1           0        1.054433   -2.656765    1.787257
     57          1           0        2.617040   -2.186880    2.284832
     58          7           0        1.708233   -1.920431    1.961892
     59          6           0        1.383606   -0.639782    1.772860
     60          6           0        1.784045    1.705700    1.762070
     61          7           0        0.556068    2.034071    1.327692
     62          1           0       -1.197766    1.118010    0.793380
     63          6           0       -0.182738    0.941251    1.146550
     64          7           0        0.140574   -0.342259    1.335320
     65          1           0        4.823508    2.178172    2.757357
     66          6           0        3.862340    1.758229    2.459436
     67          7           0        3.580919    0.478293    2.444116
     68          6           0        2.266135    0.431078    2.003817
     69          6           0        2.789416    4.030665    1.956492
     70          7           0        2.820617    2.558719    2.058494
 ---------------------------------------------------------------------

 SCF Done:  E(RwB97XD) =  -2048.72683749     A.U. after   15 cycles

 The electronic state is 1-A.
 Alpha  occ. eigenvalues --  -19.26087 -19.22335 -19.20858 -14.52722 -14.51304
 Alpha  occ. eigenvalues --  -14.49023 -14.48783 -14.48150 -14.47403 -14.47131
 Alpha  occ. eigenvalues --  -14.47066 -14.44407 -14.42899 -14.42689 -14.42280
 Alpha  occ. eigenvalues --  -14.42170 -14.41482 -14.41011 -14.40863 -14.40099
 Alpha  occ. eigenvalues --  -10.45738 -10.41587 -10.40434 -10.38683 -10.38507
 Alpha  occ. eigenvalues --  -10.38108 -10.36953 -10.35866 -10.35441 -10.35395
 Alpha  occ. eigenvalues --  -10.34558 -10.34267 -10.34137 -10.33518 -10.33375
 Alpha  occ. eigenvalues --  -10.33286 -10.33051 -10.31480 -10.31406 -10.31110
 Alpha  occ. eigenvalues --  -10.30926 -10.28563 -10.28453  -1.19681  -1.14228
 Alpha  occ. eigenvalues --   -1.13461  -1.13339  -1.11373  -1.10847  -1.09606
 Alpha  occ. eigenvalues --   -1.09044  -1.08002  -1.04951  -1.03589  -1.02791
 Alpha  occ. eigenvalues --   -1.00666  -1.00415  -0.99721  -0.98802  -0.96984
 Alpha  occ. eigenvalues --   -0.96833  -0.95545  -0.92596  -0.91347  -0.86600
 Alpha  occ. eigenvalues --   -0.85058  -0.84422  -0.83943  -0.83892  -0.82787
 Alpha  occ. eigenvalues --   -0.82315  -0.79173  -0.75908  -0.74959  -0.74196
 Alpha  occ. eigenvalues --   -0.73641  -0.73570  -0.72902  -0.71046  -0.69337
 Alpha  occ. eigenvalues --   -0.67853  -0.66836  -0.66305  -0.65701  -0.64739
 Alpha  occ. eigenvalues --   -0.64062  -0.63209  -0.63016  -0.62663  -0.62479
 Alpha  occ. eigenvalues --   -0.60218  -0.59896  -0.59804  -0.59634  -0.59457
 Alpha  occ. eigenvalues --   -0.58993  -0.58535  -0.56932  -0.56509  -0.56374
 Alpha  occ. eigenvalues --   -0.56221  -0.55397  -0.55057  -0.54638  -0.54282
 Alpha  occ. eigenvalues --   -0.53938  -0.53595  -0.53244  -0.52751  -0.52653
 Alpha  occ. eigenvalues --   -0.52148  -0.51741  -0.51719  -0.50711  -0.50426
 Alpha  occ. eigenvalues --   -0.50170  -0.49678  -0.49215  -0.49083  -0.48820
 Alpha  occ. eigenvalues --   -0.48611  -0.48574  -0.48377  -0.47655  -0.47618
 Alpha  occ. eigenvalues --   -0.46943  -0.45558  -0.45084  -0.44330  -0.43128
 Alpha  occ. eigenvalues --   -0.41154  -0.39726  -0.39626  -0.37972  -0.37533
 Alpha  occ. eigenvalues --   -0.37166  -0.36811  -0.36263  -0.35562  -0.35067
 Alpha  occ. eigenvalues --   -0.33584  -0.33503  -0.33472  -0.33155  -0.32928
 Alpha  occ. eigenvalues --   -0.32782  -0.32461  -0.32264  -0.32069  -0.30898
 Alpha  occ. eigenvalues --   -0.30324  -0.28720  -0.25778  -0.25689
 Alpha virt. eigenvalues --    0.02784   0.05022   0.07726   0.07976   0.08172
 Alpha virt. eigenvalues --    0.09147   0.09626   0.10926   0.11212   0.12324
 Alpha virt. eigenvalues --    0.12943   0.13937   0.14280   0.14487   0.14913

 Mulliken charges:
               1
     1  N   -0.311070
     2  C    0.181163
     3  C    0.029528
     4  N   -0.259397
     5  C    0.133768
     6  H    0.026574
     7  N   -0.291546
     8  C    0.135952
     9  H    0.007064
    10  N   -0.289854
    11  C    0.244252
    12  C    0.125875
    13  N   -0.057868
    14  H    0.108856
    15  H    0.089347
    16  H    0.025117
    17  H    0.034963
    18  H    0.026306
    19  N   -0.310998
    20  C    0.248294
    21  C    0.182785
    22  N   -0.103614
    23  H    0.117198
    24  H    0.116198
    25  N   -0.276746
    26  C    0.187877
    27  N   -0.109725
    28  H    0.118289
    29  C    0.154759
    30  O   -0.317200
    31  C   -0.008881
    32  N   -0.217534
    33  C    0.129015
    34  H    0.031167
    35  H    0.029352
    36  H    0.026935
    37  H    0.025244
    38  H    0.062075
    39  H    0.059720
    40  H    0.076013
    41  H    0.032899
    42  C   -0.112463
    43  O   -0.266253
    44  C    0.169292
    45  H    0.134949
    46  N   -0.135368
    47  O   -0.346837
    48  C    0.358357
    49  H    0.049271
    50  C    0.170051
    51  C    0.043478
    52  N   -0.297789
    53  H    0.032502
    54  H    0.047597
    55  H    0.002675
    56  H    0.125782
    57  H    0.112639
    58  N   -0.068351
    59  C    0.094397
    60  C    0.217171
    61  N   -0.253367
    62  H    0.055044
    63  C    0.150814
    64  N   -0.295083
    65  H    0.028229
    66  C    0.117444
    67  N   -0.263314
    68  C    0.035338
    69  C    0.173708
    70  N   -0.292065
 Sum of Mulliken charges =  -0.00000

 Dipole moment (field-independent basis, Debye):
    X=              8.9363    Y=              4.6625    Z=              2.3133  Tot=             10.3416
 Quadrupole moment (field-independent basis, Debye-Ang):
   XX=           -154.4182   YY=           -210.8975   ZZ=           -251.3016
   XY=             -3.0107   XZ=             11.1534   YZ=             -9.5946

 Normal termination of Gaussian 16 at Fri Jan 26 19:43:01 2018.
