 Gaussian 16, Revision A.03,
 Gaussian 16:  EM64L-G16RevA.03 25-Dec-2016

 ---------------------------------------
 #p wb97xd/cc-pvdz sp scf=(maxcycles=20)
 ---------------------------------------

 ------------------
 Base pair stacking
 ------------------
 Symbolic Z-matrix:
 Charge =  0 Multiplicity = 1

                         Standard orientation:
 ---------------------------------------------------------------------
 Center     Atomic      Atomic             Coordinates (Angstroms)
 Number     Number       Type             X           Y           Z
 ---------------------------------------------------------------------
      1          7           0       -7.198547   -1.622448    0.069448
      2          6           0       -8.592264   -1.188474   -0.147897
      3          6           0       -5.037534   -1.641491    0.478060
      4          7           0       -5.403636   -2.962387    0.263799
      5          6           0       -6.690912   -2.898057    0.026200
      6          1           0       -7.325478   -3.758356   -0.188633
      7          7           0       -3.782100    0.303476    0.929699
      8          6           0       -4.925081    0.982286    0.786831
      9          1           0       -4.845424    2.060328    0.920046
     10          7           0       -6.145925    0.531483    0.505421
     11          6           0       -6.133258   -0.804019    0.361553
     12          6           0       -3.802483   -1.038872    0.778801
     13          7           0       -2.662567   -1.718223    0.921024
     14          1           0       -2.630878   -2.713020    0.818089
     15          1           0       -1.801847   -1.256238    1.135210
     16          1           0       -9.187805   -1.625184    0.526482
     17          1           0       -8.651988   -0.195465   -0.050479
     18          1           0       -8.885326   -1.449695   -1.067613
     19          7           0       -1.407412    3.109189   -1.849079
     20          6           0       -0.181546    2.556014   -1.567449
     21          6           0       -1.721021    4.551835   -1.815532
     22          7           0        3.147412    2.928765   -0.650490
     23          1           0        3.938126    2.339263   -0.487720
     24          1           0        3.283675    3.912972   -0.534324
     25          7           0        0.933473    3.232011   -1.215589
     26          6           0        1.957419    2.423140   -1.008489
     27          7           0        1.896186    1.056553   -1.135712
     28          1           0        2.729294    0.516956   -0.957590
     29          6           0        0.759581    0.339782   -1.496621
     30          8           0        0.810864   -0.893357   -1.583045
     31          6           0       -0.348659    1.195182   -1.722394
     32          7           0       -1.653178    0.899955   -2.093832
     33          6           0       -2.242709    2.063025   -2.156468
     34          1           0       -3.289201    2.215217   -2.422863
     35          1           0       -2.444547    4.721898   -1.147409
     36          1           0       -0.902531    5.062728   -1.556058
     37          1           0       -2.025776    4.849491   -2.719599
     38          1           0        7.031652   -1.636579    0.687007
     39          1           0        7.382863   -1.761349   -1.035124
     40          1           0        6.419297   -0.414472   -0.427813
     41          1           0        4.321270   -5.432636   -0.492105
     42          6           0        4.299855   -4.345954   -0.575203
     43          8           0        1.979119   -4.244491   -1.055837
     44          6           0        3.063351   -3.690889   -0.874835
     45          1           0        2.293444   -1.817428   -1.167576
     46          7           0        3.146901   -2.315591   -0.957433
     47          8           0        4.242671   -0.328087   -0.877960
     48          6           0        4.267815   -1.542730   -0.784837
     49          1           0        6.375081   -4.069015   -0.172055
     50          6           0        5.409966   -3.619271   -0.401459
     51          6           0        6.644124   -1.463628   -0.305950
     52          7           0        5.420710   -2.247119   -0.498682
     53          1           0        2.666658    4.497852    2.801318
     54          1           0        1.606692    4.373023    1.567226
     55          1           0        3.210877    4.389616    1.266548
     56          1           0        0.800955   -2.610137    1.771181
     57          1           0        2.353914   -2.128462    2.287310
     58          7           0        1.448761   -1.869193    1.948642
     59          6           0        1.121159   -0.591844    1.743152
     60          6           0        1.511076    1.755276    1.716769
     61          7           0        0.288149    2.073951    1.261428
     62          1           0       -1.453461    1.144898    0.709844
     63          6           0       -0.442949    0.976095    1.079475
     64          7           0       -0.116636   -0.304124    1.284712
     65          1           0        4.533389    2.250953    2.752187
     66          6           0        3.578624    1.823849    2.444050
     67          7           0        3.303253    0.542518    2.436317
     68          6           0        1.995329    0.485167    1.977223
     69          6           0        2.502928    4.086588    1.904632
     70          7           0        2.539297    2.615791    2.020552
 ---------------------------------------------------------------------

 SCF Done:  E(RwB97XD) =  -2048.72384169     A.U. after   15 cycles

 The electronic state is 1-A.
 Alpha  occ. eigenvalues --  -19.26131 -19.22366 -19.21094 -14.52754 -14.50941
 Alpha  occ. eigenvalues --  -14.49126 -14.48911 -14.48234 -14.47517 -14.47428
 Alpha  occ. eigenvalues --  -14.46698 -14.44153 -14.42551 -14.42525 -14.42398
 Alpha  occ. eigenvalues --  -14.42273 -14.41621 -14.41089 -14.40990 -14.40234
 Alpha  occ. eigenvalues --  -10.45789 -10.41749 -10.40473 -10.38718 -10.38336
 Alpha  occ. eigenvalues --  -10.38114 -10.36606 -10.35575 -10.35532 -10.35520
 Alpha  occ. eigenvalues --  -10.34622 -10.34272 -10.34108 -10.33593 -10.33513
 Alpha  occ. eigenvalues --  -10.33178 -10.32892 -10.31411 -10.31160 -10.31057
 Alpha  occ. eigenvalues --  -10.31020 -10.28708 -10.28518  -1.19729  -1.14131
 Alpha  occ. eigenvalues --   -1.13441  -1.13375  -1.11509  -1.10967  -1.09645
 Alpha  occ. eigenvalues --   -1.09241  -1.07671  -1.05089  -1.03289  -1.02852
 Alpha  occ. eigenvalues --   -1.00782  -1.00540  -0.99470  -0.98986  -0.97108
 Alpha  occ. eigenvalues --   -0.96946  -0.95222  -0.92729  -0.91368  -0.86328
 Alpha  occ. eigenvalues --   -0.84719  -0.84506  -0.84069  -0.83954  -0.82868
 Alpha  occ. eigenvalues --   -0.82434  -0.79207  -0.75616  -0.75095  -0.74335
 Alpha  occ. eigenvalues --   -0.73694  -0.73277  -0.73029  -0.71176  -0.69026
 Alpha  occ. eigenvalues --   -0.68015  -0.66889  -0.66426  -0.65402  -0.64796
 Alpha  occ. eigenvalues --   -0.64130  -0.63163  -0.62975  -0.62703  -0.62578
 Alpha  occ. eigenvalues --   -0.60303  -0.60034  -0.59857  -0.59780  -0.59280
 Alpha  occ. eigenvalues --   -0.58881  -0.58274  -0.56894  -0.56594  -0.56487
 Alpha  occ. eigenvalues --   -0.56294  -0.55501  -0.54876  -0.54656  -0.54041
 Alpha  occ. eigenvalues --   -0.53958  -0.53623  -0.53344  -0.52713  -0.52456
 Alpha  occ. eigenvalues --   -0.51819  -0.51795  -0.51433  -0.50840  -0.50535
 Alpha  occ. eigenvalues --   -0.50280  -0.49731  -0.49257  -0.49146  -0.48974
 Alpha  occ. eigenvalues --   -0.48673  -0.48555  -0.48342  -0.47799  -0.47299
 Alpha  occ. eigenvalues --   -0.47067  -0.45408  -0.45226  -0.44346  -0.43225
 Alpha  occ. eigenvalues --   -0.41293  -0.39753  -0.39656  -0.37805  -0.37709
 Alpha  occ. eigenvalues --   -0.37293  -0.36657  -0.36050  -0.35641  -0.35354
 Alpha  occ. eigenvalues --   -0.33681  -0.33621  -0.33554  -0.33095  -0.33009
 Alpha  occ. eigenvalues --   -0.32446  -0.32297  -0.32260  -0.32109  -0.31062
 Alpha  occ. eigenvalues --   -0.30436  -0.28327  -0.25918  -0.25834
 Alpha virt. eigenvalues --    0.02783   0.05274   0.07791   0.07937   0.08158
 Alpha virt. eigenvalues --    0.08949   0.09775   0.10880   0.11134   0.12466
 Alpha virt. eigenvalues --    0.13130   0.13829   0.14256   0.14513   0.14888

 Mulliken charges:
               1
     1  N   -0.310912
     2  C    0.181101
     3  C    0.028102
     4  N   -0.259412
     5  C    0.133884
     6  H    0.027019
     7  N   -0.291213
     8  C    0.134015
     9  H    0.008185
    10  N   -0.288824
    11  C    0.243558
    12  C    0.123383
    13  N   -0.057466
    14  H    0.108269
    15  H    0.089259
    16  H    0.025457
    17  H    0.035416
    18  H    0.026373
    19  N   -0.307984
    20  C    0.263246
    21  C    0.183536
    22  N   -0.099844
    23  H    0.116974
    24  H    0.118437
    25  N   -0.271815
    26  C    0.168550
    27  N   -0.108300
    28  H    0.121846
    29  C    0.166737
    30  O   -0.319242
    31  C   -0.025757
    32  N   -0.213135
    33  C    0.126192
    34  H    0.031048
    35  H    0.030172
    36  H    0.026270
    37  H    0.025310
    38  H    0.061743
    39  H    0.060439
    40  H    0.075845
    41  H    0.033164
    42  C   -0.111928
    43  O   -0.266623
    44  C    0.172447
    45  H    0.134300
    46  N   -0.139113
    47  O   -0.347945
    48  C    0.361011
    49  H    0.049385
    50  C    0.171380
    51  C    0.042755
    52  N   -0.298850
    53  H    0.030943
    54  H    0.046961
    55  H   -0.010181
    56  H    0.124057
    57  H    0.112081
    58  N   -0.065237
    59  C    0.094999
    60  C    0.212264
    61  N   -0.253915
    62  H    0.041242
    63  C    0.165862
    64  N   -0.296115
    65  H    0.025057
    66  C    0.110141
    67  N   -0.259662
    68  C    0.035696
    69  C    0.183823
    70  N   -0.284459
 Sum of Mulliken charges =  -0.00000

 Dipole moment (field-independent basis, Debye):
    X=              8.8382    Y=              4.6279    Z=              2.2738  Tot=             10.2323
 Quadrupole moment (field-independent basis, Debye-Ang):
   XX=           -151.6101   YY=           -211.5395   ZZ=           -250.8133
   XY=             -1.5889   XZ=             13.1809   YZ=            -10.0028

 Normal termination of Gaussian 16 at Thu Feb  1 13:51:39 2018.
