 Gaussian 16, Revision A.03,
 Gaussian 16:  EM64L-G16RevA.03 25-Dec-2016

 ---------------------------------------
 #p wb97xd/cc-pvdz sp scf=(maxcycles=20)
 ---------------------------------------

 ------------------
 Base pair stacking
 ------------------
 Symbolic Z-matrix:
 Charge =  0 Multiplicity = 1

                         Standard orientation:
 ---------------------------------------------------------------------
 Center     Atomic      Atomic             Coordinates (Angstroms)
 Number     Number       Type             X           Y           Z
 ---------------------------------------------------------------------
      1          7           0       -6.878754   -1.637374    0.303185
      2          6           0       -8.254883   -1.213546   -0.020330
      3          6           0       -4.725769   -1.639129    0.752580
      4          7           0       -5.129487   -2.966105    0.782204
      5          6           0       -6.410424   -2.911940    0.510276
      6          1           0       -7.068122   -3.779367    0.447469
      7          7           0       -3.417430    0.320517    0.857434
      8          6           0       -4.536471    0.991774    0.566337
      9          1           0       -4.425363    2.073012    0.496735
     10          7           0       -5.766374    0.530105    0.349311
     11          6           0       -5.793059   -0.808466    0.458601
     12          6           0       -3.477252   -1.025176    0.960414
     13          7           0       -2.361260   -1.697012    1.250921
     14          1           0       -2.358971   -2.693913    1.336944
     15          1           0       -1.489929   -1.227016    1.392408
     16          1           0       -8.873789   -1.499038    0.711540
     17          1           0       -8.285169   -0.218660   -0.112015
     18          1           0       -8.542057   -1.634766   -0.880617
     19          7           0       -1.833614    3.058390   -1.709802
     20          6           0       -0.604131    2.513524   -1.427779
     21          6           0       -2.196483    4.479835   -1.540935
     22          7           0        2.665013    2.881317   -0.314593
     23          1           0        3.466699    2.300580   -0.175780
     24          1           0        2.762827    3.851117   -0.089530
     25          7           0        0.470385    3.179777   -0.952827
     26          6           0        1.510233    2.382929   -0.781493
     27          7           0        1.500610    1.036362   -1.053850
     28          1           0        2.342264    0.504809   -0.892497
     29          6           0        0.406338    0.329927   -1.543122
     30          8           0        0.502716   -0.885128   -1.755479
     31          6           0       -0.718374    1.172615   -1.732271
     32          7           0       -1.993910    0.881514   -2.196131
     33          6           0       -2.618511    2.027449   -2.165586
     34          1           0       -3.656202    2.177246   -2.465635
     35          1           0       -2.955132    4.557430   -0.894996
     36          1           0       -1.408281    4.983379   -1.189573
     37          1           0       -2.469290    4.862958   -2.422756
     38          1           0        6.634366   -1.687943    0.726914
     39          1           0        7.068064   -1.619252   -0.979495
     40          1           0        6.033196   -0.372339   -0.282623
     41          1           0        4.109262   -5.412937   -0.974507
     42          6           0        4.055353   -4.324626   -0.944396
     43          8           0        1.756980   -4.238719   -1.525094
     44          6           0        2.812666   -3.676864   -1.234164
     45          1           0        1.994778   -1.805558   -1.366715
     46          7           0        2.853891   -2.298752   -1.168212
     47          8           0        3.877811   -0.300567   -0.827547
     48          6           0        3.939252   -1.517029   -0.860894
     49          1           0        6.099518   -4.033162   -0.413125
     50          6           0        5.131421   -3.589230   -0.641308
     51          6           0        6.287157   -1.421696   -0.260318
     52          7           0        5.100733   -2.214760   -0.593784
     53          1           0        3.129714    4.611626    2.042193
     54          1           0        2.085057    4.286481    0.831784
     55          1           0        3.693322    4.201804    0.566456
     56          1           0        1.059685   -2.508828    2.324378
     57          1           0        2.618926   -1.981935    2.772974
     58          7           0        1.727458   -1.765974    2.373131
     59          6           0        1.442849   -0.541442    1.925151
     60          6           0        1.905877    1.747168    1.467343
     61          7           0        0.700435    2.008329    0.935234
     62          1           0       -1.060719    1.040777    0.531785
     63          6           0       -0.061614    0.916529    0.947256
     64          7           0        0.221626   -0.310833    1.395496
     65          1           0        4.926222    2.344703    2.453567
     66          6           0        3.963391    1.893907    2.211332
     67          7           0        3.648477    0.642103    2.438234
     68          6           0        2.346453    0.535733    1.971164
     69          6           0        2.966780    4.043843    1.235300
     70          7           0        2.955667    2.620621    1.625581
 ---------------------------------------------------------------------

 SCF Done:  E(RwB97XD) =  -2048.43096032     A.U. after   16 cycles

 The electronic state is 1-A.
 Alpha  occ. eigenvalues --  -19.25764 -19.21879 -19.20155 -14.52503 -14.52411
 Alpha  occ. eigenvalues --  -14.48996 -14.48504 -14.47965 -14.47799 -14.45204
 Alpha  occ. eigenvalues --  -14.44803 -14.43757 -14.43579 -14.42760 -14.42617
 Alpha  occ. eigenvalues --  -14.41720 -14.41140 -14.40853 -14.40636 -14.40391
 Alpha  occ. eigenvalues --  -10.45417 -10.41002 -10.40011 -10.39542 -10.37771
 Alpha  occ. eigenvalues --  -10.37736 -10.37691 -10.36427 -10.36190 -10.35719
 Alpha  occ. eigenvalues --  -10.35222 -10.34717 -10.34370 -10.34028 -10.33621
 Alpha  occ. eigenvalues --  -10.33342 -10.33246 -10.32394 -10.31082 -10.31072
 Alpha  occ. eigenvalues --  -10.30871 -10.28832 -10.27998  -1.19373  -1.17981
 Alpha  occ. eigenvalues --   -1.13127  -1.12905  -1.11601  -1.10411  -1.09820
 Alpha  occ. eigenvalues --   -1.09289  -1.09248  -1.05330  -1.05241  -1.03806
 Alpha  occ. eigenvalues --   -1.02421  -1.00749  -0.98362  -0.98225  -0.97252
 Alpha  occ. eigenvalues --   -0.96790  -0.96435  -0.92907  -0.91131  -0.91018
 Alpha  occ. eigenvalues --   -0.86858  -0.84177  -0.84085  -0.83621  -0.82536
 Alpha  occ. eigenvalues --   -0.82474  -0.78843  -0.77236  -0.75408  -0.74533
 Alpha  occ. eigenvalues --   -0.74338  -0.73304  -0.73192  -0.71628  -0.71325
 Alpha  occ. eigenvalues --   -0.68657  -0.67748  -0.66602  -0.66562  -0.65868
 Alpha  occ. eigenvalues --   -0.64694  -0.64335  -0.63739  -0.63005  -0.62642
 Alpha  occ. eigenvalues --   -0.61678  -0.60735  -0.60508  -0.60132  -0.59541
 Alpha  occ. eigenvalues --   -0.59484  -0.59395  -0.56996  -0.56648  -0.56549
 Alpha  occ. eigenvalues --   -0.56415  -0.55820  -0.55656  -0.54765  -0.54343
 Alpha  occ. eigenvalues --   -0.53780  -0.53311  -0.53254  -0.53093  -0.52695
 Alpha  occ. eigenvalues --   -0.52380  -0.51975  -0.51118  -0.50943  -0.50435
 Alpha  occ. eigenvalues --   -0.49945  -0.49653  -0.49323  -0.49162  -0.48712
 Alpha  occ. eigenvalues --   -0.48218  -0.48104  -0.47805  -0.47310  -0.47164
 Alpha  occ. eigenvalues --   -0.46122  -0.45828  -0.45334  -0.43952  -0.42306
 Alpha  occ. eigenvalues --   -0.41449  -0.39802  -0.39385  -0.38721  -0.37438
 Alpha  occ. eigenvalues --   -0.37034  -0.36995  -0.36162  -0.35530  -0.33953
 Alpha  occ. eigenvalues --   -0.33780  -0.33679  -0.33111  -0.32999  -0.32380
 Alpha  occ. eigenvalues --   -0.32308  -0.31894  -0.31607  -0.31122  -0.31069
 Alpha  occ. eigenvalues --   -0.30593  -0.28901  -0.26097  -0.23105
 Alpha virt. eigenvalues --    0.02846   0.03194   0.06545   0.07686   0.08451
 Alpha virt. eigenvalues --    0.09291   0.10109   0.10624   0.11763   0.12455
 Alpha virt. eigenvalues --    0.13160   0.13725   0.14089   0.14676   0.15210

 Mulliken charges:
               1
     1  N   -0.311524
     2  C    0.181197
     3  C    0.030755
     4  N   -0.260847
     5  C    0.135033
     6  H    0.027445
     7  N   -0.289833
     8  C    0.139817
     9  H    0.004727
    10  N   -0.288063
    11  C    0.247184
    12  C    0.126110
    13  N   -0.061478
    14  H    0.106963
    15  H    0.087979
    16  H    0.025217
    17  H    0.035226
    18  H    0.027422
    19  N   -0.313709
    20  C    0.221808
    21  C    0.182929
    22  N   -0.098482
    23  H    0.105982
    24  H    0.082040
    25  N   -0.237521
    26  C    0.107136
    27  N   -0.087445
    28  H    0.115033
    29  C    0.130177
    30  O   -0.318667
    31  C   -0.002549
    32  N   -0.216419
    33  C    0.124327
    34  H    0.030369
    35  H    0.026760
    36  H    0.024549
    37  H    0.024612
    38  H    0.060096
    39  H    0.058724
    40  H    0.075150
    41  H    0.032017
    42  C   -0.111903
    43  O   -0.262634
    44  C    0.177158
    45  H    0.134219
    46  N   -0.140365
    47  O   -0.343975
    48  C    0.358683
    49  H    0.047424
    50  C    0.168361
    51  C    0.044193
    52  N   -0.298443
    53  H    0.001389
    54  H    0.030032
    55  H   -0.001831
    56  H    0.122222
    57  H    0.116515
    58  N   -0.069541
    59  C    0.099203
    60  C    0.204713
    61  N   -0.247154
    62  H    0.077926
    63  C    0.157302
    64  N   -0.291831
    65  H    0.032008
    66  C    0.107370
    67  N   -0.264164
    68  C    0.062282
    69  C    0.336605
    70  N   -0.336015
 Sum of Mulliken charges =  -0.00000

 Dipole moment (field-independent basis, Debye):
    X=              8.3124    Y=              4.7367    Z=              4.2560  Tot=             10.4712
 Quadrupole moment (field-independent basis, Debye-Ang):
   XX=           -155.0985   YY=           -212.4466   ZZ=           -254.8603
   XY=             -1.2939   XZ=             11.0620   YZ=            -12.7189

 Normal termination of Gaussian 16 at Sat Jan 27 07:05:15 2018.
