 Gaussian 16, Revision A.03,
 Gaussian 16:  EM64L-G16RevA.03 25-Dec-2016

 ---------------------------------------
 #p wb97xd/cc-pvdz sp scf=(maxcycles=20)
 ---------------------------------------

 ------------------
 Base pair stacking
 ------------------
 Symbolic Z-matrix:
 Charge =  0 Multiplicity = 1

                         Standard orientation:
 ---------------------------------------------------------------------
 Center     Atomic      Atomic             Coordinates (Angstroms)
 Number     Number       Type             X           Y           Z
 ---------------------------------------------------------------------
      1          7           0       -5.346712   -2.048603    1.368919
      2          6           0       -6.752615   -1.663528    1.599464
      3          6           0       -3.150391   -2.034301    1.253574
      4          7           0       -3.555667   -3.274803    0.782795
      5          6           0       -4.862646   -3.233772    0.871136
      6          1           0       -5.529292   -4.047587    0.584372
      7          7           0       -1.825417   -0.197088    1.910867
      8          6           0       -2.970292    0.420628    2.219505
      9          1           0       -2.862293    1.429794    2.614709
     10          7           0       -4.222663   -0.019014    2.113764
     11          6           0       -4.243259   -1.267541    1.618590
     12          6           0       -1.879782   -1.452501    1.414822
     13          7           0       -0.738026   -2.070784    1.106130
     14          1           0       -0.730761   -3.000456    0.736172
     15          1           0        0.148520   -1.626027    1.234070
     16          1           0       -7.171057   -2.297859    2.249633
     17          1           0       -6.788434   -0.735944    1.970166
     18          1           0       -7.254993   -1.694984    0.735391
     19          7           0       -3.468690    3.534318   -1.277917
     20          6           0       -2.212562    2.981972   -1.349395
     21          6           0       -3.760701    4.970741   -1.098655
     22          7           0        1.240859    3.348283   -1.311553
     23          1           0        2.045846    2.760379   -1.386449
     24          1           0        1.404060    4.327735   -1.190128
     25          7           0       -1.043425    3.653258   -1.268534
     26          6           0       -0.002023    2.846678   -1.371153
     27          7           0       -0.096205    1.486498   -1.540077
     28          1           0        0.753781    0.948219   -1.608913
     29          6           0       -1.288593    0.774650   -1.625929
     30          8           0       -1.263341   -0.452852   -1.778623
     31          6           0       -2.416183    1.627666   -1.517345
     32          7           0       -3.772841    1.335653   -1.550632
     33          6           0       -4.356703    2.494187   -1.405273
     34          1           0       -5.436247    2.647151   -1.383834
     35          1           0       -4.285691    5.103563   -0.258674
     36          1           0       -2.902161    5.478117   -1.037473
     37          1           0       -4.289300    5.304941   -1.878198
     38          1           0        5.332409   -1.231251   -1.236419
     39          1           0        5.224247   -1.276039   -2.994530
     40          1           0        4.453398    0.032570   -2.097488
     41          1           0        2.403222   -4.999312   -1.843180
     42          6           0        2.362565   -3.910308   -1.868410
     43          8           0       -0.003211   -3.811734   -1.725376
     44          6           0        1.091641   -3.255478   -1.806897
     45          1           0        0.274905   -1.378980   -1.804449
     46          7           0        1.152916   -1.877084   -1.845787
     47          8           0        2.234677    0.116219   -1.963115
     48          6           0        2.281340   -1.101029   -1.934977
     49          1           0        4.471708   -3.629966   -2.005315
     50          6           0        3.480791   -3.180551   -1.955800
     51          6           0        4.700611   -1.018563   -2.085915
     52          7           0        3.467955   -1.805399   -1.990034
     53          1           0        4.879484    3.771995    3.315506
     54          1           0        3.557446    3.904413    2.368530
     55          1           0        5.044705    4.101635    1.725706
     56          1           0        2.829088   -2.928563    0.873374
     57          1           0        4.459691   -2.498841    1.131394
     58          7           0        3.499845   -2.219176    1.090186
     59          6           0        3.131765   -0.956107    1.314546
     60          6           0        3.502269    1.337229    1.829404
     61          7           0        2.206012    1.684054    1.767332
     62          1           0        0.384113    0.820386    1.399361
     63          6           0        1.453579    0.626603    1.469760
     64          7           0        1.820343   -0.639257    1.244680
     65          1           0        6.683403    1.739866    2.242220
     66          6           0        5.683195    1.347093    2.057116
     67          7           0        5.414957    0.096874    1.769590
     68          6           0        4.035557    0.076908    1.622701
     69          6           0        4.508352    3.598311    2.403323
     70          7           0        4.572431    2.153422    2.109730
 ---------------------------------------------------------------------

 SCF Done:  E(RwB97XD) =  -2048.74316631     A.U. after   15 cycles

 The electronic state is 1-A.
 Alpha  occ. eigenvalues --  -19.25901 -19.22296 -19.20656 -14.52603 -14.52241
 Alpha  occ. eigenvalues --  -14.48910 -14.48478 -14.47977 -14.47821 -14.47028
 Alpha  occ. eigenvalues --  -14.46785 -14.45267 -14.44318 -14.44202 -14.42129
 Alpha  occ. eigenvalues --  -14.41696 -14.40947 -14.40427 -14.40088 -14.39594
 Alpha  occ. eigenvalues --  -10.45590 -10.41348 -10.40420 -10.39949 -10.38293
 Alpha  occ. eigenvalues --  -10.38284 -10.37826 -10.37043 -10.35593 -10.35233
 Alpha  occ. eigenvalues --  -10.34741 -10.34446 -10.33695 -10.33389 -10.33161
 Alpha  occ. eigenvalues --  -10.32576 -10.32472 -10.32317 -10.31571 -10.31073
 Alpha  occ. eigenvalues --  -10.30121 -10.28196 -10.27659  -1.19513  -1.15003
 Alpha  occ. eigenvalues --   -1.13303  -1.13274  -1.10686  -1.10410  -1.09563
 Alpha  occ. eigenvalues --   -1.09264  -1.08648  -1.04853  -1.04278  -1.02640
 Alpha  occ. eigenvalues --   -1.00829  -0.99850  -0.99713  -0.98644  -0.96823
 Alpha  occ. eigenvalues --   -0.96705  -0.96063  -0.91963  -0.91453  -0.87467
 Alpha  occ. eigenvalues --   -0.85730  -0.84224  -0.83745  -0.83066  -0.82629
 Alpha  occ. eigenvalues --   -0.81481  -0.79170  -0.76960  -0.74765  -0.74688
 Alpha  occ. eigenvalues --   -0.73760  -0.73532  -0.72153  -0.70403  -0.70216
 Alpha  occ. eigenvalues --   -0.67492  -0.66814  -0.66743  -0.65553  -0.64657
 Alpha  occ. eigenvalues --   -0.64212  -0.63931  -0.62774  -0.61958  -0.61854
 Alpha  occ. eigenvalues --   -0.60531  -0.60105  -0.60007  -0.59754  -0.59385
 Alpha  occ. eigenvalues --   -0.59129  -0.58475  -0.56745  -0.56090  -0.55891
 Alpha  occ. eigenvalues --   -0.55476  -0.55134  -0.54809  -0.54593  -0.54233
 Alpha  occ. eigenvalues --   -0.53803  -0.53712  -0.53447  -0.53296  -0.53096
 Alpha  occ. eigenvalues --   -0.52665  -0.52568  -0.50977  -0.50310  -0.49922
 Alpha  occ. eigenvalues --   -0.49738  -0.49641  -0.49390  -0.49195  -0.48984
 Alpha  occ. eigenvalues --   -0.48474  -0.48290  -0.48148  -0.47825  -0.47434
 Alpha  occ. eigenvalues --   -0.46152  -0.45731  -0.45296  -0.44147  -0.44055
 Alpha  occ. eigenvalues --   -0.40528  -0.40349  -0.39502  -0.37641  -0.37454
 Alpha  occ. eigenvalues --   -0.37373  -0.37341  -0.36282  -0.35962  -0.34767
 Alpha  occ. eigenvalues --   -0.34312  -0.33967  -0.33419  -0.32764  -0.32721
 Alpha  occ. eigenvalues --   -0.32700  -0.32475  -0.32300  -0.31934  -0.30127
 Alpha  occ. eigenvalues --   -0.30058  -0.29666  -0.25597  -0.24996
 Alpha virt. eigenvalues --    0.02337   0.04301   0.07063   0.08328   0.08855
 Alpha virt. eigenvalues --    0.09151   0.09686   0.10741   0.11091   0.11827
 Alpha virt. eigenvalues --    0.12945   0.14345   0.14452   0.14873   0.15204

 Mulliken charges:
               1
     1  N   -0.312956
     2  C    0.182311
     3  C    0.044567
     4  N   -0.255064
     5  C    0.136577
     6  H    0.024308
     7  N   -0.302409
     8  C    0.140145
     9  H    0.007777
    10  N   -0.289180
    11  C    0.257834
    12  C    0.113974
    13  N   -0.065578
    14  H    0.112507
    15  H    0.081200
    16  H    0.021909
    17  H    0.032744
    18  H    0.027042
    19  N   -0.311935
    20  C    0.248715
    21  C    0.180834
    22  N   -0.117409
    23  H    0.114324
    24  H    0.115919
    25  N   -0.311067
    26  C    0.245327
    27  N   -0.151325
    28  H    0.121658
    29  C    0.197502
    30  O   -0.320793
    31  C   -0.013968
    32  N   -0.225737
    33  C    0.129164
    34  H    0.024973
    35  H    0.028183
    36  H    0.028919
    37  H    0.025080
    38  H    0.054662
    39  H    0.060980
    40  H    0.076468
    41  H    0.032545
    42  C   -0.117166
    43  O   -0.260431
    44  C    0.169382
    45  H    0.132882
    46  N   -0.121463
    47  O   -0.346029
    48  C    0.343934
    49  H    0.045573
    50  C    0.152322
    51  C    0.040469
    52  N   -0.275121
    53  H    0.034212
    54  H    0.042789
    55  H    0.027318
    56  H    0.116176
    57  H    0.115446
    58  N   -0.061989
    59  C    0.097268
    60  C    0.245351
    61  N   -0.270229
    62  H    0.040452
    63  C    0.171361
    64  N   -0.315299
    65  H    0.037412
    66  C    0.139876
    67  N   -0.268777
    68  C    0.027772
    69  C    0.178937
    70  N   -0.313157
 Sum of Mulliken charges =  -0.00000

 Dipole moment (field-independent basis, Debye):
    X=              9.6641    Y=              5.2181    Z=              0.1774  Tot=             10.9843
 Quadrupole moment (field-independent basis, Debye-Ang):
   XX=           -169.7335   YY=           -206.8548   ZZ=           -249.4281
   XY=             -7.5966   XZ=             -8.0719   YZ=             -0.0327

 Normal termination of Gaussian 16 at Sat Jan 27 01:53:54 2018.
