 Gaussian 16, Revision A.03,
 Gaussian 16:  EM64L-G16RevA.03 25-Dec-2016

 ---------------------------------------
 #p wb97xd/cc-pvdz sp scf=(maxcycles=20)
 ---------------------------------------

 ------------------
 Base pair stacking
 ------------------
 Symbolic Z-matrix:
 Charge =  0 Multiplicity = 1

                         Standard orientation:
 ---------------------------------------------------------------------
 Center     Atomic      Atomic             Coordinates (Angstroms)
 Number     Number       Type             X           Y           Z
 ---------------------------------------------------------------------
      1          7           0        4.301915   -2.132782   -1.801101
      2          6           0        5.726145   -1.759432   -1.902095
      3          6           0        2.109607   -2.054106   -1.643291
      4          7           0        2.448577   -3.399085   -1.672470
      5          6           0        3.755795   -3.392656   -1.766378
      6          1           0        4.378346   -4.286565   -1.814319
      7          7           0        0.883903   -0.041261   -1.547986
      8          6           0        2.059805    0.589667   -1.630216
      9          1           0        2.005426    1.677436   -1.622403
     10          7           0        3.287035    0.081030   -1.720227
     11          6           0        3.241476   -1.261487   -1.721773
     12          6           0        0.871703   -1.392156   -1.551962
     13          7           0       -0.301125   -2.023778   -1.469952
     14          1           0       -0.357624   -3.022790   -1.469485
     15          1           0       -1.162795   -1.520194   -1.406232
     16          1           0        6.109502   -2.127999   -2.749078
     17          1           0        5.811038   -0.763487   -1.904621
     18          1           0        6.226976   -2.132985   -1.121316
     19          7           0        4.556093    3.196815    0.644848
     20          6           0        3.280478    2.698189    0.755521
     21          6           0        4.901437    4.581847    0.266511
     22          7           0       -0.156164    3.156129    0.551675
     23          1           0       -0.982359    2.609608    0.685659
     24          1           0       -0.282658    4.111297    0.282666
     25          7           0        2.137444    3.384214    0.538971
     26          6           0        1.066879    2.632548    0.724714
     27          7           0        1.110220    1.310023    1.094255
     28          1           0        0.240907    0.812989    1.213496
     29          6           0        2.274962    0.583953    1.322438
     30          8           0        2.203924   -0.606291    1.652576
     31          6           0        3.433368    1.378122    1.126803
     32          7           0        4.777902    1.054528    1.246811
     33          6           0        5.404473    2.161260    0.952265
     34          1           0        6.488751    2.277630    0.943888
     35          1           0        5.453904    4.573754   -0.566268
     36          1           0        4.062607    5.099620    0.103607
     37          1           0        5.419041    5.011791    1.005463
     38          1           0       -4.396650   -1.262218    1.015392
     39          1           0       -4.339265   -1.050166    2.763647
     40          1           0       -3.499788    0.088508    1.710047
     41          1           0       -1.614778   -4.983802    2.263429
     42          6           0       -1.538013   -3.904665    2.130009
     43          8           0        0.832825   -3.897787    2.051360
     44          6           0       -0.244425   -3.303681    2.014657
     45          1           0        0.635102   -1.472890    1.763720
     46          7           0       -0.260079   -1.933447    1.848965
     47          8           0       -1.276617    0.086226    1.637356
     48          6           0       -1.363653   -1.119945    1.786511
     49          1           0       -3.639462   -3.545389    2.155409
     50          6           0       -2.632901   -3.137483    2.072892
     51          6           0       -3.782008   -0.945111    1.844686
     52          7           0       -2.574497   -1.773330    1.905513
     53          1           0       -5.601032    4.490649   -1.248468
     54          1           0       -4.272866    4.198109   -0.347064
     55          1           0       -5.746864    4.216474    0.353718
     56          1           0       -3.908692   -2.730150   -1.496866
     57          1           0       -5.514298   -2.155777   -1.544176
     58          7           0       -4.540848   -1.958799   -1.422423
     59          6           0       -4.106120   -0.722096   -1.171935
     60          6           0       -4.354229    1.614249   -0.795539
     61          7           0       -3.041245    1.849259   -0.636547
     62          1           0       -1.267670    0.822215   -0.651315
     63          6           0       -2.346020    0.721096   -0.766210
     64          7           0       -2.779591   -0.518526   -1.017084
     65          1           0       -7.509754    2.297058   -0.964657
     66          6           0       -6.531748    1.814969   -0.958420
     67          7           0       -6.330323    0.535499   -1.158610
     68          6           0       -4.953804    0.394764   -1.058011
     69          6           0       -5.238786    3.973795   -0.472811
     70          7           0       -5.379593    2.527832   -0.732411
 ---------------------------------------------------------------------

 SCF Done:  E(RwB97XD) =  -2048.74184525     A.U. after   15 cycles

 The electronic state is 1-A.
 Alpha  occ. eigenvalues --  -19.25011 -19.21065 -19.20390 -14.52801 -14.51653
 Alpha  occ. eigenvalues --  -14.49464 -14.48660 -14.48327 -14.46978 -14.46328
 Alpha  occ. eigenvalues --  -14.45958 -14.45692 -14.45307 -14.45152 -14.43368
 Alpha  occ. eigenvalues --  -14.41799 -14.41144 -14.40917 -14.40774 -14.40614
 Alpha  occ. eigenvalues --  -10.44629 -10.40839 -10.40790 -10.39199 -10.38255
 Alpha  occ. eigenvalues --  -10.37898 -10.37876 -10.37156 -10.36672 -10.35887
 Alpha  occ. eigenvalues --  -10.34196 -10.34161 -10.34062 -10.33833 -10.33249
 Alpha  occ. eigenvalues --  -10.33240 -10.33198 -10.33009 -10.30917 -10.30481
 Alpha  occ. eigenvalues --  -10.30104 -10.28553 -10.27853  -1.18665  -1.15609
 Alpha  occ. eigenvalues --   -1.12903  -1.12098  -1.11030  -1.10398  -1.10247
 Alpha  occ. eigenvalues --   -1.08546  -1.08192  -1.05806  -1.05366  -1.01612
 Alpha  occ. eigenvalues --   -1.01385  -1.00896  -0.99210  -0.98260  -0.97761
 Alpha  occ. eigenvalues --   -0.96750  -0.96423  -0.93029  -0.90355  -0.88204
 Alpha  occ. eigenvalues --   -0.86290  -0.83942  -0.83697  -0.82845  -0.82350
 Alpha  occ. eigenvalues --   -0.81930  -0.78145  -0.77720  -0.75609  -0.74367
 Alpha  occ. eigenvalues --   -0.73183  -0.73082  -0.72545  -0.71211  -0.71067
 Alpha  occ. eigenvalues --   -0.67645  -0.66946  -0.66464  -0.65804  -0.64937
 Alpha  occ. eigenvalues --   -0.64058  -0.63302  -0.62945  -0.62347  -0.61348
 Alpha  occ. eigenvalues --   -0.61164  -0.60892  -0.60227  -0.60041  -0.59143
 Alpha  occ. eigenvalues --   -0.58862  -0.57821  -0.56996  -0.56425  -0.55991
 Alpha  occ. eigenvalues --   -0.55725  -0.55706  -0.55537  -0.55176  -0.54113
 Alpha  occ. eigenvalues --   -0.53823  -0.53632  -0.53259  -0.53118  -0.52683
 Alpha  occ. eigenvalues --   -0.52489  -0.51752  -0.51431  -0.50550  -0.50506
 Alpha  occ. eigenvalues --   -0.49919  -0.49863  -0.49366  -0.48934  -0.48833
 Alpha  occ. eigenvalues --   -0.48481  -0.47803  -0.47584  -0.47524  -0.46921
 Alpha  occ. eigenvalues --   -0.46769  -0.45751  -0.45400  -0.44537  -0.43105
 Alpha  occ. eigenvalues --   -0.41389  -0.41126  -0.38881  -0.38320  -0.38230
 Alpha  occ. eigenvalues --   -0.37452  -0.37044  -0.36614  -0.35607  -0.35324
 Alpha  occ. eigenvalues --   -0.34959  -0.34050  -0.33554  -0.33223  -0.32648
 Alpha  occ. eigenvalues --   -0.32457  -0.32150  -0.31644  -0.31129  -0.30835
 Alpha  occ. eigenvalues --   -0.30632  -0.30220  -0.26457  -0.24835
 Alpha virt. eigenvalues --    0.03408   0.03729   0.06414   0.07817   0.09095
 Alpha virt. eigenvalues --    0.09351   0.09914   0.10268   0.11090   0.11334
 Alpha virt. eigenvalues --    0.13529   0.14360   0.14513   0.14761   0.15265

 Mulliken charges:
               1
     1  N   -0.314091
     2  C    0.184958
     3  C    0.060881
     4  N   -0.264991
     5  C    0.144762
     6  H    0.028245
     7  N   -0.283793
     8  C    0.112986
     9  H    0.023437
    10  N   -0.263719
    11  C    0.264250
    12  C    0.076964
    13  N   -0.073040
    14  H    0.106138
    15  H    0.083862
    16  H    0.019365
    17  H    0.035781
    18  H    0.033848
    19  N   -0.310635
    20  C    0.236744
    21  C    0.180970
    22  N   -0.104621
    23  H    0.114311
    24  H    0.114462
    25  N   -0.302705
    26  C    0.208632
    27  N   -0.110839
    28  H    0.115251
    29  C    0.150438
    30  O   -0.319127
    31  C    0.021819
    32  N   -0.230139
    33  C    0.122950
    34  H    0.021598
    35  H    0.026539
    36  H    0.028837
    37  H    0.024443
    38  H    0.051980
    39  H    0.055715
    40  H    0.074969
    41  H    0.028897
    42  C   -0.112331
    43  O   -0.259669
    44  C    0.177950
    45  H    0.136541
    46  N   -0.130422
    47  O   -0.345549
    48  C    0.355684
    49  H    0.042439
    50  C    0.161045
    51  C    0.043393
    52  N   -0.284062
    53  H    0.034933
    54  H    0.036478
    55  H    0.032905
    56  H    0.117091
    57  H    0.122176
    58  N   -0.058651
    59  C    0.051096
    60  C    0.249208
    61  N   -0.285772
    62  H    0.005947
    63  C    0.208700
    64  N   -0.303912
    65  H    0.040607
    66  C    0.143405
    67  N   -0.259332
    68  C    0.036719
    69  C    0.181562
    70  N   -0.314511
 Sum of Mulliken charges =  -0.00000

 Dipole moment (field-independent basis, Debye):
    X=             -9.3504    Y=              5.1031    Z=             -1.9538  Tot=             10.8300
 Quadrupole moment (field-independent basis, Debye-Ang):
   XX=           -177.3379   YY=           -208.6595   ZZ=           -252.1486
   XY=              9.6062   XZ=            -19.7019   YZ=              7.9733

 Normal termination of Gaussian 16 at Sat Jan 27 08:02:26 2018.
