 Gaussian 16, Revision A.03,
 Gaussian 16:  EM64L-G16RevA.03 25-Dec-2016

 ---------------------------------------
 #p wb97xd/cc-pvdz sp scf=(maxcycles=20)
 ---------------------------------------

 ------------------
 Base pair stacking
 ------------------
 Symbolic Z-matrix:
 Charge =  0 Multiplicity = 1

                         Standard orientation:
 ---------------------------------------------------------------------
 Center     Atomic      Atomic             Coordinates (Angstroms)
 Number     Number       Type             X           Y           Z
 ---------------------------------------------------------------------
      1          7           0       -5.659966   -1.888719    1.169589
      2          6           0       -7.068680   -1.466344    1.292534
      3          6           0       -3.460741   -1.915406    1.173244
      4          7           0       -3.863586   -3.183141    0.779185
      5          6           0       -5.172417   -3.116330    0.792754
      6          1           0       -5.837996   -3.940469    0.534408
      7          7           0       -2.138396   -0.051514    1.756550
      8          6           0       -3.286294    0.605152    1.953330
      9          1           0       -3.180568    1.640645    2.273989
     10          7           0       -4.539289    0.176739    1.814118
     11          6           0       -4.556908   -1.106496    1.417354
     12          6           0       -2.189826   -1.341192    1.357612
     13          7           0       -1.045054   -1.998367    1.160659
     14          1           0       -1.035548   -2.954312    0.865215
     15          1           0       -0.158388   -1.557809    1.301643
     16          1           0       -7.532893   -2.041316    1.966405
     17          1           0       -7.106772   -0.511998    1.587331
     18          1           0       -7.524930   -1.558507    0.407479
     19          7           0       -3.131634    3.483419   -1.468699
     20          6           0       -1.880904    2.914504   -1.459887
     21          6           0       -3.415252    4.924170   -1.312262
     22          7           0        1.567954    3.235988   -1.207308
     23          1           0        2.368197    2.637384   -1.230001
     24          1           0        1.736176    4.213691   -1.078795
     25          7           0       -0.710324    3.570815   -1.308068
     26          6           0        0.324700    2.750382   -1.343007
     27          7           0        0.223275    1.390910   -1.513495
     28          1           0        1.068717    0.841364   -1.527464
     29          6           0       -0.970725    0.694326   -1.671621
     30          8           0       -0.952208   -0.533971   -1.818832
     31          6           0       -2.091519    1.562344   -1.636257
     32          7           0       -3.447189    1.287881   -1.753427
     33          6           0       -4.023624    2.454448   -1.648258
     34          1           0       -5.100275    2.621531   -1.694809
     35          1           0       -3.989888    5.066973   -0.507145
     36          1           0       -2.555582    5.420565   -1.199028
     37          1           0       -3.889657    5.262292   -2.124312
     38          1           0        5.585916   -1.396084   -0.863055
     39          1           0        5.587216   -1.446062   -2.624355
     40          1           0        4.779200   -0.124166   -1.781104
     41          1           0        2.650791   -5.127966   -1.640662
     42          6           0        2.626195   -4.038622   -1.671600
     43          8           0        0.257604   -3.908744   -1.677032
     44          6           0        1.362681   -3.367084   -1.691583
     45          1           0        0.572259   -1.480122   -1.745716
     46          7           0        1.444484   -1.989753   -1.730612
     47          8           0        2.557716   -0.011159   -1.785948
     48          6           0        2.586434   -1.228801   -1.751369
     49          1           0        4.743294   -3.786265   -1.677200
     50          6           0        3.757242   -3.323806   -1.691047
     51          6           0        5.011281   -1.178381   -1.751018
     52          7           0        3.764753   -1.948751   -1.730075
     53          1           0        4.555520    3.918297    3.210653
     54          1           0        3.288379    3.994820    2.185661
     55          1           0        4.811138    4.119180    1.611368
     56          1           0        2.512697   -2.923451    1.190025
     57          1           0        4.135044   -2.498421    1.502180
     58          7           0        3.184152   -2.208983    1.387099
     59          6           0        2.828378   -0.926957    1.491991
     60          6           0        3.213872    1.394211    1.845998
     61          7           0        1.929465    1.753812    1.686607
     62          1           0        0.113854    0.890351    1.288388
     63          6           0        1.174249    0.687225    1.431801
     64          7           0        1.528697   -0.597623    1.326346
     65          1           0        6.375556    1.781954    2.398796
     66          6           0        5.379425    1.390370    2.190663
     67          7           0        5.103486    0.125397    1.987243
     68          6           0        3.733701    0.113915    1.767473
     69          6           0        4.230192    3.678656    2.295917
     70          7           0        4.282727    2.214349    2.119722
 ---------------------------------------------------------------------

 SCF Done:  E(RwB97XD) =  -2048.74383463     A.U. after   15 cycles

 The electronic state is 1-A.
 Alpha  occ. eigenvalues --  -19.25950 -19.22271 -19.20640 -14.52595 -14.52235
 Alpha  occ. eigenvalues --  -14.48847 -14.48396 -14.47998 -14.47987 -14.46994
 Alpha  occ. eigenvalues --  -14.46717 -14.45264 -14.44171 -14.44083 -14.42077
 Alpha  occ. eigenvalues --  -14.41728 -14.40869 -14.40622 -14.40169 -14.39626
 Alpha  occ. eigenvalues --  -10.45606 -10.41271 -10.40391 -10.39843 -10.38253
 Alpha  occ. eigenvalues --  -10.38195 -10.37803 -10.36970 -10.35479 -10.35213
 Alpha  occ. eigenvalues --  -10.34803 -10.34382 -10.33758 -10.33330 -10.33318
 Alpha  occ. eigenvalues --  -10.32599 -10.32493 -10.32400 -10.31508 -10.31021
 Alpha  occ. eigenvalues --  -10.30280 -10.28135 -10.27785  -1.19546  -1.14976
 Alpha  occ. eigenvalues --   -1.13275  -1.13241  -1.10635  -1.10567  -1.09522
 Alpha  occ. eigenvalues --   -1.09189  -1.08595  -1.04761  -1.04338  -1.02648
 Alpha  occ. eigenvalues --   -1.00810  -0.99796  -0.99780  -0.98597  -0.96727
 Alpha  occ. eigenvalues --   -0.96644  -0.96202  -0.92017  -0.91387  -0.87421
 Alpha  occ. eigenvalues --   -0.85736  -0.84162  -0.83729  -0.83204  -0.82574
 Alpha  occ. eigenvalues --   -0.81617  -0.79137  -0.76894  -0.74719  -0.74603
 Alpha  occ. eigenvalues --   -0.73718  -0.73518  -0.72250  -0.70400  -0.70263
 Alpha  occ. eigenvalues --   -0.67437  -0.66750  -0.66710  -0.65652  -0.64617
 Alpha  occ. eigenvalues --   -0.64161  -0.63886  -0.62752  -0.62054  -0.61794
 Alpha  occ. eigenvalues --   -0.60461  -0.60055  -0.60043  -0.59723  -0.59411
 Alpha  occ. eigenvalues --   -0.59158  -0.58427  -0.56705  -0.56092  -0.55976
 Alpha  occ. eigenvalues --   -0.55640  -0.55149  -0.54831  -0.54592  -0.54358
 Alpha  occ. eigenvalues --   -0.53763  -0.53693  -0.53409  -0.53212  -0.53051
 Alpha  occ. eigenvalues --   -0.52608  -0.52536  -0.51107  -0.50266  -0.50008
 Alpha  occ. eigenvalues --   -0.49717  -0.49611  -0.49437  -0.49183  -0.48961
 Alpha  occ. eigenvalues --   -0.48405  -0.48288  -0.48194  -0.47785  -0.47421
 Alpha  occ. eigenvalues --   -0.46257  -0.45708  -0.45120  -0.44257  -0.44082
 Alpha  occ. eigenvalues --   -0.40502  -0.40420  -0.39526  -0.37648  -0.37433
 Alpha  occ. eigenvalues --   -0.37327  -0.37216  -0.36413  -0.35969  -0.34811
 Alpha  occ. eigenvalues --   -0.34251  -0.33757  -0.33381  -0.32851  -0.32787
 Alpha  occ. eigenvalues --   -0.32710  -0.32406  -0.32247  -0.31882  -0.30216
 Alpha  occ. eigenvalues --   -0.29966  -0.29747  -0.25605  -0.24985
 Alpha virt. eigenvalues --    0.02510   0.04265   0.07246   0.08235   0.08731
 Alpha virt. eigenvalues --    0.09208   0.09700   0.10762   0.11238   0.11755
 Alpha virt. eigenvalues --    0.12448   0.14128   0.14472   0.14966   0.15054

 Mulliken charges:
               1
     1  N   -0.312704
     2  C    0.182000
     3  C    0.041225
     4  N   -0.257156
     5  C    0.135400
     6  H    0.024513
     7  N   -0.300233
     8  C    0.142172
     9  H    0.007252
    10  N   -0.290162
    11  C    0.256118
    12  C    0.118243
    13  N   -0.061852
    14  H    0.112299
    15  H    0.081439
    16  H    0.022590
    17  H    0.032847
    18  H    0.026628
    19  N   -0.312268
    20  C    0.247735
    21  C    0.180928
    22  N   -0.111665
    23  H    0.113934
    24  H    0.114313
    25  N   -0.309729
    26  C    0.239419
    27  N   -0.148240
    28  H    0.121952
    29  C    0.190147
    30  O   -0.320540
    31  C   -0.008797
    32  N   -0.225181
    33  C    0.129730
    34  H    0.025518
    35  H    0.028274
    36  H    0.028605
    37  H    0.024924
    38  H    0.058194
    39  H    0.060287
    40  H    0.076393
    41  H    0.032436
    42  C   -0.115314
    43  O   -0.261504
    44  C    0.166284
    45  H    0.132889
    46  N   -0.120876
    47  O   -0.345017
    48  C    0.341727
    49  H    0.046382
    50  C    0.156051
    51  C    0.040379
    52  N   -0.278623
    53  H    0.034669
    54  H    0.042548
    55  H    0.026259
    56  H    0.119540
    57  H    0.115402
    58  N   -0.063967
    59  C    0.091886
    60  C    0.239492
    61  N   -0.266825
    62  H    0.041716
    63  C    0.165848
    64  N   -0.308579
    65  H    0.036786
    66  C    0.138500
    67  N   -0.269921
    68  C    0.032856
    69  C    0.177774
    70  N   -0.313349
 Sum of Mulliken charges =  -0.00000

 Dipole moment (field-independent basis, Debye):
    X=              9.6901    Y=              5.0057    Z=              0.8332  Tot=             10.9385
 Quadrupole moment (field-independent basis, Debye-Ang):
   XX=           -166.7965   YY=           -207.2684   ZZ=           -251.1119
   XY=             -7.5850   XZ=             -4.4358   YZ=             -2.5870

 Normal termination of Gaussian 16 at Fri Jan 26 21:12:50 2018.
