 Gaussian 16, Revision A.03,
 Gaussian 16:  EM64L-G16RevA.03 25-Dec-2016

 ---------------------------------------
 #p wb97xd/cc-pvdz sp scf=(maxcycles=20)
 ---------------------------------------

 ------------------
 Base pair stacking
 ------------------
 Symbolic Z-matrix:
 Charge =  0 Multiplicity = 1

                         Standard orientation:
 ---------------------------------------------------------------------
 Center     Atomic      Atomic             Coordinates (Angstroms)
 Number     Number       Type             X           Y           Z
 ---------------------------------------------------------------------
      1          7           0       -6.130039   -1.684081    0.826545
      2          6           0       -7.522632   -1.243445    0.615536
      3          6           0       -3.950350   -1.710779    1.119025
      4          7           0       -4.360959   -3.035807    1.139773
      5          6           0       -5.657709   -2.966693    0.962736
      6          1           0       -6.324797   -3.828285    0.922818
      7          7           0       -2.623000    0.237732    1.185098
      8          6           0       -3.754969    0.923332    0.994902
      9          1           0       -3.640944    2.005512    0.948420
     10          7           0       -5.000783    0.474971    0.854167
     11          6           0       -5.029691   -0.866046    0.926780
     12          6           0       -2.685466   -1.110037    1.253609
     13          7           0       -1.556597   -1.796172    1.443427
     14          1           0       -1.555689   -2.795148    1.500510
     15          1           0       -0.673777   -1.335303    1.534988
     16          1           0       -8.089364   -1.546667    1.381720
     17          1           0       -7.551890   -0.246160    0.554761
     18          1           0       -7.874237   -1.637885   -0.233458
     19          7           0       -2.668952    3.195458   -1.560953
     20          6           0       -1.426524    2.635848   -1.384167
     21          6           0       -3.007903    4.613381   -1.325728
     22          7           0        1.917016    2.953088   -0.499942
     23          1           0        2.722194    2.364138   -0.436067
     24          1           0        2.038161    3.915374   -0.254904
     25          7           0       -0.315556    3.282070   -0.969201
     26          6           0        0.727851    2.474856   -0.896286
     27          7           0        0.688397    1.136849   -1.205632
     28          1           0        1.535424    0.596194   -1.120758
     29          6           0       -0.443616    0.450984   -1.634588
     30          8           0       -0.372021   -0.757902   -1.887998
     31          6           0       -1.572594    1.305008   -1.717832
     32          7           0       -2.880408    1.034557   -2.096485
     33          6           0       -3.492458    2.182549   -1.988148
     34          1           0       -4.547904    2.346726   -2.208048
     35          1           0       -3.717432    4.676343   -0.624738
     36          1           0       -2.192633    5.102132   -1.017962
     37          1           0       -3.340598    5.023465   -2.174223
     38          1           0        5.916244   -1.666357    0.121043
     39          1           0        6.226396   -1.550484   -1.609571
     40          1           0        5.253927   -0.318665   -0.804401
     41          1           0        3.246891   -5.326327   -1.499371
     42          6           0        3.203565   -4.239071   -1.434337
     43          8           0        0.870046   -4.123640   -1.844806
     44          6           0        1.948192   -3.576311   -1.614948
     45          1           0        1.137127   -1.697458   -1.634512
     46          7           0        2.004535   -2.200948   -1.512765
     47          8           0        3.065494   -0.219191   -1.189946
     48          6           0        3.115125   -1.434490   -1.262415
     49          1           0        5.282847   -3.974457   -1.043983
     50          6           0        4.304239   -3.518746   -1.188853
     51          6           0        5.500851   -1.369612   -0.830513
     52          7           0        4.287494   -2.146089   -1.099957
     53          1           0        4.024904    4.456393    2.016102
     54          1           0        2.893333    4.172339    0.875511
     55          1           0        4.477611    4.086551    0.492391
     56          1           0        1.926521   -2.657724    2.243334
     57          1           0        3.517991   -2.152704    2.593010
     58          7           0        2.601711   -1.920297    2.264945
     59          6           0        2.294873   -0.681699    1.873899
     60          6           0        2.741103    1.616665    1.449468
     61          7           0        1.502490    1.899829    1.013506
     62          1           0       -0.290460    0.954145    0.710823
     63          6           0        0.735011    0.812363    1.049313
     64          7           0        1.040468   -0.429065    1.440640
     65          1           0        5.829102    2.168603    2.231643
     66          6           0        4.847925    1.730359    2.046794
     67          7           0        4.540668    0.474235    2.259956
     68          6           0        3.207605    0.388680    1.885310
     69          6           0        3.799955    3.913223    1.207182
     70          7           0        3.806173    2.479334    1.556377
 ---------------------------------------------------------------------

 SCF Done:  E(RwB97XD) =  -2048.57430711     A.U. after   16 cycles

 The electronic state is 1-A.
 Alpha  occ. eigenvalues --  -19.25895 -19.21806 -19.20873 -14.52804 -14.52358
 Alpha  occ. eigenvalues --  -14.49017 -14.48543 -14.47780 -14.47748 -14.47004
 Alpha  occ. eigenvalues --  -14.45549 -14.45369 -14.43329 -14.42519 -14.42291
 Alpha  occ. eigenvalues --  -14.42202 -14.41259 -14.40929 -14.40633 -14.39954
 Alpha  occ. eigenvalues --  -10.45453 -10.40846 -10.39946 -10.39030 -10.38358
 Alpha  occ. eigenvalues --  -10.37838 -10.37727 -10.36591 -10.35307 -10.34978
 Alpha  occ. eigenvalues --  -10.34835 -10.34561 -10.34486 -10.33920 -10.33445
 Alpha  occ. eigenvalues --  -10.33144 -10.32877 -10.32080 -10.31142 -10.31061
 Alpha  occ. eigenvalues --  -10.30732 -10.28351 -10.28343  -1.19447  -1.15710
 Alpha  occ. eigenvalues --   -1.13886  -1.12862  -1.11134  -1.10902  -1.10069
 Alpha  occ. eigenvalues --   -1.09257  -1.08319  -1.04817  -1.04617  -1.02390
 Alpha  occ. eigenvalues --   -1.01635  -1.00401  -1.00288  -0.98943  -0.96874
 Alpha  occ. eigenvalues --   -0.96813  -0.95974  -0.92480  -0.90971  -0.87765
 Alpha  occ. eigenvalues --   -0.86539  -0.84382  -0.83733  -0.83479  -0.82787
 Alpha  occ. eigenvalues --   -0.82130  -0.78821  -0.77184  -0.75544  -0.75010
 Alpha  occ. eigenvalues --   -0.73526  -0.73252  -0.72770  -0.70888  -0.70576
 Alpha  occ. eigenvalues --   -0.68120  -0.66825  -0.66497  -0.66191  -0.64942
 Alpha  occ. eigenvalues --   -0.64510  -0.63837  -0.63367  -0.62826  -0.62513
 Alpha  occ. eigenvalues --   -0.61177  -0.60624  -0.60241  -0.59695  -0.59474
 Alpha  occ. eigenvalues --   -0.59400  -0.58835  -0.57854  -0.56467  -0.56341
 Alpha  occ. eigenvalues --   -0.56145  -0.56129  -0.55329  -0.54762  -0.54277
 Alpha  occ. eigenvalues --   -0.54159  -0.53655  -0.53188  -0.53088  -0.52909
 Alpha  occ. eigenvalues --   -0.52291  -0.52131  -0.51566  -0.50647  -0.50336
 Alpha  occ. eigenvalues --   -0.50067  -0.49540  -0.49404  -0.49124  -0.48842
 Alpha  occ. eigenvalues --   -0.48808  -0.48423  -0.48230  -0.47901  -0.47469
 Alpha  occ. eigenvalues --   -0.46913  -0.46471  -0.44902  -0.43861  -0.43226
 Alpha  occ. eigenvalues --   -0.41280  -0.40865  -0.39536  -0.38116  -0.37779
 Alpha  occ. eigenvalues --   -0.37487  -0.37005  -0.36531  -0.35845  -0.35145
 Alpha  occ. eigenvalues --   -0.34249  -0.33561  -0.33308  -0.33104  -0.32729
 Alpha  occ. eigenvalues --   -0.32548  -0.32013  -0.31867  -0.30585  -0.30265
 Alpha  occ. eigenvalues --   -0.29198  -0.27352  -0.25571  -0.23792
 Alpha virt. eigenvalues --    0.03175   0.04526   0.07252   0.08175   0.08321
 Alpha virt. eigenvalues --    0.08867   0.09277   0.11143   0.11486   0.11852
 Alpha virt. eigenvalues --    0.12491   0.13908   0.14205   0.14509   0.14956

 Mulliken charges:
               1
     1  N   -0.312805
     2  C    0.181844
     3  C    0.035374
     4  N   -0.261391
     5  C    0.134787
     6  H    0.025889
     7  N   -0.290514
     8  C    0.153797
     9  H    0.003206
    10  N   -0.291395
    11  C    0.252955
    12  C    0.122075
    13  N   -0.062739
    14  H    0.106461
    15  H    0.084025
    16  H    0.023873
    17  H    0.033201
    18  H    0.027409
    19  N   -0.308443
    20  C    0.239202
    21  C    0.181904
    22  N   -0.051447
    23  H    0.110458
    24  H    0.099082
    25  N   -0.282487
    26  C    0.215573
    27  N   -0.124257
    28  H    0.124691
    29  C    0.151897
    30  O   -0.315142
    31  C    0.025543
    32  N   -0.219004
    33  C    0.119141
    34  H    0.027624
    35  H    0.027786
    36  H    0.028056
    37  H    0.025564
    38  H    0.060132
    39  H    0.058025
    40  H    0.077024
    41  H    0.031928
    42  C   -0.111408
    43  O   -0.260936
    44  C    0.177168
    45  H    0.132811
    46  N   -0.131076
    47  O   -0.346839
    48  C    0.353485
    49  H    0.046878
    50  C    0.166081
    51  C    0.042585
    52  N   -0.292961
    53  H    0.040399
    54  H    0.022910
    55  H    0.034465
    56  H    0.117328
    57  H    0.113932
    58  N   -0.073013
    59  C    0.079716
    60  C    0.247300
    61  N   -0.335272
    62  H    0.032360
    63  C    0.174541
    64  N   -0.301969
    65  H    0.035354
    66  C    0.133833
    67  N   -0.263355
    68  C    0.051321
    69  C    0.172955
    70  N   -0.327498
 Sum of Mulliken charges =  -0.00000

 Dipole moment (field-independent basis, Debye):
    X=              8.6726    Y=              5.0004    Z=              2.9011  Tot=             10.4228
 Quadrupole moment (field-independent basis, Debye-Ang):
   XX=           -162.1250   YY=           -210.3828   ZZ=           -256.2043
   XY=             -6.3026   XZ=              1.3766   YZ=            -11.1433

 Normal termination of Gaussian 16 at Sat Jan 27 04:46:11 2018.
