 Gaussian 16, Revision A.03,
 Gaussian 16:  EM64L-G16RevA.03 25-Dec-2016

 ---------------------------------------
 #p wb97xd/cc-pvdz sp scf=(maxcycles=20)
 ---------------------------------------

 ------------------
 Base pair stacking
 ------------------
 Symbolic Z-matrix:
 Charge =  0 Multiplicity = 1

                         Standard orientation:
 ---------------------------------------------------------------------
 Center     Atomic      Atomic             Coordinates (Angstroms)
 Number     Number       Type             X           Y           Z
 ---------------------------------------------------------------------
      1          7           0       -6.000036   -1.801746    0.891262
      2          6           0       -7.409477   -1.383483    1.019904
      3          6           0       -3.801777   -1.844418    0.947611
      4          7           0       -4.200229   -3.064097    0.420014
      5          6           0       -5.508647   -2.989572    0.407187
      6          1           0       -6.171167   -3.779348    0.051866
      7          7           0       -2.486267   -0.056805    1.745613
      8          6           0       -3.635781    0.585405    1.977441
      9          1           0       -3.533553    1.583374    2.401567
     10          7           0       -4.886753    0.181839    1.765029
     11          6           0       -4.900114   -1.055747    1.242905
     12          6           0       -2.533391   -1.300355    1.219836
     13          7           0       -1.386983   -1.943042    0.987700
     14          1           0       -1.374303   -2.865161    0.599431
     15          1           0       -0.502207   -1.524943    1.193856
     16          1           0       -7.893553   -2.018888    1.621662
     17          1           0       -7.450713   -0.462693    1.406642
     18          1           0       -7.843195   -1.384474    0.118861
     19          7           0       -2.713689    3.551708   -1.655463
     20          6           0       -1.474936    2.958846   -1.610164
     21          6           0       -2.968613    5.003917   -1.572942
     22          7           0        1.978344    3.222928   -1.351530
     23          1           0        2.766275    2.607915   -1.339142
     24          1           0        2.165837    4.202243   -1.270862
     25          7           0       -0.292025    3.598187   -1.483673
     26          6           0        0.726169    2.756315   -1.470914
     27          7           0        0.597874    1.392340   -1.574021
     28          1           0        1.431947    0.825844   -1.555073
     29          6           0       -0.609245    0.712954   -1.704968
     30          8           0       -0.615077   -0.521301   -1.790592
     31          6           0       -1.712220    1.604077   -1.720221
     32          7           0       -3.072553    1.351507   -1.832355
     33          6           0       -3.625556    2.533259   -1.789256
     34          1           0       -4.698296    2.719482   -1.851078
     35          1           0       -3.544608    5.198360   -0.779697
     36          1           0       -2.099597    5.487911   -1.479024
     37          1           0       -3.431541    5.310504   -2.403911
     38          1           0        5.898703   -1.466236   -0.750564
     39          1           0        5.908619   -1.604249   -2.507116
     40          1           0        5.123232   -0.225806   -1.736130
     41          1           0        2.892102   -5.172369   -1.360087
     42          6           0        2.889986   -4.085668   -1.445481
     43          8           0        0.524614   -3.908468   -1.472767
     44          6           0        1.640608   -3.390622   -1.507150
     45          1           0        0.889290   -1.493161   -1.660472
     46          7           0        1.750795   -2.018897   -1.614301
     47          8           0        2.904587   -0.068399   -1.761032
     48          6           0        2.908188   -1.283116   -1.665570
     49          1           0        5.011801   -3.876662   -1.449914
     50          6           0        4.035519   -3.395673   -1.493219
     51          6           0        5.333517   -1.281658   -1.651986
     52          7           0        4.071383   -2.024720   -1.600738
     53          1           0        4.186334    3.701808    3.753475
     54          1           0        2.946390    3.888316    2.709518
     55          1           0        4.484000    4.057899    2.188861
     56          1           0        2.164501   -2.891981    1.014913
     57          1           0        3.780226   -2.511513    1.408334
     58          7           0        2.833965   -2.205314    1.298563
     59          6           0        2.481559   -0.937410    1.520824
     60          6           0        2.868590    1.334597    2.112392
     61          7           0        1.590395    1.717386    1.957091
     62          1           0       -0.218347    0.910532    1.429803
     63          6           0        0.837043    0.686632    1.579049
     64          7           0        1.188118   -0.584011    1.355921
     65          1           0        6.016744    1.643153    2.780254
     66          6           0        5.024498    1.281194    2.509395
     67          7           0        4.748013    0.044520    2.174903
     68          6           0        3.384310    0.064637    1.920669
     69          6           0        3.883575    3.556067    2.811616
     70          7           0        3.933827    2.115991    2.492756
 ---------------------------------------------------------------------

 SCF Done:  E(RwB97XD) =  -2048.74208712     A.U. after   15 cycles

 The electronic state is 1-A.
 Alpha  occ. eigenvalues --  -19.26313 -19.22810 -19.20811 -14.52935 -14.51913
 Alpha  occ. eigenvalues --  -14.48951 -14.48295 -14.47970 -14.47952 -14.47191
 Alpha  occ. eigenvalues --  -14.47046 -14.44983 -14.43784 -14.43704 -14.42262
 Alpha  occ. eigenvalues --  -14.41340 -14.40963 -14.40573 -14.40045 -14.39404
 Alpha  occ. eigenvalues --  -10.45948 -10.41499 -10.40829 -10.39466 -10.38518
 Alpha  occ. eigenvalues --  -10.38415 -10.37512 -10.36621 -10.35464 -10.35129
 Alpha  occ. eigenvalues --  -10.34574 -10.34530 -10.33436 -10.33412 -10.33268
 Alpha  occ. eigenvalues --  -10.32513 -10.32274 -10.32161 -10.31836 -10.31096
 Alpha  occ. eigenvalues --  -10.30288 -10.28283 -10.27670  -1.19889  -1.14652
 Alpha  occ. eigenvalues --   -1.13760  -1.13421  -1.10763  -1.10512  -1.09865
 Alpha  occ. eigenvalues --   -1.08839  -1.08798  -1.04405  -1.04151  -1.03013
 Alpha  occ. eigenvalues --   -1.00491  -1.00059  -0.99571  -0.98756  -0.96761
 Alpha  occ. eigenvalues --   -0.96387  -0.96079  -0.91811  -0.91726  -0.87090
 Alpha  occ. eigenvalues --   -0.85408  -0.84304  -0.84022  -0.83139  -0.82690
 Alpha  occ. eigenvalues --   -0.81545  -0.79483  -0.76565  -0.74838  -0.74275
 Alpha  occ. eigenvalues --   -0.73976  -0.73823  -0.72097  -0.70241  -0.69972
 Alpha  occ. eigenvalues --   -0.67652  -0.67036  -0.66397  -0.65493  -0.64892
 Alpha  occ. eigenvalues --   -0.64068  -0.63859  -0.62933  -0.62003  -0.61880
 Alpha  occ. eigenvalues --   -0.60329  -0.60068  -0.60024  -0.59766  -0.59182
 Alpha  occ. eigenvalues --   -0.58904  -0.58682  -0.56796  -0.56360  -0.55826
 Alpha  occ. eigenvalues --   -0.55639  -0.54902  -0.54832  -0.54603  -0.54386
 Alpha  occ. eigenvalues --   -0.53945  -0.53698  -0.53349  -0.53231  -0.53048
 Alpha  occ. eigenvalues --   -0.52817  -0.52288  -0.51041  -0.50459  -0.49937
 Alpha  occ. eigenvalues --   -0.49895  -0.49509  -0.49281  -0.49228  -0.49026
 Alpha  occ. eigenvalues --   -0.48537  -0.48460  -0.48081  -0.47932  -0.47637
 Alpha  occ. eigenvalues --   -0.46158  -0.45806  -0.44748  -0.44373  -0.44207
 Alpha  occ. eigenvalues --   -0.40271  -0.40143  -0.39829  -0.37524  -0.37468
 Alpha  occ. eigenvalues --   -0.37446  -0.37007  -0.36324  -0.36239  -0.34590
 Alpha  occ. eigenvalues --   -0.34090  -0.33893  -0.33706  -0.32933  -0.32752
 Alpha  occ. eigenvalues --   -0.32659  -0.32649  -0.32382  -0.32003  -0.30100
 Alpha  occ. eigenvalues --   -0.29676  -0.29552  -0.25761  -0.24813
 Alpha virt. eigenvalues --    0.02157   0.04514   0.07681   0.07852   0.08808
 Alpha virt. eigenvalues --    0.09081   0.09547   0.11030   0.11456   0.11898
 Alpha virt. eigenvalues --    0.12647   0.14165   0.14361   0.15081   0.15119

 Mulliken charges:
               1
     1  N   -0.312060
     2  C    0.181594
     3  C    0.038441
     4  N   -0.256592
     5  C    0.133341
     6  H    0.023814
     7  N   -0.300132
     8  C    0.141798
     9  H    0.007023
    10  N   -0.292929
    11  C    0.250327
    12  C    0.120627
    13  N   -0.056178
    14  H    0.113908
    15  H    0.083999
    16  H    0.023046
    17  H    0.033093
    18  H    0.025359
    19  N   -0.312178
    20  C    0.248832
    21  C    0.181023
    22  N   -0.120891
    23  H    0.115137
    24  H    0.116046
    25  N   -0.309969
    26  C    0.244872
    27  N   -0.145717
    28  H    0.115947
    29  C    0.186867
    30  O   -0.319058
    31  C   -0.007876
    32  N   -0.224144
    33  C    0.129488
    34  H    0.027455
    35  H    0.028618
    36  H    0.028576
    37  H    0.025267
    38  H    0.062819
    39  H    0.060160
    40  H    0.077025
    41  H    0.034184
    42  C   -0.109722
    43  O   -0.261264
    44  C    0.144670
    45  H    0.134096
    46  N   -0.115897
    47  O   -0.344000
    48  C    0.342342
    49  H    0.049116
    50  C    0.153436
    51  C    0.041256
    52  N   -0.278832
    53  H    0.033154
    54  H    0.044503
    55  H    0.024471
    56  H    0.126795
    57  H    0.115332
    58  N   -0.070647
    59  C    0.092090
    60  C    0.240987
    61  N   -0.266057
    62  H    0.041864
    63  C    0.170076
    64  N   -0.309079
    65  H    0.034816
    66  C    0.137079
    67  N   -0.271446
    68  C    0.033219
    69  C    0.179387
    70  N   -0.312706
 Sum of Mulliken charges =  -0.00000

 Dipole moment (field-independent basis, Debye):
    X=              9.9813    Y=              4.9142    Z=              0.4156  Tot=             11.1332
 Quadrupole moment (field-independent basis, Debye-Ang):
   XX=           -164.6916   YY=           -207.3627   ZZ=           -249.0031
   XY=             -7.7298   XZ=             -0.0978   YZ=             -1.1264

 Normal termination of Gaussian 16 at Sat Jan 27 04:33:22 2018.
