 Gaussian 16, Revision A.03,
 Gaussian 16:  EM64L-G16RevA.03 25-Dec-2016

 ---------------------------------------
 #p wb97xd/cc-pvdz sp scf=(maxcycles=20)
 ---------------------------------------

 ------------------
 Base pair stacking
 ------------------
 Symbolic Z-matrix:
 Charge =  0 Multiplicity = 1

                         Standard orientation:
 ---------------------------------------------------------------------
 Center     Atomic      Atomic             Coordinates (Angstroms)
 Number     Number       Type             X           Y           Z
 ---------------------------------------------------------------------
      1          7           0       -6.993512   -1.607021    0.163956
      2          6           0       -8.396654   -1.167950    0.035858
      3          6           0       -4.821074   -1.645674    0.505022
      4          7           0       -5.182633   -2.939545    0.158767
      5          6           0       -6.476980   -2.864478   -0.032852
      6          1           0       -7.110663   -3.703509   -0.321648
      7          7           0       -3.568572    0.252869    1.129302
      8          6           0       -4.720863    0.930086    1.094595
      9          1           0       -4.646059    1.988091    1.342176
     10          7           0       -5.945905    0.498616    0.801358
     11          6           0       -5.926632   -0.813090    0.512434
     12          6           0       -3.582492   -1.065250    0.833608
     13          7           0       -2.433274   -1.742972    0.867699
     14          1           0       -2.396562   -2.720244    0.656040
     15          1           0       -1.570309   -1.297193    1.105841
     16          1           0       -8.967993   -1.682181    0.675646
     17          1           0       -8.461550   -0.192175    0.242653
     18          1           0       -8.715181   -1.330955   -0.897935
     19          7           0       -1.589508    3.216810   -1.921540
     20          6           0       -0.365129    2.643594   -1.675828
     21          6           0       -1.867225    4.667165   -1.928098
     22          7           0        3.010947    2.965611   -0.927411
     23          1           0        3.794353    2.362706   -0.778991
     24          1           0        3.175575    3.949659   -0.854843
     25          7           0        0.780720    3.303680   -1.401298
     26          6           0        1.793957    2.477383   -1.211062
     27          7           0        1.694750    1.109026   -1.283672
     28          1           0        2.522379    0.555484   -1.123767
     29          6           0        0.525977    0.408413   -1.564713
     30          8           0        0.544173   -0.827971   -1.606797
     31          6           0       -0.571223    1.282648   -1.771475
     32          7           0       -1.898280    1.007003   -2.071209
     33          6           0       -2.462621    2.181498   -2.150566
     34          1           0       -3.516570    2.350172   -2.374170
     35          1           0       -2.554482    4.879769   -1.234349
     36          1           0       -1.025717    5.166427   -1.725945
     37          1           0       -2.206906    4.939128   -2.827801
     38          1           0        6.845260   -1.644199    0.401647
     39          1           0        7.112422   -1.840740   -1.328855
     40          1           0        6.210245   -0.448663   -0.729206
     41          1           0        3.994223   -5.411328   -0.507692
     42          6           0        3.994468   -4.328227   -0.630670
     43          8           0        1.656797   -4.185940   -1.007716
     44          6           0        2.761020   -3.653596   -0.897707
     45          1           0        2.022464   -1.773288   -1.225278
     46          7           0        2.872894   -2.284795   -1.035895
     47          8           0        4.017562   -0.323967   -1.081880
     48          6           0        4.018499   -1.534639   -0.944234
     49          1           0        6.092233   -4.089119   -0.333966
     50          6           0        5.128256   -3.623884   -0.535622
     51          6           0        6.415825   -1.497996   -0.578296
     52          7           0        5.166667   -2.256924   -0.684941
     53          1           0        2.899120    4.292321    3.258646
     54          1           0        1.803468    4.290315    2.049658
     55          1           0        3.397659    4.357840    1.706034
     56          1           0        1.061508   -2.682379    1.514424
     57          1           0        2.625331   -2.241950    2.034588
     58          7           0        1.708280   -1.957763    1.752690
     59          6           0        1.364164   -0.669477    1.697296
     60          6           0        1.733864    1.670908    1.915628
     61          7           0        0.495186    2.023198    1.533521
     62          1           0       -1.254598    1.139786    0.934835
     63          6           0       -0.232044    0.943353    1.254301
     64          7           0        0.110795   -0.347785    1.309168
     65          1           0        4.781864    2.085585    2.910551
     66          6           0        3.821778    1.683621    2.585594
     67          7           0        3.556812    0.407670    2.446231
     68          6           0        2.236143    0.385621    2.021863
     69          6           0        2.711788    3.979146    2.327606
     70          7           0        2.763692    2.504978    2.281380
 ---------------------------------------------------------------------

 SCF Done:  E(RwB97XD) =  -2048.74084333     A.U. after   15 cycles

 The electronic state is 1-A.
 Alpha  occ. eigenvalues --  -19.26214 -19.22632 -19.20953 -14.52892 -14.51138
 Alpha  occ. eigenvalues --  -14.49059 -14.48668 -14.48306 -14.47603 -14.47369
 Alpha  occ. eigenvalues --  -14.46737 -14.44225 -14.42693 -14.42668 -14.42474
 Alpha  occ. eigenvalues --  -14.41951 -14.41358 -14.41048 -14.40715 -14.39945
 Alpha  occ. eigenvalues --  -10.45877 -10.41745 -10.40688 -10.38601 -10.38429
 Alpha  occ. eigenvalues --  -10.38304 -10.36768 -10.35733 -10.35558 -10.35229
 Alpha  occ. eigenvalues --  -10.34650 -10.34155 -10.34014 -10.33526 -10.33243
 Alpha  occ. eigenvalues --  -10.32925 -10.32899 -10.31587 -10.31267 -10.31134
 Alpha  occ. eigenvalues --  -10.30841 -10.28470 -10.28421  -1.19823  -1.13931
 Alpha  occ. eigenvalues --   -1.13617  -1.13562  -1.11252  -1.10898  -1.09775
 Alpha  occ. eigenvalues --   -1.09093  -1.07759  -1.04798  -1.03388  -1.02954
 Alpha  occ. eigenvalues --   -1.00474  -1.00244  -0.99657  -0.98910  -0.96881
 Alpha  occ. eigenvalues --   -0.96850  -0.95306  -0.92435  -0.91530  -0.86308
 Alpha  occ. eigenvalues --   -0.84720  -0.84453  -0.84035  -0.83821  -0.82809
 Alpha  occ. eigenvalues --   -0.82196  -0.79350  -0.75675  -0.75003  -0.74201
 Alpha  occ. eigenvalues --   -0.73814  -0.73341  -0.72754  -0.70900  -0.69075
 Alpha  occ. eigenvalues --   -0.67897  -0.66999  -0.66153  -0.65438  -0.64865
 Alpha  occ. eigenvalues --   -0.64145  -0.63084  -0.62919  -0.62499  -0.62317
 Alpha  occ. eigenvalues --   -0.60063  -0.59983  -0.59953  -0.59222  -0.59097
 Alpha  occ. eigenvalues --   -0.58867  -0.58308  -0.56921  -0.56361  -0.56343
 Alpha  occ. eigenvalues --   -0.56278  -0.55218  -0.54851  -0.54763  -0.54033
 Alpha  occ. eigenvalues --   -0.54027  -0.53740  -0.53319  -0.52797  -0.52506
 Alpha  occ. eigenvalues --   -0.52188  -0.51605  -0.51527  -0.50588  -0.50526
 Alpha  occ. eigenvalues --   -0.50035  -0.49835  -0.49262  -0.49067  -0.48895
 Alpha  occ. eigenvalues --   -0.48628  -0.48552  -0.48227  -0.47778  -0.47659
 Alpha  occ. eigenvalues --   -0.46804  -0.45509  -0.44950  -0.44537  -0.43289
 Alpha  occ. eigenvalues --   -0.40999  -0.39804  -0.39416  -0.37797  -0.37627
 Alpha  occ. eigenvalues --   -0.37031  -0.36959  -0.36165  -0.35602  -0.35031
 Alpha  occ. eigenvalues --   -0.33753  -0.33460  -0.33360  -0.33066  -0.32988
 Alpha  occ. eigenvalues --   -0.32701  -0.32533  -0.32439  -0.32136  -0.30782
 Alpha  occ. eigenvalues --   -0.30172  -0.28583  -0.25848  -0.25613
 Alpha virt. eigenvalues --    0.02558   0.05274   0.07871   0.08114   0.08254
 Alpha virt. eigenvalues --    0.09187   0.09412   0.11147   0.11399   0.12221
 Alpha virt. eigenvalues --    0.12674   0.14037   0.14466   0.14616   0.15001

 Mulliken charges:
               1
     1  N   -0.310905
     2  C    0.181156
     3  C    0.029000
     4  N   -0.258779
     5  C    0.133084
     6  H    0.026072
     7  N   -0.292484
     8  C    0.134720
     9  H    0.008470
    10  N   -0.290267
    11  C    0.242989
    12  C    0.125401
    13  N   -0.056161
    14  H    0.109898
    15  H    0.090475
    16  H    0.025004
    17  H    0.034904
    18  H    0.025793
    19  N   -0.310990
    20  C    0.254696
    21  C    0.182495
    22  N   -0.115561
    23  H    0.117510
    24  H    0.118107
    25  N   -0.293905
    26  C    0.213228
    27  N   -0.121993
    28  H    0.118981
    29  C    0.163578
    30  O   -0.319183
    31  C   -0.011215
    32  N   -0.218134
    33  C    0.129511
    34  H    0.031178
    35  H    0.029740
    36  H    0.027282
    37  H    0.025343
    38  H    0.062851
    39  H    0.060295
    40  H    0.076399
    41  H    0.033416
    42  C   -0.110195
    43  O   -0.268363
    44  C    0.160374
    45  H    0.134680
    46  N   -0.129872
    47  O   -0.347079
    48  C    0.356543
    49  H    0.050364
    50  C    0.170642
    51  C    0.043111
    52  N   -0.296980
    53  H    0.031536
    54  H    0.046135
    55  H    0.006731
    56  H    0.128032
    57  H    0.111197
    58  N   -0.065460
    59  C    0.092693
    60  C    0.232544
    61  N   -0.257939
    62  H    0.048150
    63  C    0.156000
    64  N   -0.295719
    65  H    0.027937
    66  C    0.122734
    67  N   -0.265891
    68  C    0.027724
    69  C    0.180389
    70  N   -0.302015
 Sum of Mulliken charges =  -0.00000

 Dipole moment (field-independent basis, Debye):
    X=              9.3787    Y=              4.6487    Z=              1.5991  Tot=             10.5891
 Quadrupole moment (field-independent basis, Debye-Ang):
   XX=           -154.0044   YY=           -210.0025   ZZ=           -249.5847
   XY=             -3.4665   XZ=             11.2257   YZ=             -7.5618

 Normal termination of Gaussian 16 at Fri Jan 26 23:16:48 2018.
