 Gaussian 16, Revision A.03,
 Gaussian 16:  EM64L-G16RevA.03 25-Dec-2016

 ---------------------------------------
 #p wb97xd/cc-pvdz sp scf=(maxcycles=20)
 ---------------------------------------

 ------------------
 Base pair stacking
 ------------------
 Symbolic Z-matrix:
 Charge =  0 Multiplicity = 1

                         Standard orientation:
 ---------------------------------------------------------------------
 Center     Atomic      Atomic             Coordinates (Angstroms)
 Number     Number       Type             X           Y           Z
 ---------------------------------------------------------------------
      1          7           0        5.594832   -1.826226   -1.212306
      2          6           0        7.003295   -1.386463   -1.182934
      3          6           0        3.397661   -1.852340   -1.307401
      4          7           0        3.796825   -3.175908   -1.190926
      5          6           0        5.104571   -3.107200   -1.138292
      6          1           0        5.767368   -3.967939   -1.044738
      7          7           0        2.081423    0.094220   -1.510902
      8          6           0        3.229916    0.778724   -1.511294
      9          1           0        3.126990    1.859644   -1.596567
     10          7           0        4.480598    0.330558   -1.422584
     11          6           0        4.494877   -1.008876   -1.321926
     12          6           0        2.129459   -1.251976   -1.408243
     13          7           0        0.984079   -1.937018   -1.407673
     14          1           0        0.972097   -2.934814   -1.333689
     15          1           0        0.099408   -1.476474   -1.481147
     16          1           0        7.497881   -1.796156   -1.949566
     17          1           0        7.043826   -0.390368   -1.255535
     18          1           0        7.426543   -1.673852   -0.323719
     19          7           0        3.239899    3.322495    1.379566
     20          6           0        1.984761    2.766240    1.322271
     21          6           0        3.555188    4.744750    1.137767
     22          7           0       -1.432028    3.100102    0.797122
     23          1           0       -2.240581    2.512390    0.806036
     24          1           0       -1.576203    4.066946    0.584633
     25          7           0        0.837864    3.420236    1.037738
     26          6           0       -0.208983    2.614434    1.058240
     27          7           0       -0.140067    1.270696    1.335920
     28          1           0       -0.992348    0.731663    1.329238
     29          6           0        1.029143    0.576799    1.631422
     30          8           0        0.982036   -0.636778    1.867528
     31          6           0        2.162261    1.429205    1.613178
     32          7           0        3.501861    1.151645    1.848376
     33          6           0        4.101477    2.301604    1.699115
     34          1           0        5.174373    2.461632    1.811108
     35          1           0        4.188048    4.821402    0.368079
     36          1           0        2.713240    5.239270    0.926004
     37          1           0        3.975153    5.138359    1.954785
     38          1           0       -5.482845   -1.506971    0.506672
     39          1           0       -5.611013   -1.424731    2.262084
     40          1           0       -4.725291   -0.177395    1.384000
     41          1           0       -2.666250   -5.197315    1.769530
     42          6           0       -2.627892   -4.108998    1.721345
     43          8           0       -0.264119   -4.001222    1.888885
     44          6           0       -1.359290   -3.449697    1.783083
     45          1           0       -0.547058   -1.571453    1.754381
     46          7           0       -1.423373   -2.072615    1.713882
     47          8           0       -2.508437   -0.085114    1.541540
     48          6           0       -2.552547   -1.301601    1.595309
     49          1           0       -4.735999   -3.837155    1.554685
     50          6           0       -3.746768   -3.384199    1.605689
     51          6           0       -4.970128   -1.228679    1.415381
     52          7           0       -3.736794   -2.010069    1.542043
     53          1           0       -4.588528    4.285759   -2.301472
     54          1           0       -3.361834    4.131874   -1.236744
     55          1           0       -4.906302    4.124143   -0.708882
     56          1           0       -2.561449   -2.833635   -1.781247
     57          1           0       -4.174627   -2.350287   -2.053525
     58          7           0       -3.231433   -2.093483   -1.839829
     59          6           0       -2.883632   -0.820284   -1.641944
     60          6           0       -3.276568    1.521141   -1.483571
     61          7           0       -2.002436    1.836588   -1.198069
     62          1           0       -0.195412    0.906731   -0.932308
     63          6           0       -1.247720    0.740334   -1.158603
     64          7           0       -1.594199   -0.535737   -1.356508
     65          1           0       -6.418462    2.021277   -2.058467
     66          6           0       -5.427394    1.593505   -1.904405
     67          7           0       -5.147851    0.315179   -1.977929
     68          6           0       -3.787316    0.255451   -1.713135
     69          6           0       -4.295874    3.847947   -1.451365
     70          7           0       -4.341706    2.381260   -1.608688
 ---------------------------------------------------------------------

 SCF Done:  E(RwB97XD) =  -2048.72133714     A.U. after   15 cycles

 The electronic state is 1-A.
 Alpha  occ. eigenvalues --  -19.25603 -19.21758 -19.20386 -14.52670 -14.52278
 Alpha  occ. eigenvalues --  -14.48625 -14.48583 -14.48267 -14.47620 -14.46583
 Alpha  occ. eigenvalues --  -14.45670 -14.45564 -14.44390 -14.44001 -14.42314
 Alpha  occ. eigenvalues --  -14.41647 -14.40969 -14.40572 -14.40450 -14.39978
 Alpha  occ. eigenvalues --  -10.45268 -10.40677 -10.40058 -10.39895 -10.38120
 Alpha  occ. eigenvalues --  -10.37965 -10.37756 -10.37263 -10.35609 -10.35219
 Alpha  occ. eigenvalues --  -10.34943 -10.34448 -10.34056 -10.33655 -10.33039
 Alpha  occ. eigenvalues --  -10.32901 -10.32746 -10.32688 -10.31082 -10.30831
 Alpha  occ. eigenvalues --  -10.30462 -10.28131 -10.27784  -1.19235  -1.15366
 Alpha  occ. eigenvalues --   -1.12963  -1.12780  -1.10866  -1.10370  -1.09481
 Alpha  occ. eigenvalues --   -1.09160  -1.08234  -1.05100  -1.04705  -1.02255
 Alpha  occ. eigenvalues --   -1.01201  -1.00196  -0.99348  -0.98292  -0.96991
 Alpha  occ. eigenvalues --   -0.96537  -0.96368  -0.92393  -0.90966  -0.87810
 Alpha  occ. eigenvalues --   -0.86249  -0.83853  -0.83489  -0.83415  -0.82322
 Alpha  occ. eigenvalues --   -0.81898  -0.78754  -0.77208  -0.75142  -0.74323
 Alpha  occ. eigenvalues --   -0.73333  -0.73133  -0.72610  -0.70747  -0.70617
 Alpha  occ. eigenvalues --   -0.67119  -0.67062  -0.66357  -0.66020  -0.64573
 Alpha  occ. eigenvalues --   -0.64257  -0.63582  -0.62597  -0.62440  -0.61401
 Alpha  occ. eigenvalues --   -0.60848  -0.60385  -0.60215  -0.59537  -0.59475
 Alpha  occ. eigenvalues --   -0.59360  -0.58097  -0.56709  -0.56241  -0.55863
 Alpha  occ. eigenvalues --   -0.55852  -0.55700  -0.55275  -0.54783  -0.54333
 Alpha  occ. eigenvalues --   -0.54063  -0.53460  -0.53362  -0.53129  -0.52763
 Alpha  occ. eigenvalues --   -0.52662  -0.52202  -0.51357  -0.50346  -0.49987
 Alpha  occ. eigenvalues --   -0.49832  -0.49760  -0.49594  -0.49153  -0.48648
 Alpha  occ. eigenvalues --   -0.48589  -0.48078  -0.47796  -0.47453  -0.47130
 Alpha  occ. eigenvalues --   -0.46468  -0.45775  -0.45010  -0.44399  -0.43783
 Alpha  occ. eigenvalues --   -0.41205  -0.40794  -0.39261  -0.38060  -0.37929
 Alpha  occ. eigenvalues --   -0.37002  -0.36924  -0.36730  -0.35518  -0.35110
 Alpha  occ. eigenvalues --   -0.34563  -0.33275  -0.33241  -0.32896  -0.32419
 Alpha  occ. eigenvalues --   -0.32182  -0.31841  -0.31811  -0.31606  -0.30530
 Alpha  occ. eigenvalues --   -0.30131  -0.30014  -0.25563  -0.24721
 Alpha virt. eigenvalues --    0.02953   0.04128   0.06726   0.08364   0.08618
 Alpha virt. eigenvalues --    0.09404   0.09989   0.10579   0.11331   0.11492
 Alpha virt. eigenvalues --    0.12165   0.13966   0.14703   0.14788   0.15025

 Mulliken charges:
               1
     1  N   -0.313269
     2  C    0.182417
     3  C    0.041468
     4  N   -0.260846
     5  C    0.136698
     6  H    0.025640
     7  N   -0.298476
     8  C    0.146388
     9  H    0.008983
    10  N   -0.285245
    11  C    0.259037
    12  C    0.117358
    13  N   -0.063876
    14  H    0.108327
    15  H    0.080977
    16  H    0.022686
    17  H    0.033012
    18  H    0.028104
    19  N   -0.310193
    20  C    0.241148
    21  C    0.181019
    22  N   -0.066748
    23  H    0.110225
    24  H    0.111018
    25  N   -0.305027
    26  C    0.208294
    27  N   -0.148534
    28  H    0.126780
    29  C    0.185028
    30  O   -0.323146
    31  C   -0.008705
    32  N   -0.221729
    33  C    0.127869
    34  H    0.022820
    35  H    0.027670
    36  H    0.027892
    37  H    0.024233
    38  H    0.055078
    39  H    0.060125
    40  H    0.076391
    41  H    0.031210
    42  C   -0.113883
    43  O   -0.260385
    44  C    0.175271
    45  H    0.132892
    46  N   -0.127583
    47  O   -0.344421
    48  C    0.344518
    49  H    0.045328
    50  C    0.161850
    51  C    0.041537
    52  N   -0.285247
    53  H    0.038431
    54  H    0.030247
    55  H    0.031475
    56  H    0.118223
    57  H    0.116565
    58  N   -0.064174
    59  C    0.085666
    60  C    0.242006
    61  N   -0.285421
    62  H    0.051263
    63  C    0.157874
    64  N   -0.302266
    65  H    0.038222
    66  C    0.138182
    67  N   -0.264948
    68  C    0.035307
    69  C    0.176945
    70  N   -0.315574
 Sum of Mulliken charges =  -0.00000

 Dipole moment (field-independent basis, Debye):
    X=             -9.4229    Y=              4.8808    Z=             -2.2995  Tot=             10.8582
 Quadrupole moment (field-independent basis, Debye-Ang):
   XX=           -166.0769   YY=           -208.8082   ZZ=           -254.6928
   XY=              6.8959   XZ=             -5.7773   YZ=              7.2808

 Normal termination of Gaussian 16 at Fri Jan 26 20:50:46 2018.
