 Gaussian 16, Revision A.03,
 Gaussian 16:  EM64L-G16RevA.03 25-Dec-2016

 ---------------------------------------
 #p wb97xd/cc-pvdz sp scf=(maxcycles=20)
 ---------------------------------------

 ------------------
 Base pair stacking
 ------------------
 Symbolic Z-matrix:
 Charge =  0 Multiplicity = 1

                         Standard orientation:
 ---------------------------------------------------------------------
 Center     Atomic      Atomic             Coordinates (Angstroms)
 Number     Number       Type             X           Y           Z
 ---------------------------------------------------------------------
      1          7           0       -7.212995   -1.616615    0.045741
      2          6           0       -8.611494   -1.183093   -0.139385
      3          6           0       -5.048672   -1.639233    0.436261
      4          7           0       -5.407010   -2.950845    0.160550
      5          6           0       -6.696593   -2.884713   -0.063688
      6          1           0       -7.326688   -3.738272   -0.315387
      7          7           0       -3.803615    0.290799    0.972675
      8          6           0       -4.952532    0.967123    0.871961
      9          1           0       -4.879542    2.037948    1.057063
     10          7           0       -6.172355    0.521369    0.578289
     11          6           0       -6.151273   -0.805385    0.369258
     12          6           0       -3.815584   -1.042703    0.756534
     13          7           0       -2.669714   -1.719557    0.856611
     14          1           0       -2.631734   -2.707879    0.704946
     15          1           0       -1.810629   -1.262079    1.086462
     16          1           0       -9.198427   -1.656667    0.517437
     17          1           0       -8.677548   -0.196494    0.006888
     18          1           0       -8.910096   -1.401329   -1.068467
     19          7           0       -1.369427    3.134175   -1.883620
     20          6           0       -0.144692    2.575520   -1.607947
     21          6           0       -1.668362    4.580315   -1.880019
     22          7           0        3.201919    2.936386   -0.752543
     23          1           0        3.989319    2.342963   -0.587987
     24          1           0        3.349604    3.921660   -0.662341
     25          7           0        0.982328    3.248421   -1.290041
     26          6           0        2.001498    2.434406   -1.079537
     27          7           0        1.924903    1.065849   -1.172726
     28          1           0        2.755440    0.522265   -0.994700
     29          6           0        0.775769    0.352190   -1.498364
     30          8           0        0.813626   -0.883122   -1.555760
     31          6           0       -0.327522    1.213124   -1.727338
     32          7           0       -1.640607    0.922313   -2.071039
     33          6           0       -2.219679    2.089464   -2.152512
     34          1           0       -3.268742    2.245825   -2.406073
     35          1           0       -2.379473    4.773699   -1.204940
     36          1           0       -0.840899    5.088973   -1.645819
     37          1           0       -1.984545    4.859262   -2.786123
     38          1           0        7.062199   -1.634694    0.633825
     39          1           0        7.384724   -1.804323   -1.090076
     40          1           0        6.444134   -0.433548   -0.500461
     41          1           0        4.296467   -5.430275   -0.410622
     42          6           0        4.284336   -4.345742   -0.519604
     43          8           0        1.957351   -4.232315   -0.966123
     44          6           0        3.049677   -3.685552   -0.815553
     45          1           0        2.293530   -1.811941   -1.141380
     46          7           0        3.145323   -2.313549   -0.932660
     47          8           0        4.261566   -0.335927   -0.918410
     48          6           0        4.276336   -1.548177   -0.796363
     49          1           0        6.368323   -4.080267   -0.155828
     50          6           0        5.404114   -3.626398   -0.380879
     51          6           0        6.660615   -1.481704   -0.356834
     52          7           0        5.426703   -2.257152   -0.511383
     53          1           0        2.629822    4.437452    2.997160
     54          1           0        1.560846    4.364987    1.766655
     55          1           0        3.162392    4.408356    1.454775
     56          1           0        0.806862   -2.625694    1.635429
     57          1           0        2.360450   -2.158061    2.162482
     58          7           0        1.450756   -1.889423    1.843874
     59          6           0        1.112350   -0.606081    1.703569
     60          6           0        1.485207    1.742414    1.788876
     61          7           0        0.256398    2.073680    1.359086
     62          1           0       -1.482913    1.159523    0.776223
     63          6           0       -0.468258    0.980521    1.129366
     64          7           0       -0.131135   -0.305696    1.269289
     65          1           0        4.512149    2.209792    2.823920
     66          6           0        3.558012    1.791031    2.502657
     67          7           0        3.291791    0.509565    2.434464
     68          6           0        1.980646    0.464799    1.983219
     69          6           0        2.461806    4.069200    2.082748
     70          7           0        2.509653    2.594820    2.126395
 ---------------------------------------------------------------------

 SCF Done:  E(RwB97XD) =  -2048.73561589     A.U. after   15 cycles

 The electronic state is 1-A.
 Alpha  occ. eigenvalues --  -19.26185 -19.22491 -19.21117 -14.52824 -14.50893
 Alpha  occ. eigenvalues --  -14.49118 -14.48858 -14.48310 -14.47682 -14.47504
 Alpha  occ. eigenvalues --  -14.46546 -14.44057 -14.42601 -14.42451 -14.42410
 Alpha  occ. eigenvalues --  -14.42174 -14.41564 -14.41092 -14.40920 -14.40161
 Alpha  occ. eigenvalues --  -10.45851 -10.41831 -10.40584 -10.38735 -10.38221
 Alpha  occ. eigenvalues --  -10.38194 -10.36541 -10.35569 -10.35511 -10.35455
 Alpha  occ. eigenvalues --  -10.34664 -10.34215 -10.34040 -10.33581 -10.33452
 Alpha  occ. eigenvalues --  -10.33106 -10.32758 -10.31487 -10.31155 -10.30980
 Alpha  occ. eigenvalues --  -10.30976 -10.28643 -10.28509  -1.19789  -1.13979
 Alpha  occ. eigenvalues --   -1.13491  -1.13464  -1.11452  -1.10973  -1.09715
 Alpha  occ. eigenvalues --   -1.09246  -1.07549  -1.05017  -1.03176  -1.02923
 Alpha  occ. eigenvalues --   -1.00658  -1.00461  -0.99443  -0.99013  -0.97046
 Alpha  occ. eigenvalues --   -0.96946  -0.95108  -0.92654  -0.91443  -0.86156
 Alpha  occ. eigenvalues --   -0.84565  -0.84493  -0.84014  -0.84011  -0.82862
 Alpha  occ. eigenvalues --   -0.82379  -0.79280  -0.75491  -0.75093  -0.74314
 Alpha  occ. eigenvalues --   -0.73770  -0.73161  -0.72960  -0.71108  -0.68887
 Alpha  occ. eigenvalues --   -0.68014  -0.66954  -0.66356  -0.65258  -0.64841
 Alpha  occ. eigenvalues --   -0.64157  -0.63156  -0.62859  -0.62582  -0.62465
 Alpha  occ. eigenvalues --   -0.60228  -0.59932  -0.59909  -0.59484  -0.59112
 Alpha  occ. eigenvalues --   -0.58862  -0.58160  -0.56901  -0.56526  -0.56442
 Alpha  occ. eigenvalues --   -0.56342  -0.55419  -0.54833  -0.54716  -0.54060
 Alpha  occ. eigenvalues --   -0.53848  -0.53683  -0.53365  -0.52773  -0.52344
 Alpha  occ. eigenvalues --   -0.51875  -0.51743  -0.51340  -0.50782  -0.50567
 Alpha  occ. eigenvalues --   -0.50217  -0.49792  -0.49237  -0.49165  -0.48969
 Alpha  occ. eigenvalues --   -0.48685  -0.48588  -0.48258  -0.47844  -0.47370
 Alpha  occ. eigenvalues --   -0.46999  -0.45369  -0.45162  -0.44426  -0.43250
 Alpha  occ. eigenvalues --   -0.41220  -0.39802  -0.39441  -0.37765  -0.37731
 Alpha  occ. eigenvalues --   -0.37228  -0.36706  -0.35996  -0.35688  -0.35296
 Alpha  occ. eigenvalues --   -0.33655  -0.33617  -0.33561  -0.33131  -0.32977
 Alpha  occ. eigenvalues --   -0.32486  -0.32378  -0.32263  -0.32165  -0.31005
 Alpha  occ. eigenvalues --   -0.30363  -0.28330  -0.25881  -0.25827
 Alpha virt. eigenvalues --    0.02688   0.05377   0.07911   0.08029   0.08238
 Alpha virt. eigenvalues --    0.08949   0.09630   0.10961   0.11295   0.12419
 Alpha virt. eigenvalues --    0.12934   0.13901   0.14282   0.14644   0.14956

 Mulliken charges:
               1
     1  N   -0.310817
     2  C    0.181096
     3  C    0.027863
     4  N   -0.259171
     5  C    0.133576
     6  H    0.026786
     7  N   -0.291499
     8  C    0.133556
     9  H    0.008947
    10  N   -0.289005
    11  C    0.243040
    12  C    0.122986
    13  N   -0.056641
    14  H    0.108651
    15  H    0.089697
    16  H    0.025404
    17  H    0.035385
    18  H    0.026144
    19  N   -0.308378
    20  C    0.265816
    21  C    0.183349
    22  N   -0.107573
    23  H    0.117705
    24  H    0.119089
    25  N   -0.283327
    26  C    0.186985
    27  N   -0.114146
    28  H    0.121871
    29  C    0.168587
    30  O   -0.320263
    31  C   -0.026591
    32  N   -0.213543
    33  C    0.126681
    34  H    0.031210
    35  H    0.030325
    36  H    0.026392
    37  H    0.025297
    38  H    0.062032
    39  H    0.060658
    40  H    0.075959
    41  H    0.033398
    42  C   -0.111265
    43  O   -0.267838
    44  C    0.169550
    45  H    0.134360
    46  N   -0.137721
    47  O   -0.348138
    48  C    0.360647
    49  H    0.049821
    50  C    0.171888
    51  C    0.042616
    52  N   -0.298662
    53  H    0.031286
    54  H    0.045777
    55  H   -0.006452
    56  H    0.125242
    57  H    0.111600
    58  N   -0.063152
    59  C    0.093461
    60  C    0.219269
    61  N   -0.256521
    62  H    0.039341
    63  C    0.167899
    64  N   -0.296356
    65  H    0.025175
    66  C    0.115021
    67  N   -0.261930
    68  C    0.032855
    69  C    0.185592
    70  N   -0.290897
 Sum of Mulliken charges =  -0.00000

 Dipole moment (field-independent basis, Debye):
    X=              9.0786    Y=              4.6178    Z=              1.9344  Tot=             10.3676
 Quadrupole moment (field-independent basis, Debye-Ang):
   XX=           -151.2839   YY=           -211.0775   ZZ=           -249.9533
   XY=             -1.7297   XZ=             13.1784   YZ=             -9.0169

 Normal termination of Gaussian 16 at Sat Jan 27 12:19:38 2018.
