 Gaussian 16, Revision A.03,
 Gaussian 16:  EM64L-G16RevA.03 25-Dec-2016

 ---------------------------------------
 #p wb97xd/cc-pvdz sp scf=(maxcycles=20)
 ---------------------------------------

 ------------------
 Base pair stacking
 ------------------
 Symbolic Z-matrix:
 Charge =  0 Multiplicity = 1

                         Standard orientation:
 ---------------------------------------------------------------------
 Center     Atomic      Atomic             Coordinates (Angstroms)
 Number     Number       Type             X           Y           Z
 ---------------------------------------------------------------------
      1          7           0       -6.662790   -1.635187    0.441883
      2          6           0       -8.047557   -1.196059    0.181885
      3          6           0       -4.498160   -1.658694    0.830653
      4          7           0       -4.900293   -2.985975    0.793886
      5          6           0       -6.188303   -2.918688    0.561142
      6          1           0       -6.847098   -3.782329    0.466011
      7          7           0       -3.188310    0.294203    1.013515
      8          6           0       -4.315305    0.978977    0.793195
      9          1           0       -4.206669    2.062667    0.783814
     10          7           0       -5.550553    0.528209    0.583701
     11          6           0       -5.573568   -0.814503    0.615333
     12          6           0       -3.244639   -1.055329    1.039355
     13          7           0       -2.120715   -1.740646    1.259142
     14          1           0       -2.115576   -2.740868    1.286694
     15          1           0       -1.245993   -1.277912    1.403664
     16          1           0       -8.645788   -1.525063    0.912668
     17          1           0       -8.080836   -0.197579    0.149324
     18          1           0       -8.358299   -1.566948   -0.693265
     19          7           0       -2.058720    3.130297   -1.723705
     20          6           0       -0.826221    2.575413   -1.476480
     21          6           0       -2.399499    4.558296   -1.564449
     22          7           0        2.484024    2.921779   -0.484498
     23          1           0        3.283569    2.333858   -0.364832
     24          1           0        2.600538    3.893672   -0.278192
     25          7           0        0.271735    3.236180   -1.049970
     26          6           0        1.308018    2.429892   -0.902784
     27          7           0        1.273749    1.079544   -1.153556
     28          1           0        2.114571    0.540681   -1.013534
     29          6           0        0.155087    0.378624   -1.593066
     30          8           0        0.230338   -0.840573   -1.789651
     31          6           0       -0.966103    1.231452   -1.755804
     32          7           0       -2.260368    0.948301   -2.170041
     33          6           0       -2.870660    2.101801   -2.135522
     34          1           0       -3.916549    2.259156   -2.401304
     35          1           0       -3.134001    4.654601   -0.893600
     36          1           0       -1.593822    5.057856   -1.248847
     37          1           0       -2.698915    4.931128   -2.442031
     38          1           0        6.436296   -1.677309    0.488444
     39          1           0        6.810334   -1.639685   -1.232992
     40          1           0        5.814668   -0.370271   -0.519833
     41          1           0        3.811337   -5.397919   -1.064975
     42          6           0        3.770684   -4.308720   -1.050008
     43          8           0        1.454379   -4.204739   -1.551018
     44          6           0        2.525870   -3.650933   -1.306103
     45          1           0        1.724782   -1.772395   -1.439110
     46          7           0        2.584799   -2.272555   -1.263183
     47          8           0        3.642354   -0.281555   -0.989889
     48          6           0        3.688984   -1.499015   -1.006364
     49          1           0        5.835435   -4.033179   -0.595355
     50          6           0        4.864918   -3.581457   -0.796360
     51          6           0        6.057511   -1.422071   -0.490050
     52          7           0        4.851291   -2.206156   -0.769267
     53          1           0        3.387215    4.522436    2.265205
     54          1           0        2.309531    4.266317    1.067244
     55          1           0        3.909851    4.200615    0.753018
     56          1           0        1.329077   -2.606629    2.188268
     57          1           0        2.899924   -2.103579    2.623540
     58          7           0        1.997615   -1.866502    2.261822
     59          6           0        1.700115   -0.618509    1.894159
     60          6           0        2.149216    1.693875    1.558142
     61          7           0        0.929364    1.983147    1.075763
     62          1           0       -0.841865    1.037128    0.665393
     63          6           0        0.168433    0.890921    1.045084
     64          7           0        0.464563   -0.359923    1.412877
     65          1           0        5.195490    2.239115    2.493616
     66          6           0        4.226515    1.801219    2.252215
     67          7           0        3.918589    0.537654    2.414251
     68          6           0        2.604153    0.456016    1.977983
     69          6           0        3.202220    4.002378    1.431350
     70          7           0        3.202587    2.558779    1.738008
 ---------------------------------------------------------------------

 SCF Done:  E(RwB97XD) =  -2048.61501372     A.U. after   15 cycles

 The electronic state is 1-A.
 Alpha  occ. eigenvalues --  -19.25913 -19.22002 -19.20460 -14.52510 -14.52281
 Alpha  occ. eigenvalues --  -14.48824 -14.48569 -14.48101 -14.47911 -14.45874
 Alpha  occ. eigenvalues --  -14.45148 -14.45014 -14.43777 -14.42835 -14.42461
 Alpha  occ. eigenvalues --  -14.41538 -14.41210 -14.40950 -14.40605 -14.40231
 Alpha  occ. eigenvalues --  -10.45537 -10.41236 -10.40130 -10.39640 -10.37967
 Alpha  occ. eigenvalues --  -10.37931 -10.37884 -10.36574 -10.35545 -10.35229
 Alpha  occ. eigenvalues --  -10.35038 -10.34582 -10.34190 -10.34164 -10.33436
 Alpha  occ. eigenvalues --  -10.33157 -10.33049 -10.32371 -10.31199 -10.30944
 Alpha  occ. eigenvalues --  -10.30849 -10.28638 -10.27868  -1.19498  -1.15766
 Alpha  occ. eigenvalues --   -1.13221  -1.13031  -1.11420  -1.10448  -1.09392
 Alpha  occ. eigenvalues --   -1.09271  -1.08768  -1.05068  -1.04304  -1.02584
 Alpha  occ. eigenvalues --   -1.02310  -1.00571  -0.99128  -0.98265  -0.97093
 Alpha  occ. eigenvalues --   -0.96674  -0.96391  -0.92728  -0.91126  -0.88212
 Alpha  occ. eigenvalues --   -0.86635  -0.84007  -0.83978  -0.83671  -0.82452
 Alpha  occ. eigenvalues --   -0.82375  -0.78948  -0.77091  -0.74829  -0.74433
 Alpha  occ. eigenvalues --   -0.73909  -0.73400  -0.73015  -0.71146  -0.70609
 Alpha  occ. eigenvalues --   -0.67758  -0.67083  -0.66580  -0.66430  -0.64843
 Alpha  occ. eigenvalues --   -0.64401  -0.63732  -0.63508  -0.62816  -0.62671
 Alpha  occ. eigenvalues --   -0.60774  -0.60488  -0.60180  -0.59867  -0.59548
 Alpha  occ. eigenvalues --   -0.59432  -0.59165  -0.57244  -0.56627  -0.56397
 Alpha  occ. eigenvalues --   -0.56045  -0.55869  -0.55554  -0.54477  -0.54279
 Alpha  occ. eigenvalues --   -0.53939  -0.53415  -0.53370  -0.53021  -0.52775
 Alpha  occ. eigenvalues --   -0.52423  -0.51832  -0.51583  -0.50781  -0.50282
 Alpha  occ. eigenvalues --   -0.50025  -0.49724  -0.49423  -0.49006  -0.48892
 Alpha  occ. eigenvalues --   -0.48727  -0.48292  -0.48225  -0.48063  -0.47255
 Alpha  occ. eigenvalues --   -0.47004  -0.45964  -0.45158  -0.44043  -0.42576
 Alpha  occ. eigenvalues --   -0.41255  -0.39625  -0.39331  -0.38580  -0.37259
 Alpha  occ. eigenvalues --   -0.37208  -0.36952  -0.36306  -0.35554  -0.34489
 Alpha  occ. eigenvalues --   -0.33920  -0.33643  -0.33593  -0.33139  -0.32804
 Alpha  occ. eigenvalues --   -0.32456  -0.32062  -0.31924  -0.31652  -0.30865
 Alpha  occ. eigenvalues --   -0.30429  -0.29122  -0.25923  -0.24513
 Alpha virt. eigenvalues --    0.02966   0.03334   0.07176   0.07871   0.08343
 Alpha virt. eigenvalues --    0.09198   0.09689   0.10744   0.11595   0.12157
 Alpha virt. eigenvalues --    0.13055   0.13728   0.14180   0.14795   0.15124

 Mulliken charges:
               1
     1  N   -0.311788
     2  C    0.181310
     3  C    0.032233
     4  N   -0.260736
     5  C    0.134807
     6  H    0.026846
     7  N   -0.292983
     8  C    0.143593
     9  H    0.005222
    10  N   -0.289594
    11  C    0.248508
    12  C    0.126879
    13  N   -0.060798
    14  H    0.107572
    15  H    0.087109
    16  H    0.024811
    17  H    0.034699
    18  H    0.027225
    19  N   -0.312706
    20  C    0.224454
    21  C    0.182177
    22  N   -0.097290
    23  H    0.116155
    24  H    0.098664
    25  N   -0.259667
    26  C    0.151868
    27  N   -0.097831
    28  H    0.114213
    29  C    0.127380
    30  O   -0.315013
    31  C    0.011766
    32  N   -0.218569
    33  C    0.120856
    34  H    0.029124
    35  H    0.026578
    36  H    0.026014
    37  H    0.024701
    38  H    0.060736
    39  H    0.058507
    40  H    0.075745
    41  H    0.032248
    42  C   -0.112120
    43  O   -0.262332
    44  C    0.174831
    45  H    0.133614
    46  N   -0.137303
    47  O   -0.344670
    48  C    0.357222
    49  H    0.047777
    50  C    0.167480
    51  C    0.044117
    52  N   -0.296998
    53  H    0.025533
    54  H    0.037887
    55  H    0.003113
    56  H    0.122982
    57  H    0.116059
    58  N   -0.069442
    59  C    0.094656
    60  C    0.201423
    61  N   -0.254914
    62  H    0.076833
    63  C    0.165141
    64  N   -0.296907
    65  H    0.033802
    66  C    0.127142
    67  N   -0.264959
    68  C    0.056372
    69  C    0.229825
    70  N   -0.321187
 Sum of Mulliken charges =  -0.00000

 Dipole moment (field-independent basis, Debye):
    X=              8.6853    Y=              4.4855    Z=              3.8080  Tot=             10.4907
 Quadrupole moment (field-independent basis, Debye-Ang):
   XX=           -157.2147   YY=           -212.2086   ZZ=           -254.2790
   XY=             -3.6881   XZ=              8.6386   YZ=            -11.1012

 Normal termination of Gaussian 16 at Sat Jan 27 02:05:41 2018.
