 Gaussian 16, Revision A.03,
 Gaussian 16:  EM64L-G16RevA.03 25-Dec-2016

 ---------------------------------------
 #p wb97xd/cc-pvdz sp scf=(maxcycles=20)
 ---------------------------------------

 ------------------
 Base pair stacking
 ------------------
 Symbolic Z-matrix:
 Charge =  0 Multiplicity = 1

                         Standard orientation:
 ---------------------------------------------------------------------
 Center     Atomic      Atomic             Coordinates (Angstroms)
 Number     Number       Type             X           Y           Z
 ---------------------------------------------------------------------
      1          7           0        4.631267   -2.334456   -1.747575
      2          6           0        6.025701   -2.014115   -2.109414
      3          6           0        2.456033   -2.224958   -1.441483
      4          7           0        2.851066   -3.471131   -0.977015
      5          6           0        4.145743   -3.487225   -1.180011
      6          1           0        4.801829   -4.322157   -0.932250
      7          7           0        1.153177   -0.347896   -2.026387
      8          6           0        2.290272    0.214200   -2.449049
      9          1           0        2.188493    1.218357   -2.858409
     10          7           0        3.528405   -0.275578   -2.441989
     11          6           0        3.542385   -1.513002   -1.919478
     12          6           0        1.200579   -1.593605   -1.505776
     13          7           0        0.066554   -2.156379   -1.083332
     14          1           0        0.054580   -3.076803   -0.691046
     15          1           0       -0.809225   -1.677414   -1.144527
     16          1           0        6.359356   -2.679278   -2.777558
     17          1           0        6.065945   -1.096988   -2.504879
     18          1           0        6.600653   -2.048289   -1.291941
     19          7           0        4.207153    3.445174    0.850113
     20          6           0        2.941043    2.948018    1.044666
     21          6           0        4.539715    4.863819    0.610243
     22          7           0       -0.484739    3.458945    1.299047
     23          1           0       -1.302961    2.907294    1.458532
     24          1           0       -0.618516    4.441600    1.167884
     25          7           0        1.797255    3.666197    1.049337
     26          6           0        0.737385    2.906689    1.262513
     27          7           0        0.791351    1.547654    1.456499
     28          1           0       -0.070199    1.047351    1.612634
     29          6           0        1.957086    0.788092    1.455774
     30          8           0        1.896073   -0.433718    1.640703
     31          6           0        3.104079    1.590217    1.227980
     32          7           0        4.445550    1.241952    1.150092
     33          6           0        5.060401    2.371427    0.925472
     34          1           0        6.139125    2.478173    0.806150
     35          1           0        4.993497    4.956384   -0.275370
     36          1           0        3.700217    5.405585    0.611534
     37          1           0        5.148001    5.191978    1.332127
     38          1           0       -4.747731   -0.944281    1.695478
     39          1           0       -4.486839   -0.956043    3.438019
     40          1           0       -3.746123    0.299393    2.444756
     41          1           0       -1.930265   -4.818860    2.138357
     42          6           0       -1.843811   -3.732255    2.132749
     43          8           0        0.502187   -3.736760    1.781481
     44          6           0       -0.557974   -3.133142    1.944280
     45          1           0        0.330133   -1.293288    1.823731
     46          7           0       -0.560124   -1.752873    1.953913
     47          8           0       -1.546331    0.286384    2.115324
     48          6           0       -1.644190   -0.928132    2.121779
     49          1           0       -3.919681   -3.360235    2.446040
     50          6           0       -2.919730   -2.954226    2.299074
     51          6           0       -4.035437   -0.740371    2.481057
     52          7           0       -2.848663   -1.580427    2.297709
     53          1           0       -5.484503    3.869888   -2.939559
     54          1           0       -4.079858    3.966550   -2.115098
     55          1           0       -5.495509    4.240084   -1.350138
     56          1           0       -3.497723   -2.857591   -0.518978
     57          1           0       -5.126131   -2.365011   -0.644441
     58          7           0       -4.155926   -2.125304   -0.694099
     59          6           0       -3.758587   -0.883983   -0.981190
     60          6           0       -4.080582    1.411435   -1.518886
     61          7           0       -2.771006    1.704448   -1.578809
     62          1           0       -0.959958    0.772677   -1.349692
     63          6           0       -2.038383    0.622760   -1.321670
     64          7           0       -2.434454   -0.621387   -1.033919
     65          1           0       -7.266966    1.939132   -1.662600
     66          6           0       -6.270930    1.508524   -1.555689
     67          7           0       -6.028847    0.254518   -1.261509
     68          6           0       -4.643792    0.179460   -1.235051
     69          6           0       -5.041650    3.700204   -2.059165
     70          7           0       -5.137621    2.265909   -1.725100
 ---------------------------------------------------------------------

 SCF Done:  E(RwB97XD) =  -2048.74170507     A.U. after   15 cycles

 The electronic state is 1-A.
 Alpha  occ. eigenvalues --  -19.25565 -19.21858 -19.20662 -14.52346 -14.52288
 Alpha  occ. eigenvalues --  -14.48994 -14.48868 -14.47727 -14.47555 -14.46969
 Alpha  occ. eigenvalues --  -14.46757 -14.45322 -14.44713 -14.44492 -14.42245
 Alpha  occ. eigenvalues --  -14.42152 -14.41076 -14.40305 -14.40247 -14.39876
 Alpha  occ. eigenvalues --  -10.45246 -10.41358 -10.40266 -10.39941 -10.38312
 Alpha  occ. eigenvalues --  -10.37974 -10.37917 -10.37248 -10.35916 -10.35025
 Alpha  occ. eigenvalues --  -10.34902 -10.34521 -10.33736 -10.33512 -10.33084
 Alpha  occ. eigenvalues --  -10.32794 -10.32512 -10.32456 -10.31275 -10.31144
 Alpha  occ. eigenvalues --  -10.29915 -10.28267 -10.27745  -1.19157  -1.15137
 Alpha  occ. eigenvalues --   -1.13297  -1.12864  -1.10746  -1.10362  -1.09641
 Alpha  occ. eigenvalues --   -1.09156  -1.08655  -1.05147  -1.04535  -1.02240
 Alpha  occ. eigenvalues --   -1.00952  -1.00015  -0.99839  -0.98668  -0.97122
 Alpha  occ. eigenvalues --   -0.96775  -0.96054  -0.92233  -0.91120  -0.87653
 Alpha  occ. eigenvalues --   -0.85837  -0.84292  -0.83416  -0.83056  -0.82687
 Alpha  occ. eigenvalues --   -0.81438  -0.78833  -0.77186  -0.74968  -0.74765
 Alpha  occ. eigenvalues --   -0.73736  -0.73184  -0.72301  -0.70609  -0.70344
 Alpha  occ. eigenvalues --   -0.67493  -0.67047  -0.66424  -0.65715  -0.64518
 Alpha  occ. eigenvalues --   -0.64398  -0.63805  -0.62721  -0.62163  -0.61874
 Alpha  occ. eigenvalues --   -0.60723  -0.60296  -0.59806  -0.59511  -0.59360
 Alpha  occ. eigenvalues --   -0.59242  -0.58454  -0.56808  -0.56030  -0.55878
 Alpha  occ. eigenvalues --   -0.55318  -0.55288  -0.55079  -0.54545  -0.54301
 Alpha  occ. eigenvalues --   -0.53751  -0.53683  -0.53555  -0.53106  -0.52946
 Alpha  occ. eigenvalues --   -0.52832  -0.52280  -0.50934  -0.50294  -0.50034
 Alpha  occ. eigenvalues --   -0.49854  -0.49529  -0.49416  -0.49189  -0.48842
 Alpha  occ. eigenvalues --   -0.48349  -0.48314  -0.48009  -0.47868  -0.47323
 Alpha  occ. eigenvalues --   -0.46199  -0.45684  -0.45258  -0.44347  -0.43856
 Alpha  occ. eigenvalues --   -0.40706  -0.40567  -0.39235  -0.37890  -0.37664
 Alpha  occ. eigenvalues --   -0.37420  -0.37389  -0.36311  -0.35630  -0.34926
 Alpha  occ. eigenvalues --   -0.34537  -0.34107  -0.33079  -0.32802  -0.32706
 Alpha  occ. eigenvalues --   -0.32652  -0.32643  -0.31988  -0.31961  -0.30368
 Alpha  occ. eigenvalues --   -0.30148  -0.29779  -0.25711  -0.25164
 Alpha virt. eigenvalues --    0.02705   0.04173   0.06827   0.08504   0.08755
 Alpha virt. eigenvalues --    0.09230   0.09679   0.10600   0.11120   0.11638
 Alpha virt. eigenvalues --    0.13547   0.14405   0.14583   0.14727   0.15252

 Mulliken charges:
               1
     1  N   -0.313241
     2  C    0.183243
     3  C    0.053320
     4  N   -0.251319
     5  C    0.140130
     6  H    0.025285
     7  N   -0.301454
     8  C    0.135988
     9  H    0.009379
    10  N   -0.284604
    11  C    0.260689
    12  C    0.099772
    13  N   -0.070575
    14  H    0.111889
    15  H    0.081567
    16  H    0.020489
    17  H    0.033016
    18  H    0.029774
    19  N   -0.311396
    20  C    0.248988
    21  C    0.180782
    22  N   -0.121311
    23  H    0.116983
    24  H    0.117292
    25  N   -0.311997
    26  C    0.249069
    27  N   -0.150465
    28  H    0.120194
    29  C    0.196813
    30  O   -0.321131
    31  C   -0.014317
    32  N   -0.228203
    33  C    0.127419
    34  H    0.024206
    35  H    0.027809
    36  H    0.029435
    37  H    0.025279
    38  H    0.048822
    39  H    0.060035
    40  H    0.075469
    41  H    0.030928
    42  C   -0.112160
    43  O   -0.250248
    44  C    0.155192
    45  H    0.135703
    46  N   -0.122196
    47  O   -0.350354
    48  C    0.352552
    49  H    0.042937
    50  C    0.151600
    51  C    0.042793
    52  N   -0.280249
    53  H    0.034102
    54  H    0.042001
    55  H    0.029102
    56  H    0.116308
    57  H    0.119330
    58  N   -0.066619
    59  C    0.093774
    60  C    0.249377
    61  N   -0.273290
    62  H    0.037628
    63  C    0.178664
    64  N   -0.318946
    65  H    0.038689
    66  C    0.142534
    67  N   -0.264533
    68  C    0.025722
    69  C    0.179645
    70  N   -0.313108
 Sum of Mulliken charges =  -0.00000

 Dipole moment (field-independent basis, Debye):
    X=             -9.2278    Y=              5.6286    Z=              0.3694  Tot=             10.8153
 Quadrupole moment (field-independent basis, Debye-Ang):
   XX=           -175.9342   YY=           -206.3834   ZZ=           -247.4601
   XY=              7.1727   XZ=            -14.7328   YZ=             -1.1043

 Normal termination of Gaussian 16 at Sat Jan 27 03:24:48 2018.
