 Gaussian 16, Revision A.03,
 Gaussian 16:  EM64L-G16RevA.03 25-Dec-2016

 ---------------------------------------
 #p wb97xd/cc-pvdz sp scf=(maxcycles=20)
 ---------------------------------------

 ------------------
 Base pair stacking
 ------------------
 Symbolic Z-matrix:
 Charge =  0 Multiplicity = 1

                         Standard orientation:
 ---------------------------------------------------------------------
 Center     Atomic      Atomic             Coordinates (Angstroms)
 Number     Number       Type             X           Y           Z
 ---------------------------------------------------------------------
      1          7           0       -5.642999   -1.870993    1.186231
      2          6           0       -7.052015   -1.440348    1.271264
      3          6           0       -3.443954   -1.900226    1.211815
      4          7           0       -3.845469   -3.188289    0.888662
      5          6           0       -5.154242   -3.119115    0.886184
      6          1           0       -5.818920   -3.956065    0.670194
      7          7           0       -2.123634   -0.007167    1.697630
      8          6           0       -3.272082    0.661318    1.845115
      9          1           0       -3.167429    1.713638    2.105784
     10          7           0       -4.524521    0.227129    1.719525
     11          6           0       -4.540845   -1.077045    1.398159
     12          6           0       -2.173742   -1.317867    1.374146
     13          7           0       -1.028407   -1.986874    1.226490
     14          1           0       -1.017929   -2.958447    0.987409
     15          1           0       -0.142268   -1.539984    1.349738
     16          1           0       -7.523434   -1.974423    1.973194
     17          1           0       -7.091076   -0.470377    1.509521
     18          1           0       -7.500286   -1.583409    0.388897
     19          7           0       -3.160633    3.438383   -1.453322
     20          6           0       -1.908312    2.873362   -1.431389
     21          6           0       -3.452020    4.875410   -1.277987
     22          7           0        1.534288    3.201459   -1.111063
     23          1           0        2.336885    2.605849   -1.129274
     24          1           0        1.696789    4.177391   -0.963202
     25          7           0       -0.742943    3.530736   -1.247450
     26          6           0        0.295373    2.714268   -1.277360
     27          7           0        0.201758    1.357539   -1.472352
     28          1           0        1.049212    0.810978   -1.480202
     29          6           0       -0.986777    0.659935   -1.663704
     30          8           0       -0.961351   -0.565652   -1.831066
     31          6           0       -2.111017    1.523691   -1.634121
     32          7           0       -3.463391    1.246952   -1.780388
     33          6           0       -4.045673    2.409760   -1.666184
     34          1           0       -5.121888    2.574199   -1.729420
     35          1           0       -4.041583    5.002862   -0.481131
     36          1           0       -2.596261    5.372540   -1.140921
     37          1           0       -3.912866    5.225600   -2.092728
     38          1           0        5.561405   -1.423004   -0.771625
     39          1           0        5.594664   -1.443432   -2.533189
     40          1           0        4.766988   -0.138422   -1.682729
     41          1           0        2.653741   -5.150575   -1.664529
     42          6           0        2.625930   -4.060947   -1.677685
     43          8           0        0.257390   -3.938492   -1.723826
     44          6           0        1.360664   -3.393173   -1.709313
     45          1           0        0.564822   -1.508075   -1.746198
     46          7           0        1.438390   -2.015130   -1.723825
     47          8           0        2.545579   -0.032375   -1.725906
     48          6           0        2.577886   -1.250324   -1.711173
     49          1           0        4.741896   -3.801847   -1.640735
     50          6           0        3.754665   -3.342343   -1.664700
     51          6           0        5.002144   -1.192261   -1.666071
     52          7           0        3.758110   -1.966802   -1.680585
     53          1           0        4.563870    4.032139    2.979653
     54          1           0        3.306333    4.050350    1.940243
     55          1           0        4.834528    4.139044    1.373815
     56          1           0        2.527233   -2.913232    1.342748
     57          1           0        4.147422   -2.472790    1.644589
     58          7           0        3.198152   -2.189339    1.504018
     59          6           0        2.843765   -0.902921    1.530632
     60          6           0        3.230222    1.434447    1.752187
     61          7           0        1.947988    1.785787    1.560195
     62          1           0        0.134532    0.902877    1.196216
     63          6           0        1.193201    0.707115    1.361056
     64          7           0        1.546254   -0.582151    1.334024
     65          1           0        6.387394    1.849741    2.310707
     66          6           0        5.392496    1.447955    2.116557
     67          7           0        5.116142    0.173621    1.984726
     68          6           0        3.748419    0.151092    1.753314
     69          6           0        4.246520    3.739954    2.077489
     70          7           0        4.298005    2.267798    1.987512
 ---------------------------------------------------------------------

 SCF Done:  E(RwB97XD) =  -2048.74330085     A.U. after   15 cycles

 The electronic state is 1-A.
 Alpha  occ. eigenvalues --  -19.25844 -19.22111 -19.20581 -14.52492 -14.52332
 Alpha  occ. eigenvalues --  -14.48793 -14.48471 -14.48063 -14.47880 -14.46910
 Alpha  occ. eigenvalues --  -14.46539 -14.45338 -14.44239 -14.44140 -14.41995
 Alpha  occ. eigenvalues --  -14.41894 -14.40812 -14.40714 -14.40251 -14.39726
 Alpha  occ. eigenvalues --  -10.45500 -10.41156 -10.40237 -10.39912 -10.38189
 Alpha  occ. eigenvalues --  -10.38063 -10.37879 -10.37049 -10.35539 -10.35125
 Alpha  occ. eigenvalues --  -10.34919 -10.34315 -10.33894 -10.33418 -10.33264
 Alpha  occ. eigenvalues --  -10.32683 -10.32563 -10.32482 -10.31381 -10.30982
 Alpha  occ. eigenvalues --  -10.30331 -10.28066 -10.27880  -1.19444  -1.15065
 Alpha  occ. eigenvalues --   -1.13182  -1.13112  -1.10648  -1.10577  -1.09411
 Alpha  occ. eigenvalues --   -1.09259  -1.08505  -1.04839  -1.04440  -1.02524
 Alpha  occ. eigenvalues --   -1.00899  -0.99899  -0.99673  -0.98529  -0.96805
 Alpha  occ. eigenvalues --   -0.96587  -0.96293  -0.92123  -0.91257  -0.87509
 Alpha  occ. eigenvalues --   -0.85846  -0.84095  -0.83629  -0.83282  -0.82519
 Alpha  occ. eigenvalues --   -0.81696  -0.79017  -0.76971  -0.74772  -0.74572
 Alpha  occ. eigenvalues --   -0.73622  -0.73403  -0.72349  -0.70488  -0.70348
 Alpha  occ. eigenvalues --   -0.67344  -0.66821  -0.66607  -0.65754  -0.64523
 Alpha  occ. eigenvalues --   -0.64242  -0.63808  -0.62693  -0.62161  -0.61698
 Alpha  occ. eigenvalues --   -0.60537  -0.60134  -0.60024  -0.59624  -0.59453
 Alpha  occ. eigenvalues --   -0.59250  -0.58316  -0.56674  -0.56085  -0.55987
 Alpha  occ. eigenvalues --   -0.55699  -0.55268  -0.54944  -0.54565  -0.54362
 Alpha  occ. eigenvalues --   -0.53791  -0.53686  -0.53365  -0.53175  -0.52975
 Alpha  occ. eigenvalues --   -0.52665  -0.52435  -0.51179  -0.50204  -0.50073
 Alpha  occ. eigenvalues --   -0.49779  -0.49557  -0.49502  -0.49227  -0.48858
 Alpha  occ. eigenvalues --   -0.48371  -0.48326  -0.48092  -0.47721  -0.47346
 Alpha  occ. eigenvalues --   -0.46333  -0.45689  -0.45116  -0.44307  -0.44005
 Alpha  occ. eigenvalues --   -0.40616  -0.40523  -0.39437  -0.37739  -0.37526
 Alpha  occ. eigenvalues --   -0.37259  -0.37126  -0.36500  -0.35841  -0.34904
 Alpha  occ. eigenvalues --   -0.34348  -0.33559  -0.33240  -0.32937  -0.32845
 Alpha  occ. eigenvalues --   -0.32647  -0.32357  -0.32124  -0.31823  -0.30302
 Alpha  occ. eigenvalues --   -0.30023  -0.29838  -0.25556  -0.25041
 Alpha virt. eigenvalues --    0.02659   0.04224   0.07131   0.08336   0.08651
 Alpha virt. eigenvalues --    0.09262   0.09753   0.10699   0.11248   0.11668
 Alpha virt. eigenvalues --    0.12314   0.14073   0.14516   0.14974   0.14974

 Mulliken charges:
               1
     1  N   -0.312849
     2  C    0.182099
     3  C    0.041420
     4  N   -0.258089
     5  C    0.135826
     6  H    0.024854
     7  N   -0.299527
     8  C    0.142660
     9  H    0.007445
    10  N   -0.289104
    11  C    0.257069
    12  C    0.118134
    13  N   -0.062534
    14  H    0.111542
    15  H    0.081443
    16  H    0.022632
    17  H    0.032869
    18  H    0.027025
    19  N   -0.312370
    20  C    0.247164
    21  C    0.180928
    22  N   -0.104525
    23  H    0.113139
    24  H    0.113297
    25  N   -0.308758
    26  C    0.233881
    27  N   -0.147578
    28  H    0.123491
    29  C    0.188523
    30  O   -0.321081
    31  C   -0.008087
    32  N   -0.224991
    33  C    0.129714
    34  H    0.025039
    35  H    0.028173
    36  H    0.028485
    37  H    0.024770
    38  H    0.057286
    39  H    0.060139
    40  H    0.076228
    41  H    0.031938
    42  C   -0.115078
    43  O   -0.261357
    44  C    0.169242
    45  H    0.132881
    46  N   -0.122804
    47  O   -0.344886
    48  C    0.341856
    49  H    0.046027
    50  C    0.157916
    51  C    0.040661
    52  N   -0.280455
    53  H    0.035383
    54  H    0.041110
    55  H    0.026875
    56  H    0.119117
    57  H    0.115696
    58  N   -0.064033
    59  C    0.090480
    60  C    0.237280
    61  N   -0.266942
    62  H    0.042158
    63  C    0.163736
    64  N   -0.307124
    65  H    0.037151
    66  C    0.138504
    67  N   -0.269065
    68  C    0.034779
    69  C    0.176799
    70  N   -0.313625
 Sum of Mulliken charges =  -0.00000

 Dipole moment (field-independent basis, Debye):
    X=              9.5907    Y=              4.9737    Z=              1.1961  Tot=             10.8697
 Quadrupole moment (field-independent basis, Debye-Ang):
   XX=           -166.6162   YY=           -207.5178   ZZ=           -252.1221
   XY=             -7.4659   XZ=             -4.7314   YZ=             -3.9066

 Normal termination of Gaussian 16 at Sat Jan 27 09:31:43 2018.
