 Gaussian 16, Revision A.03,
 Gaussian 16:  EM64L-G16RevA.03 25-Dec-2016

 ---------------------------------------
 #p wb97xd/cc-pvdz sp scf=(maxcycles=20)
 ---------------------------------------

 ------------------
 Base pair stacking
 ------------------
 Symbolic Z-matrix:
 Charge =  0 Multiplicity = 1

                         Standard orientation:
 ---------------------------------------------------------------------
 Center     Atomic      Atomic             Coordinates (Angstroms)
 Number     Number       Type             X           Y           Z
 ---------------------------------------------------------------------
      1          7           0        4.282428   -2.205937   -1.847495
      2          6           0        5.699402   -1.841078   -2.040068
      3          6           0        2.096688   -2.117786   -1.619339
      4          7           0        2.444043   -3.456902   -1.515336
      5          6           0        3.746977   -3.456422   -1.656948
      6          1           0        4.373805   -4.348229   -1.630658
      7          7           0        0.860763   -0.110458   -1.697524
      8          6           0        2.028397    0.511692   -1.890245
      9          1           0        1.966522    1.593727   -1.998058
     10          7           0        3.255236    0.000306   -1.969415
     11          6           0        3.219287   -1.334635   -1.824206
     12          6           0        0.858127   -1.453878   -1.555033
     13          7           0       -0.306433   -2.076716   -1.362573
     14          1           0       -0.355704   -3.069993   -1.252083
     15          1           0       -1.168866   -1.572009   -1.322297
     16          1           0        6.054766   -2.297922   -2.855665
     17          1           0        5.776997   -0.850989   -2.153303
     18          1           0        6.230587   -2.126275   -1.242268
     19          7           0        4.567684    3.235525    0.665067
     20          6           0        3.292393    2.745441    0.811775
     21          6           0        4.912339    4.631617    0.329178
     22          7           0       -0.144240    3.245695    0.780247
     23          1           0       -0.970122    2.702313    0.928230
     24          1           0       -0.271201    4.212473    0.556766
     25          7           0        2.149102    3.451258    0.674833
     26          6           0        1.078969    2.703190    0.876901
     27          7           0        1.122953    1.366028    1.189282
     28          1           0        0.253930    0.873138    1.326510
     29          6           0        2.287972    0.619511    1.335217
     30          8           0        2.217509   -0.582713    1.618813
     31          6           0        3.445919    1.409577    1.121115
     32          7           0        4.790521    1.067870    1.167670
     33          6           0        5.416521    2.179631    0.891421
     34          1           0        6.500666    2.285450    0.839565
     35          1           0        5.427420    4.652784   -0.527004
     36          1           0        4.073311    5.164075    0.225291
     37          1           0        5.467057    5.025170    1.061448
     38          1           0       -4.412019   -1.145703    1.249698
     39          1           0       -4.275124   -1.007366    3.000919
     40          1           0       -3.469531    0.165859    1.958854
     41          1           0       -1.621936   -4.943641    2.218030
     42          6           0       -1.538405   -3.860697    2.125951
     43          8           0        0.826577   -3.874157    1.942144
     44          6           0       -0.244161   -3.268345    1.977991
     45          1           0        0.644994   -1.437525    1.763869
     46          7           0       -0.250933   -1.892297    1.869831
     47          8           0       -1.251908    0.144465    1.787183
     48          6           0       -1.346508   -1.065944    1.890194
     49          1           0       -3.632302   -3.481881    2.259716
     50          6           0       -2.625617   -3.080939    2.149351
     51          6           0       -3.757713   -0.869611    2.063167
     52          7           0       -2.558554   -1.711635    2.035943
     53          1           0       -5.641635    4.406080   -1.653440
     54          1           0       -4.279933    4.217186   -0.774697
     55          1           0       -5.727931    4.306497   -0.026762
     56          1           0       -3.907482   -2.793605   -1.181532
     57          1           0       -5.517836   -2.232974   -1.232098
     58          7           0       -4.542086   -2.020800   -1.167897
     59          6           0       -4.107540   -0.762832   -1.068538
     60          6           0       -4.358764    1.599701   -0.938045
     61          7           0       -3.042647    1.854827   -0.853331
     62          1           0       -1.263407    0.837999   -0.821630
     63          6           0       -2.344435    0.721529   -0.885552
     64          7           0       -2.777816   -0.539376   -0.985022
     65          1           0       -7.523144    2.249911   -1.064877
     66          6           0       -6.542106    1.774515   -1.042207
     67          7           0       -6.338810    0.481565   -1.110160
     68          6           0       -4.958592    0.357026   -1.045170
     69          6           0       -5.248093    3.977424   -0.840183
     70          7           0       -5.387731    2.511415   -0.936694
 ---------------------------------------------------------------------

 SCF Done:  E(RwB97XD) =  -2048.74683449     A.U. after   15 cycles

 The electronic state is 1-A.
 Alpha  occ. eigenvalues --  -19.25084 -19.21131 -19.20437 -14.52687 -14.51714
 Alpha  occ. eigenvalues --  -14.49330 -14.48767 -14.48188 -14.47008 -14.46528
 Alpha  occ. eigenvalues --  -14.46217 -14.45595 -14.45102 -14.45092 -14.43208
 Alpha  occ. eigenvalues --  -14.41874 -14.40948 -14.40891 -14.40833 -14.40543
 Alpha  occ. eigenvalues --  -10.44689 -10.40958 -10.40709 -10.39254 -10.38179
 Alpha  occ. eigenvalues --  -10.38016 -10.37701 -10.37264 -10.36494 -10.35746
 Alpha  occ. eigenvalues --  -10.34314 -10.34220 -10.34063 -10.33667 -10.33339
 Alpha  occ. eigenvalues --  -10.33151 -10.33072 -10.32976 -10.30988 -10.30581
 Alpha  occ. eigenvalues --  -10.30039 -10.28408 -10.27983  -1.18669  -1.15491
 Alpha  occ. eigenvalues --   -1.12987  -1.12149  -1.10886  -1.10497  -1.10094
 Alpha  occ. eigenvalues --   -1.08596  -1.08303  -1.05633  -1.05226  -1.01654
 Alpha  occ. eigenvalues --   -1.01281  -1.00746  -0.99384  -0.98362  -0.97602
 Alpha  occ. eigenvalues --   -0.96598  -0.96526  -0.92900  -0.90442  -0.88059
 Alpha  occ. eigenvalues --   -0.86184  -0.84032  -0.83569  -0.82893  -0.82446
 Alpha  occ. eigenvalues --   -0.81820  -0.78216  -0.77588  -0.75425  -0.74470
 Alpha  occ. eigenvalues --   -0.73326  -0.72923  -0.72594  -0.71065  -0.70909
 Alpha  occ. eigenvalues --   -0.67475  -0.67095  -0.66319  -0.65860  -0.64803
 Alpha  occ. eigenvalues --   -0.64149  -0.63341  -0.62799  -0.62382  -0.61491
 Alpha  occ. eigenvalues --   -0.61065  -0.60747  -0.60084  -0.59865  -0.59082
 Alpha  occ. eigenvalues --   -0.58940  -0.57985  -0.56759  -0.56501  -0.55822
 Alpha  occ. eigenvalues --   -0.55601  -0.55575  -0.55490  -0.55036  -0.54051
 Alpha  occ. eigenvalues --   -0.53906  -0.53511  -0.53217  -0.53172  -0.52763
 Alpha  occ. eigenvalues --   -0.52490  -0.51783  -0.51329  -0.50430  -0.50379
 Alpha  occ. eigenvalues --   -0.49980  -0.49876  -0.49409  -0.48881  -0.48814
 Alpha  occ. eigenvalues --   -0.48564  -0.47867  -0.47655  -0.47560  -0.46972
 Alpha  occ. eigenvalues --   -0.46687  -0.45660  -0.45447  -0.44624  -0.43233
 Alpha  occ. eigenvalues --   -0.41208  -0.41124  -0.38843  -0.38265  -0.38089
 Alpha  occ. eigenvalues --   -0.37267  -0.37109  -0.36756  -0.35463  -0.35121
 Alpha  occ. eigenvalues --   -0.35004  -0.33885  -0.33416  -0.33262  -0.32722
 Alpha  occ. eigenvalues --   -0.32471  -0.32198  -0.31718  -0.31210  -0.30765
 Alpha  occ. eigenvalues --   -0.30577  -0.30294  -0.26230  -0.25048
 Alpha virt. eigenvalues --    0.03456   0.03704   0.06483   0.07961   0.09116
 Alpha virt. eigenvalues --    0.09407   0.09896   0.10288   0.11022   0.11269
 Alpha virt. eigenvalues --    0.13531   0.14493   0.14573   0.14763   0.15041

 Mulliken charges:
               1
     1  N   -0.313706
     2  C    0.184746
     3  C    0.060549
     4  N   -0.261975
     5  C    0.145187
     6  H    0.028087
     7  N   -0.288838
     8  C    0.120819
     9  H    0.017590
    10  N   -0.270492
    11  C    0.263966
    12  C    0.080596
    13  N   -0.072711
    14  H    0.108259
    15  H    0.083911
    16  H    0.019485
    17  H    0.035079
    18  H    0.033677
    19  N   -0.311269
    20  C    0.244699
    21  C    0.180885
    22  N   -0.113395
    23  H    0.116552
    24  H    0.115639
    25  N   -0.309420
    26  C    0.231703
    27  N   -0.127597
    28  H    0.115058
    29  C    0.168218
    30  O   -0.320660
    31  C    0.006303
    32  N   -0.230761
    33  C    0.124517
    34  H    0.022318
    35  H    0.026869
    36  H    0.029138
    37  H    0.024710
    38  H    0.051611
    39  H    0.056903
    40  H    0.075561
    41  H    0.028855
    42  C   -0.113442
    43  O   -0.256480
    44  C    0.171934
    45  H    0.136871
    46  N   -0.128101
    47  O   -0.346915
    48  C    0.354933
    49  H    0.041999
    50  C    0.159904
    51  C    0.042180
    52  N   -0.283712
    53  H    0.034837
    54  H    0.037410
    55  H    0.031872
    56  H    0.117060
    57  H    0.121842
    58  N   -0.061500
    59  C    0.061411
    60  C    0.249362
    61  N   -0.280680
    62  H    0.018533
    63  C    0.193149
    64  N   -0.307595
    65  H    0.040270
    66  C    0.143737
    67  N   -0.260338
    68  C    0.033630
    69  C    0.181114
    70  N   -0.313954
 Sum of Mulliken charges =  -0.00000

 Dipole moment (field-independent basis, Debye):
    X=             -9.2818    Y=              5.3013    Z=             -1.2453  Tot=             10.7613
 Quadrupole moment (field-independent basis, Debye-Ang):
   XX=           -177.8714   YY=           -207.3885   ZZ=           -250.9669
   XY=              9.1116   XZ=            -19.1787   YZ=              5.7108

 Normal termination of Gaussian 16 at Fri Jan 26 23:50:07 2018.
