 Gaussian 16, Revision A.03,
 Gaussian 16:  EM64L-G16RevA.03 25-Dec-2016

 ---------------------------------------
 #p wb97xd/cc-pvdz sp scf=(maxcycles=20)
 ---------------------------------------

 ------------------
 Base pair stacking
 ------------------
 Symbolic Z-matrix:
 Charge =  0 Multiplicity = 1

                         Standard orientation:
 ---------------------------------------------------------------------
 Center     Atomic      Atomic             Coordinates (Angstroms)
 Number     Number       Type             X           Y           Z
 ---------------------------------------------------------------------
      1          7           0       -7.013081   -1.596901    0.111346
      2          6           0       -8.424103   -1.169250    0.046970
      3          6           0       -4.835582   -1.635794    0.418403
      4          7           0       -5.183518   -2.893242   -0.053297
      5          6           0       -6.481456   -2.819481   -0.219402
      6          1           0       -7.107163   -3.634645   -0.584011
      7          7           0       -3.601532    0.208858    1.216732
      8          6           0       -4.763802    0.867824    1.266289
      9          1           0       -4.700623    1.896178    1.619503
     10          7           0       -5.986671    0.449182    0.946531
     11          6           0       -5.952763   -0.825826    0.525086
     12          6           0       -3.600817   -1.072371    0.788330
     13          7           0       -2.441602   -1.731832    0.738166
     14          1           0       -2.393942   -2.681781    0.427459
     15          1           0       -1.581755   -1.299062    1.009290
     16          1           0       -8.978622   -1.754878    0.638350
     17          1           0       -8.499988   -0.220736    0.353045
     18          1           0       -8.753802   -1.241360   -0.894354
     19          7           0       -1.518338    3.280819   -1.982172
     20          6           0       -0.298083    2.692940   -1.751036
     21          6           0       -1.767422    4.735099   -2.043274
     22          7           0        3.106555    2.975375   -1.126200
     23          1           0        3.882367    2.362978   -0.976751
     24          1           0        3.292891    3.957923   -1.102084
     25          7           0        0.869015    3.339845   -1.542583
     26          6           0        1.871451    2.501245   -1.348985
     27          7           0        1.742894    1.133436   -1.358421
     28          1           0        2.564264    0.569902   -1.201101
     29          6           0        0.551880    0.446267   -1.570871
     30          8           0        0.544255   -0.790893   -1.559372
     31          6           0       -0.534059    1.333797   -1.780369
     32          7           0       -1.875468    1.073653   -2.024995
     33          6           0       -2.418811    2.255315   -2.137509
     34          1           0       -3.476032    2.436461   -2.334344
     35          1           0       -2.427075    4.991898   -1.337787
     36          1           0       -0.909999    5.224682   -1.890277
     37          1           0       -2.131163    4.975158   -2.942647
     38          1           0        6.890818   -1.652998    0.279561
     39          1           0        7.096805   -1.929549   -1.448373
     40          1           0        6.242574   -0.494141   -0.881565
     41          1           0        3.937484   -5.394624   -0.372050
     42          6           0        3.955061   -4.318082   -0.542248
     43          8           0        1.609489   -4.142721   -0.849931
     44          6           0        2.727039   -3.629631   -0.798826
     45          1           0        2.015365   -1.749970   -1.184500
     46          7           0        2.861314   -2.270725   -1.000305
     47          8           0        4.042342   -0.338376   -1.168784
     48          6           0        4.023910   -1.541735   -0.978388
     49          1           0        6.065781   -4.110868   -0.323790
     50          6           0        5.105061   -3.634451   -0.514565
     51          6           0        6.432257   -1.540103   -0.691543
     52          7           0        5.165512   -2.276314   -0.724728
     53          1           0        2.837765    4.112065    3.662689
     54          1           0        1.724787    4.215859    2.474162
     55          1           0        3.312677    4.343152    2.118513
     56          1           0        1.075348   -2.676956    1.240172
     57          1           0        2.640095   -2.267158    1.782156
     58          7           0        1.715040   -1.970251    1.542665
     59          6           0        1.351690   -0.688608    1.623464
     60          6           0        1.690862    1.622935    2.074563
     61          7           0        0.441840    1.992720    1.746522
     62          1           0       -1.303612    1.147342    1.083666
     63          6           0       -0.273795    0.935561    1.368108
     64          7           0        0.088314   -0.348884    1.286505
     65          1           0        4.746755    1.982194    3.066860
     66          6           0        3.787915    1.600307    2.715107
     67          7           0        3.539299    0.341150    2.449770
     68          6           0        2.213054    0.341595    2.042589
     69          6           0        2.641434    3.892382    2.707076
     70          7           0        2.713824    2.431575    2.510049
 ---------------------------------------------------------------------

 SCF Done:  E(RwB97XD) =  -2048.74008683     A.U. after   15 cycles

 The electronic state is 1-A.
 Alpha  occ. eigenvalues --  -19.26372 -19.23041 -19.21050 -14.53113 -14.50965
 Alpha  occ. eigenvalues --  -14.49101 -14.48552 -14.48516 -14.47558 -14.47501
 Alpha  occ. eigenvalues --  -14.46313 -14.44049 -14.42563 -14.42544 -14.42409
 Alpha  occ. eigenvalues --  -14.41724 -14.41233 -14.41096 -14.40565 -14.39784
 Alpha  occ. eigenvalues --  -10.46049 -10.41827 -10.41021 -10.38686 -10.38549
 Alpha  occ. eigenvalues --  -10.38144 -10.36593 -10.35701 -10.35552 -10.35057
 Alpha  occ. eigenvalues --  -10.34732 -10.33973 -10.33890 -10.33556 -10.33109
 Alpha  occ. eigenvalues --  -10.32748 -10.32700 -10.31817 -10.31169 -10.31054
 Alpha  occ. eigenvalues --  -10.30754 -10.28510 -10.28278  -1.20010  -1.14011
 Alpha  occ. eigenvalues --   -1.13781  -1.13588  -1.11128  -1.10960  -1.09992
 Alpha  occ. eigenvalues --   -1.09146  -1.07503  -1.04640  -1.03401  -1.02966
 Alpha  occ. eigenvalues --   -1.00457  -1.00069  -0.99473  -0.98997  -0.96931
 Alpha  occ. eigenvalues --   -0.96714  -0.95066  -0.92269  -0.91762  -0.86088
 Alpha  occ. eigenvalues --   -0.84531  -0.84472  -0.84216  -0.83698  -0.82847
 Alpha  occ. eigenvalues --   -0.82074  -0.79580  -0.75463  -0.75057  -0.74252
 Alpha  occ. eigenvalues --   -0.74030  -0.73118  -0.72603  -0.70752  -0.68858
 Alpha  occ. eigenvalues --   -0.67943  -0.67219  -0.65998  -0.65220  -0.65038
 Alpha  occ. eigenvalues --   -0.64239  -0.63154  -0.62704  -0.62337  -0.62307
 Alpha  occ. eigenvalues --   -0.60192  -0.60158  -0.59887  -0.59061  -0.58962
 Alpha  occ. eigenvalues --   -0.58507  -0.58083  -0.56946  -0.56485  -0.56208
 Alpha  occ. eigenvalues --   -0.56181  -0.55035  -0.55022  -0.54683  -0.54136
 Alpha  occ. eigenvalues --   -0.53982  -0.53752  -0.53396  -0.52974  -0.52385
 Alpha  occ. eigenvalues --   -0.52135  -0.51484  -0.51337  -0.50662  -0.50460
 Alpha  occ. eigenvalues --   -0.50049  -0.49898  -0.49472  -0.49137  -0.48881
 Alpha  occ. eigenvalues --   -0.48680  -0.48474  -0.48040  -0.47912  -0.47706
 Alpha  occ. eigenvalues --   -0.46661  -0.45462  -0.44816  -0.44737  -0.43203
 Alpha  occ. eigenvalues --   -0.40840  -0.39960  -0.39199  -0.37766  -0.37707
 Alpha  occ. eigenvalues --   -0.37199  -0.36886  -0.36008  -0.35480  -0.34972
 Alpha  occ. eigenvalues --   -0.34130  -0.33325  -0.33231  -0.33136  -0.32923
 Alpha  occ. eigenvalues --   -0.32763  -0.32654  -0.32302  -0.32201  -0.30658
 Alpha  occ. eigenvalues --   -0.30018  -0.28344  -0.25905  -0.25444
 Alpha virt. eigenvalues --    0.02252   0.05491   0.07641   0.08291   0.08486
 Alpha virt. eigenvalues --    0.09177   0.09377   0.11322   0.11598   0.12167
 Alpha virt. eigenvalues --    0.12729   0.14098   0.14555   0.14671   0.15367

 Mulliken charges:
               1
     1  N   -0.310812
     2  C    0.181170
     3  C    0.028478
     4  N   -0.258223
     5  C    0.132377
     6  H    0.025535
     7  N   -0.293166
     8  C    0.133786
     9  H    0.009550
    10  N   -0.290568
    11  C    0.241833
    12  C    0.124577
    13  N   -0.054327
    14  H    0.110855
    15  H    0.091965
    16  H    0.024877
    17  H    0.034860
    18  H    0.025278
    19  N   -0.311359
    20  C    0.256471
    21  C    0.182084
    22  N   -0.122315
    23  H    0.117096
    24  H    0.117448
    25  N   -0.302807
    26  C    0.228973
    27  N   -0.130883
    28  H    0.119289
    29  C    0.172678
    30  O   -0.321782
    31  C   -0.011692
    32  N   -0.218809
    33  C    0.130081
    34  H    0.031361
    35  H    0.029957
    36  H    0.027621
    37  H    0.025552
    38  H    0.063764
    39  H    0.061019
    40  H    0.076983
    41  H    0.034271
    42  C   -0.104565
    43  O   -0.270400
    44  C    0.148199
    45  H    0.134312
    46  N   -0.123722
    47  O   -0.346792
    48  C    0.354093
    49  H    0.051745
    50  C    0.171122
    51  C    0.042670
    52  N   -0.295709
    53  H    0.029728
    54  H    0.044133
    55  H    0.015889
    56  H    0.128650
    57  H    0.109185
    58  N   -0.062067
    59  C    0.092356
    60  C    0.242009
    61  N   -0.264714
    62  H    0.043103
    63  C    0.160364
    64  N   -0.296363
    65  H    0.027716
    66  C    0.126679
    67  N   -0.268465
    68  C    0.023548
    69  C    0.182976
    70  N   -0.308725
 Sum of Mulliken charges =  -0.00000

 Dipole moment (field-independent basis, Debye):
    X=              9.8249    Y=              4.5899    Z=              0.8972  Tot=             10.8812
 Quadrupole moment (field-independent basis, Debye-Ang):
   XX=           -153.7060   YY=           -209.2693   ZZ=           -247.7946
   XY=             -4.3288   XZ=             11.2653   YZ=             -5.3355

 Normal termination of Gaussian 16 at Sat Jan 27 07:27:38 2018.
