 Gaussian 16, Revision A.03,
 Gaussian 16:  EM64L-G16RevA.03 25-Dec-2016

 ---------------------------------------
 #p wb97xd/cc-pvdz sp scf=(maxcycles=20)
 ---------------------------------------

 ------------------
 Base pair stacking
 ------------------
 Symbolic Z-matrix:
 Charge =  0 Multiplicity = 1

                         Standard orientation:
 ---------------------------------------------------------------------
 Center     Atomic      Atomic             Coordinates (Angstroms)
 Number     Number       Type             X           Y           Z
 ---------------------------------------------------------------------
      1          7           0       -6.946523   -1.622409    0.235644
      2          6           0       -8.336819   -1.181641    0.010259
      3          6           0       -4.782997   -1.649676    0.630279
      4          7           0       -5.165329   -2.973870    0.471946
      5          6           0       -6.453473   -2.904444    0.240528
      6          1           0       -7.099112   -3.765381    0.064822
      7          7           0       -3.502772    0.297420    0.994684
      8          6           0       -4.639093    0.982940    0.832160
      9          1           0       -4.546471    2.064487    0.921235
     10          7           0       -5.866873    0.535153    0.577321
     11          6           0       -5.870118   -0.805122    0.487377
     12          6           0       -3.539195   -1.049600    0.898212
     13          7           0       -2.405939   -1.735665    1.060139
     14          1           0       -2.386090   -2.734095    0.997210
     15          1           0       -1.538622   -1.275283    1.249762
     16          1           0       -8.932382   -1.583995    0.705675
     17          1           0       -8.384778   -0.184898    0.067925
     18          1           0       -8.639328   -1.476325   -0.896186
     19          7           0       -1.705919    3.133494   -1.817439
     20          6           0       -0.477658    2.577197   -1.552923
     21          6           0       -2.026461    4.572746   -1.736780
     22          7           0        2.848698    2.935426   -0.620867
     23          1           0        3.642091    2.344649   -0.476771
     24          1           0        2.980146    3.915914   -0.472262
     25          7           0        0.633812    3.246556   -1.177900
     26          6           0        1.661449    2.436196   -0.996496
     27          7           0        1.606860    1.074254   -1.168647
     28          1           0        2.442404    0.533065   -1.007535
     29          6           0        0.474020    0.364339   -1.554072
     30          8           0        0.531274   -0.865038   -1.680956
     31          6           0       -0.638117    1.221422   -1.752707
     32          7           0       -1.940893    0.932368   -2.134955
     33          6           0       -2.535938    2.094048   -2.159911
     34          1           0       -3.582925    2.249942   -2.422200
     35          1           0       -2.751355    4.717306   -1.064156
     36          1           0       -1.210658    5.078730   -1.459825
     37          1           0       -2.331880    4.898528   -2.630877
     38          1           0        6.753632   -1.652898    0.569673
     39          1           0        7.106885   -1.719286   -1.155277
     40          1           0        6.136362   -0.397717   -0.504977
     41          1           0        4.062450   -5.420974   -0.736361
     42          6           0        4.035905   -4.332267   -0.783702
     43          8           0        1.715115   -4.226088   -1.263070
     44          6           0        2.796521   -3.673594   -1.062863
     45          1           0        2.017907   -1.795198   -1.294619
     46          7           0        2.873562   -2.295936   -1.100110
     47          8           0        3.959733   -0.306936   -0.954222
     48          6           0        3.990617   -1.523849   -0.901059
     49          1           0        6.109435   -4.058865   -0.369580
     50          6           0        5.142371   -3.606419   -0.585036
     51          6           0        6.366106   -1.449231   -0.417452
     52          7           0        5.146623   -2.231773   -0.637073
     53          1           0        3.005540    4.489777    2.652477
     54          1           0        1.935483    4.327480    1.431522
     55          1           0        3.537571    4.313611    1.119731
     56          1           0        1.053386   -2.632138    1.922466
     57          1           0        2.615258   -2.147851    2.408373
     58          7           0        1.710662   -1.892102    2.065567
     59          6           0        1.395874   -0.620408    1.810883
     60          6           0        1.811735    1.719137    1.687210
     61          7           0        0.589238    2.033173    1.227548
     62          1           0       -1.166519    1.102631    0.725529
     63          6           0       -0.155336    0.937310    1.094922
     64          7           0        0.158131   -0.337253    1.349475
     65          1           0        4.846695    2.221532    2.681614
     66          6           0        3.885051    1.793303    2.397333
     67          7           0        3.595364    0.515943    2.443144
     68          6           0        2.283638    0.455098    1.995475
     69          6           0        2.830848    4.044629    1.774226
     70          7           0        2.851630    2.579370    1.949158
 ---------------------------------------------------------------------

 SCF Done:  E(RwB97XD) =  -2048.70526367     A.U. after   15 cycles

 The electronic state is 1-A.
 Alpha  occ. eigenvalues --  -19.26027 -19.22216 -19.20788 -14.52649 -14.51416
 Alpha  occ. eigenvalues --  -14.48987 -14.48839 -14.48080 -14.47218 -14.47063
 Alpha  occ. eigenvalues --  -14.46911 -14.44509 -14.43022 -14.42632 -14.42276
 Alpha  occ. eigenvalues --  -14.42100 -14.41543 -14.40982 -14.40936 -14.40174
 Alpha  occ. eigenvalues --  -10.45674 -10.41462 -10.40328 -10.38816 -10.38427
 Alpha  occ. eigenvalues --  -10.38024 -10.37076 -10.35933 -10.35476 -10.35389
 Alpha  occ. eigenvalues --  -10.34492 -10.34305 -10.34197 -10.33560 -10.33509
 Alpha  occ. eigenvalues --  -10.33439 -10.33127 -10.31614 -10.31327 -10.31093
 Alpha  occ. eigenvalues --  -10.30967 -10.28632 -10.28432  -1.19617  -1.14502
 Alpha  occ. eigenvalues --   -1.13380  -1.13231  -1.11433  -1.10808  -1.09533
 Alpha  occ. eigenvalues --   -1.09027  -1.08148  -1.05026  -1.03710  -1.02714
 Alpha  occ. eigenvalues --   -1.01021  -1.00498  -0.99588  -0.98723  -0.97049
 Alpha  occ. eigenvalues --   -0.96797  -0.95699  -0.92674  -0.91269  -0.86871
 Alpha  occ. eigenvalues --   -0.85375  -0.84385  -0.84003  -0.83829  -0.82767
 Alpha  occ. eigenvalues --   -0.82373  -0.79097  -0.76062  -0.74926  -0.74238
 Alpha  occ. eigenvalues --   -0.73713  -0.73566  -0.72975  -0.71118  -0.69532
 Alpha  occ. eigenvalues --   -0.67829  -0.66769  -0.66379  -0.65902  -0.64687
 Alpha  occ. eigenvalues --   -0.64024  -0.63435  -0.63045  -0.62765  -0.62743
 Alpha  occ. eigenvalues --   -0.60307  -0.60087  -0.59766  -0.59699  -0.59626
 Alpha  occ. eigenvalues --   -0.59059  -0.58660  -0.56925  -0.56576  -0.56421
 Alpha  occ. eigenvalues --   -0.56154  -0.55481  -0.55185  -0.54604  -0.54416
 Alpha  occ. eigenvalues --   -0.53873  -0.53528  -0.53201  -0.52955  -0.52591
 Alpha  occ. eigenvalues --   -0.52189  -0.51814  -0.51756  -0.50771  -0.50367
 Alpha  occ. eigenvalues --   -0.50237  -0.49612  -0.49292  -0.49014  -0.48838
 Alpha  occ. eigenvalues --   -0.48678  -0.48553  -0.48359  -0.47615  -0.47579
 Alpha  occ. eigenvalues --   -0.47010  -0.45580  -0.45150  -0.44228  -0.42874
 Alpha  occ. eigenvalues --   -0.41230  -0.39851  -0.39595  -0.38156  -0.37463
 Alpha  occ. eigenvalues --   -0.37234  -0.36786  -0.36250  -0.35495  -0.35019
 Alpha  occ. eigenvalues --   -0.33648  -0.33546  -0.33378  -0.33224  -0.32869
 Alpha  occ. eigenvalues --   -0.32797  -0.32353  -0.32174  -0.32015  -0.30952
 Alpha  occ. eigenvalues --   -0.30399  -0.28776  -0.25858  -0.25463
 Alpha virt. eigenvalues --    0.02877   0.04793   0.07511   0.07900   0.08227
 Alpha virt. eigenvalues --    0.09138   0.09776   0.10816   0.11176   0.12371
 Alpha virt. eigenvalues --    0.13180   0.13895   0.14150   0.14473   0.14936

 Mulliken charges:
               1
     1  N   -0.311185
     2  C    0.181172
     3  C    0.029782
     4  N   -0.259716
     5  C    0.134098
     6  H    0.026812
     7  N   -0.291008
     8  C    0.136568
     9  H    0.006363
    10  N   -0.289541
    11  C    0.244935
    12  C    0.126010
    13  N   -0.058689
    14  H    0.108340
    15  H    0.088912
    16  H    0.025166
    17  H    0.035001
    18  H    0.026566
    19  N   -0.311259
    20  C    0.242674
    21  C    0.182852
    22  N   -0.095341
    23  H    0.116371
    24  H    0.114302
    25  N   -0.264575
    26  C    0.167365
    27  N   -0.101394
    28  H    0.117598
    29  C    0.148513
    30  O   -0.316361
    31  C   -0.005771
    32  N   -0.217322
    33  C    0.128743
    34  H    0.031185
    35  H    0.029057
    36  H    0.026684
    37  H    0.025210
    38  H    0.061692
    39  H    0.059473
    40  H    0.075839
    41  H    0.032701
    42  C   -0.112688
    43  O   -0.265102
    44  C    0.172283
    45  H    0.134910
    46  N   -0.137445
    47  O   -0.346482
    48  C    0.359047
    49  H    0.048811
    50  C    0.169689
    51  C    0.043649
    52  N   -0.298061
    53  H    0.029845
    54  H    0.045459
    55  H    0.002903
    56  H    0.124322
    57  H    0.113320
    58  N   -0.069471
    59  C    0.095538
    60  C    0.206716
    61  N   -0.252029
    62  H    0.059358
    63  C    0.149475
    64  N   -0.294834
    65  H    0.028627
    66  C    0.115100
    67  N   -0.262300
    68  C    0.041443
    69  C    0.179793
    70  N   -0.289698
 Sum of Mulliken charges =  -0.00000

 Dipole moment (field-independent basis, Debye):
    X=              8.7293    Y=              4.6635    Z=              2.6990  Tot=             10.2583
 Quadrupole moment (field-independent basis, Debye-Ang):
   XX=           -154.6291   YY=           -211.3685   ZZ=           -252.1599
   XY=             -2.8286   XZ=             11.1388   YZ=            -10.4896

 Normal termination of Gaussian 16 at Sat Jan 27 11:13:01 2018.
