 Gaussian 16, Revision A.03,
 Gaussian 16:  EM64L-G16RevA.03 25-Dec-2016

 ---------------------------------------
 #p wb97xd/cc-pvdz sp scf=(maxcycles=20)
 ---------------------------------------

 ------------------
 Base pair stacking
 ------------------
 Symbolic Z-matrix:
 Charge =  0 Multiplicity = 1

                         Standard orientation:
 ---------------------------------------------------------------------
 Center     Atomic      Atomic             Coordinates (Angstroms)
 Number     Number       Type             X           Y           Z
 ---------------------------------------------------------------------
      1          7           0       -5.677278   -1.908279    1.147755
      2          6           0       -7.085506   -1.497001    1.308295
      3          6           0       -3.478077   -1.930500    1.130355
      4          7           0       -3.882437   -3.173124    0.664409
      5          6           0       -5.191195   -3.109993    0.693542
      6          1           0       -5.857770   -3.918516    0.392026
      7          7           0       -2.153499   -0.102232    1.812903
      8          6           0       -3.300613    0.539008    2.058911
      9          1           0       -3.193653    1.553597    2.440270
     10          7           0       -4.554129    0.117095    1.905302
     11          6           0       -4.573288   -1.140016    1.432319
     12          6           0       -2.206467   -1.365725    1.337659
     13          7           0       -1.062473   -2.007465    1.091466
     14          1           0       -1.054108   -2.943923    0.739047
     15          1           0       -0.175274   -1.574309    1.250821
     16          1           0       -7.542762   -2.112390    1.950468
     17          1           0       -7.122459   -0.562179    1.660230
     18          1           0       -7.549508   -1.536788    0.423358
     19          7           0       -3.101454    3.532358   -1.476848
     20          6           0       -1.852646    2.959186   -1.482186
     21          6           0       -3.377434    4.976273   -1.336754
     22          7           0        1.601258    3.272065   -1.296782
     23          1           0        2.398987    2.670340   -1.325036
     24          1           0        1.775016    4.250961   -1.185884
     25          7           0       -0.677355    3.613489   -1.361322
     26          6           0        0.354156    2.788944   -1.402764
     27          7           0        0.245170    1.427467   -1.551153
     28          1           0        1.088408    0.874759   -1.572232
     29          6           0       -0.953782    0.732881   -1.677310
     30          8           0       -0.941994   -0.497524   -1.806550
     31          6           0       -2.070883    1.605319   -1.634597
     32          7           0       -3.429352    1.333990   -1.723159
     33          6           0       -3.999934    2.504039   -1.624935
     34          1           0       -5.076704    2.674246   -1.654499
     35          1           0       -3.936911    5.133024   -0.523588
     36          1           0       -2.514217    5.471215   -1.246459
     37          1           0       -3.865359    5.304018   -2.145027
     38          1           0        5.609502   -1.368697   -0.956394
     39          1           0        5.578715   -1.444749   -2.716487
     40          1           0        4.790482   -0.107644   -1.878511
     41          1           0        2.648483   -5.101194   -1.625255
     42          6           0        2.626918   -4.012343   -1.671931
     43          8           0        0.259057   -3.874116   -1.636485
     44          6           0        1.365468   -3.336673   -1.679059
     45          1           0        0.580429   -1.447913   -1.746945
     46          7           0        1.451093   -1.960377   -1.740029
     47          8           0        2.569658    0.013197   -1.844890
     48          6           0        2.594982   -1.203890   -1.792737
     49          1           0        4.744386   -3.767646   -1.719551
     50          6           0        3.759780   -3.301935   -1.722453
     51          6           0        5.019588   -1.162113   -1.836953
     52          7           0        3.771115   -1.927645   -1.782032
     53          1           0        4.546922    3.787132    3.443707
     54          1           0        3.270553    3.922426    2.436404
     55          1           0        4.787909    4.084266    1.857181
     56          1           0        2.496851   -2.925164    1.033760
     57          1           0        4.121253   -2.516238    1.356532
     58          7           0        3.168915   -2.222415    1.267463
     59          6           0        2.812088   -0.949756    1.452335
     60          6           0        3.197091    1.346759    1.941760
     61          7           0        1.910749    1.712593    1.815617
     62          1           0        0.092997    0.870789    1.382299
     63          6           0        1.154951    0.661645    1.503871
     64          7           0        1.510459   -0.613797    1.318269
     65          1           0        6.362980    1.707258    2.488898
     66          6           0        5.365639    1.326785    2.266430
     67          7           0        5.089872    0.075731    1.989809
     68          6           0        3.718205    0.074594    1.781863
     69          6           0        4.213811    3.602193    2.519143
     70          7           0        4.267056    2.151226    2.254823
 ---------------------------------------------------------------------

 SCF Done:  E(RwB97XD) =  -2048.74325003     A.U. after   15 cycles

 The electronic state is 1-A.
 Alpha  occ. eigenvalues --  -19.26069 -19.22455 -19.20701 -14.52713 -14.52139
 Alpha  occ. eigenvalues --  -14.48899 -14.48307 -14.48130 -14.47909 -14.47075
 Alpha  occ. eigenvalues --  -14.46850 -14.45187 -14.44094 -14.43999 -14.42153
 Alpha  occ. eigenvalues --  -14.41550 -14.40922 -14.40529 -14.40082 -14.39520
 Alpha  occ. eigenvalues --  -10.45726 -10.41370 -10.40563 -10.39763 -10.38340
 Alpha  occ. eigenvalues --  -10.38316 -10.37724 -10.36886 -10.35403 -10.35312
 Alpha  occ. eigenvalues --  -10.34681 -10.34445 -10.33637 -10.33369 -10.33241
 Alpha  occ. eigenvalues --  -10.32512 -10.32416 -10.32312 -10.31647 -10.31060
 Alpha  occ. eigenvalues --  -10.30227 -10.28199 -10.27686  -1.19663  -1.14887
 Alpha  occ. eigenvalues --   -1.13443  -1.13315  -1.10691  -1.10483  -1.09651
 Alpha  occ. eigenvalues --   -1.09111  -1.08680  -1.04679  -1.04233  -1.02787
 Alpha  occ. eigenvalues --   -1.00722  -0.99899  -0.99662  -0.98664  -0.96700
 Alpha  occ. eigenvalues --   -0.96644  -0.96108  -0.91907  -0.91534  -0.87333
 Alpha  occ. eigenvalues --   -0.85633  -0.84226  -0.83842  -0.83123  -0.82628
 Alpha  occ. eigenvalues --   -0.81537  -0.79274  -0.76815  -0.74754  -0.74546
 Alpha  occ. eigenvalues --   -0.73814  -0.73643  -0.72148  -0.70311  -0.70177
 Alpha  occ. eigenvalues --   -0.67526  -0.66849  -0.66657  -0.65546  -0.64725
 Alpha  occ. eigenvalues --   -0.64086  -0.63964  -0.62819  -0.61943  -0.61881
 Alpha  occ. eigenvalues --   -0.60405  -0.60094  -0.59979  -0.59822  -0.59346
 Alpha  occ. eigenvalues --   -0.59062  -0.58528  -0.56744  -0.56186  -0.55884
 Alpha  occ. eigenvalues --   -0.55579  -0.55042  -0.54762  -0.54643  -0.54314
 Alpha  occ. eigenvalues --   -0.53838  -0.53639  -0.53465  -0.53225  -0.53127
 Alpha  occ. eigenvalues --   -0.52654  -0.52529  -0.51032  -0.50341  -0.49936
 Alpha  occ. eigenvalues --   -0.49728  -0.49628  -0.49361  -0.49140  -0.49066
 Alpha  occ. eigenvalues --   -0.48481  -0.48342  -0.48150  -0.47845  -0.47499
 Alpha  occ. eigenvalues --   -0.46175  -0.45748  -0.45120  -0.44201  -0.44142
 Alpha  occ. eigenvalues --   -0.40399  -0.40316  -0.39629  -0.37560  -0.37414
 Alpha  occ. eigenvalues --   -0.37376  -0.37256  -0.36325  -0.36098  -0.34721
 Alpha  occ. eigenvalues --   -0.34175  -0.33884  -0.33542  -0.32808  -0.32753
 Alpha  occ. eigenvalues --   -0.32701  -0.32478  -0.32337  -0.31940  -0.30129
 Alpha  occ. eigenvalues --   -0.29896  -0.29653  -0.25661  -0.24898
 Alpha virt. eigenvalues --    0.02333   0.04318   0.07357   0.08112   0.08814
 Alpha virt. eigenvalues --    0.09159   0.09645   0.10830   0.11236   0.11847
 Alpha virt. eigenvalues --    0.12643   0.14195   0.14429   0.14969   0.15137

 Mulliken charges:
               1
     1  N   -0.312632
     2  C    0.181920
     3  C    0.041022
     4  N   -0.256255
     5  C    0.134973
     6  H    0.024136
     7  N   -0.300955
     8  C    0.141930
     9  H    0.007164
    10  N   -0.291136
    11  C    0.255026
    12  C    0.118059
    13  N   -0.060946
    14  H    0.112827
    15  H    0.081460
    16  H    0.022539
    17  H    0.032829
    18  H    0.026229
    19  N   -0.312111
    20  C    0.248208
    21  C    0.180920
    22  N   -0.116655
    23  H    0.114463
    24  H    0.115348
    25  N   -0.310448
    26  C    0.243417
    27  N   -0.149240
    28  H    0.120647
    29  C    0.192482
    30  O   -0.320180
    31  C   -0.010384
    32  N   -0.225016
    33  C    0.129658
    34  H    0.025943
    35  H    0.028365
    36  H    0.028702
    37  H    0.025075
    38  H    0.059090
    39  H    0.060486
    40  H    0.076633
    41  H    0.033100
    42  C   -0.115539
    43  O   -0.261601
    44  C    0.162874
    45  H    0.132939
    46  N   -0.118985
    47  O   -0.345005
    48  C    0.341792
    49  H    0.046806
    50  C    0.153975
    51  C    0.040271
    52  N   -0.276603
    53  H    0.034061
    54  H    0.043449
    55  H    0.025978
    56  H    0.120124
    57  H    0.115131
    58  N   -0.064361
    59  C    0.093699
    60  C    0.241751
    61  N   -0.267579
    62  H    0.041513
    63  C    0.168314
    64  N   -0.310261
    65  H    0.036409
    66  C    0.138436
    67  N   -0.270607
    68  C    0.030767
    69  C    0.178600
    70  N   -0.313043
 Sum of Mulliken charges =  -0.00000

 Dipole moment (field-independent basis, Debye):
    X=              9.7965    Y=              5.0385    Z=              0.4744  Tot=             11.0265
 Quadrupole moment (field-independent basis, Debye-Ang):
   XX=           -166.9856   YY=           -207.1264   ZZ=           -250.0049
   XY=             -7.7154   XZ=             -4.1723   YZ=             -1.1912

 Normal termination of Gaussian 16 at Sat Jan 27 01:19:34 2018.
