 Gaussian 16, Revision A.03,
 Gaussian 16:  EM64L-G16RevA.03 25-Dec-2016

 ---------------------------------------
 #p wb97xd/cc-pvdz sp scf=(maxcycles=20)
 ---------------------------------------

 ------------------
 Base pair stacking
 ------------------
 Symbolic Z-matrix:
 Charge =  0 Multiplicity = 1

                         Standard orientation:
 ---------------------------------------------------------------------
 Center     Atomic      Atomic             Coordinates (Angstroms)
 Number     Number       Type             X           Y           Z
 ---------------------------------------------------------------------
      1          7           0       -6.492174   -1.645945    0.540740
      2          6           0       -7.894350   -1.193863    0.453931
      3          6           0       -4.309059   -1.701510    0.801947
      4          7           0       -4.697092   -2.999110    0.501302
      5          6           0       -5.996819   -2.913704    0.355967
      6          1           0       -6.649768   -3.752083    0.111609
      7          7           0       -3.013922    0.196945    1.332434
      8          6           0       -4.159399    0.886438    1.323770
      9          1           0       -4.064108    1.949186    1.542268
     10          7           0       -5.399080    0.462227    1.086824
     11          6           0       -5.404615   -0.856227    0.829796
     12          6           0       -3.052956   -1.127695    1.070018
     13          7           0       -1.910573   -1.817667    1.078206
     14          1           0       -1.892220   -2.800146    0.889464
     15          1           0       -1.034603   -1.376294    1.273164
     16          1           0       -8.446883   -1.685783    1.126924
     17          1           0       -7.941054   -0.212677    0.638887
     18          1           0       -8.249222   -1.375739   -0.463117
     19          7           0       -2.185301    3.306008   -1.817646
     20          6           0       -0.952636    2.727115   -1.634729
     21          6           0       -2.467863    4.753615   -1.744938
     22          7           0        2.442053    3.027674   -0.965776
     23          1           0        3.231292    2.421858   -0.869160
     24          1           0        2.605420    4.007715   -0.849402
     25          7           0        0.198293    3.378244   -1.360046
     26          6           0        1.219188    2.548312   -1.239110
     27          7           0        1.122477    1.184742   -1.376303
     28          1           0        1.956095    0.627870   -1.267017
     29          6           0       -0.051410    0.493354   -1.658847
     30          8           0       -0.030346   -0.739352   -1.762335
     31          6           0       -1.156853    1.371572   -1.791580
     32          7           0       -2.490888    1.104819   -2.067420
     33          6           0       -3.061099    2.279147   -2.072998
     34          1           0       -4.121456    2.453696   -2.258548
     35          1           0       -3.136063    4.928619   -1.022657
     36          1           0       -1.622659    5.246251   -1.541956
     37          1           0       -2.833563    5.067909   -2.620318
     38          1           0        6.327303   -1.623979    0.026951
     39          1           0        6.546418   -1.733910   -1.717908
     40          1           0        5.656854   -0.377242   -1.025430
     41          1           0        3.464262   -5.355082   -0.987163
     42          6           0        3.457498   -4.267253   -1.056545
     43          8           0        1.109699   -4.117509   -1.360797
     44          6           0        2.214817   -3.586072   -1.255501
     45          1           0        1.461181   -1.695394   -1.469253
     46          7           0        2.318270   -2.211615   -1.329104
     47          8           0        3.454739   -0.245585   -1.310253
     48          6           0        3.463522   -1.461540   -1.232542
     49          1           0        5.561957   -4.033246   -0.807024
     50          6           0        4.591180   -3.563163   -0.958538
     51          6           0        5.870046   -1.431763   -0.932224
     52          7           0        4.620891   -2.190340   -1.041298
     53          1           0        3.571521    4.211519    3.120562
     54          1           0        2.431569    4.192939    1.953411
     55          1           0        4.012451    4.233630    1.549419
     56          1           0        1.595676   -2.781603    1.617971
     57          1           0        3.182433   -2.346866    2.068838
     58          7           0        2.258587   -2.058983    1.814187
     59          6           0        1.926443   -0.768512    1.739860
     60          6           0        2.329011    1.572037    1.886625
     61          7           0        1.080781    1.929313    1.542098
     62          1           0       -0.699465    1.051997    1.030590
     63          6           0        0.332136    0.851517    1.316707
     64          7           0        0.662968   -0.441796    1.390618
     65          1           0        5.416275    1.975314    2.757439
     66          6           0        4.440493    1.576764    2.478269
     67          7           0        4.156887    0.300960    2.380291
     68          6           0        2.821148    0.283967    2.005811
     69          6           0        3.346243    3.878085    2.205110
     70          7           0        3.380626    2.402721    2.193323
 ---------------------------------------------------------------------

 SCF Done:  E(RwB97XD) =  -2048.73961325     A.U. after   15 cycles

 The electronic state is 1-A.
 Alpha  occ. eigenvalues --  -19.26140 -19.22406 -19.20778 -14.52750 -14.51815
 Alpha  occ. eigenvalues --  -14.48898 -14.48438 -14.48080 -14.47657 -14.47124
 Alpha  occ. eigenvalues --  -14.47024 -14.44827 -14.43438 -14.43258 -14.42200
 Alpha  occ. eigenvalues --  -14.41882 -14.41111 -14.40897 -14.40512 -14.39789
 Alpha  occ. eigenvalues --  -10.45755 -10.41441 -10.40475 -10.39205 -10.38372
 Alpha  occ. eigenvalues --  -10.38193 -10.37392 -10.36377 -10.35338 -10.35058
 Alpha  occ. eigenvalues --  -10.34830 -10.34504 -10.33777 -10.33553 -10.33339
 Alpha  occ. eigenvalues --  -10.33009 -10.32715 -10.31945 -10.31499 -10.31042
 Alpha  occ. eigenvalues --  -10.30666 -10.28263 -10.28184  -1.19708  -1.14523
 Alpha  occ. eigenvalues --   -1.13409  -1.13385  -1.11013  -1.10720  -1.09637
 Alpha  occ. eigenvalues --   -1.08813  -1.08520  -1.04610  -1.04095  -1.02772
 Alpha  occ. eigenvalues --   -1.00405  -1.00082  -1.00057  -0.98689  -0.96700
 Alpha  occ. eigenvalues --   -0.96658  -0.96022  -0.92263  -0.91405  -0.86952
 Alpha  occ. eigenvalues --   -0.85377  -0.84269  -0.83845  -0.83606  -0.82655
 Alpha  occ. eigenvalues --   -0.81996  -0.79210  -0.76367  -0.74807  -0.74045
 Alpha  occ. eigenvalues --   -0.73924  -0.73635  -0.72567  -0.70702  -0.69783
 Alpha  occ. eigenvalues --   -0.67627  -0.66827  -0.66154  -0.65977  -0.64700
 Alpha  occ. eigenvalues --   -0.63976  -0.63647  -0.62884  -0.62363  -0.62046
 Alpha  occ. eigenvalues --   -0.60033  -0.59961  -0.59923  -0.59791  -0.59296
 Alpha  occ. eigenvalues --   -0.58924  -0.58726  -0.56840  -0.56243  -0.56207
 Alpha  occ. eigenvalues --   -0.56069  -0.55129  -0.55012  -0.54659  -0.54561
 Alpha  occ. eigenvalues --   -0.53860  -0.53670  -0.53144  -0.53077  -0.52753
 Alpha  occ. eigenvalues --   -0.52603  -0.52131  -0.51452  -0.50377  -0.50345
 Alpha  occ. eigenvalues --   -0.49871  -0.49677  -0.49224  -0.49065  -0.48659
 Alpha  occ. eigenvalues --   -0.48570  -0.48466  -0.48402  -0.48042  -0.47566
 Alpha  occ. eigenvalues --   -0.46606  -0.45753  -0.44726  -0.44353  -0.43715
 Alpha  occ. eigenvalues --   -0.40784  -0.39935  -0.39664  -0.37738  -0.37404
 Alpha  occ. eigenvalues --   -0.37159  -0.36820  -0.36785  -0.35886  -0.34382
 Alpha  occ. eigenvalues --   -0.34012  -0.33560  -0.33452  -0.33153  -0.33089
 Alpha  occ. eigenvalues --   -0.32758  -0.32522  -0.32322  -0.31934  -0.30513
 Alpha  occ. eigenvalues --   -0.30024  -0.29267  -0.25710  -0.25332
 Alpha virt. eigenvalues --    0.02659   0.04652   0.07700   0.08245   0.08363
 Alpha virt. eigenvalues --    0.09113   0.09419   0.11094   0.11535   0.11757
 Alpha virt. eigenvalues --    0.12322   0.14043   0.14242   0.14738   0.14994

 Mulliken charges:
               1
     1  N   -0.311615
     2  C    0.181353
     3  C    0.033704
     4  N   -0.259032
     5  C    0.133560
     6  H    0.025412
     7  N   -0.295615
     8  C    0.141377
     9  H    0.006534
    10  N   -0.292153
    11  C    0.247189
    12  C    0.126215
    13  N   -0.056498
    14  H    0.110563
    15  H    0.088136
    16  H    0.024234
    17  H    0.033953
    18  H    0.026022
    19  N   -0.312781
    20  C    0.244200
    21  C    0.181660
    22  N   -0.112704
    23  H    0.116227
    24  H    0.114999
    25  N   -0.297545
    26  C    0.224310
    27  N   -0.125311
    28  H    0.112193
    29  C    0.153205
    30  O   -0.315536
    31  C    0.008161
    32  N   -0.221849
    33  C    0.128197
    34  H    0.029287
    35  H    0.028645
    36  H    0.027874
    37  H    0.025118
    38  H    0.063052
    39  H    0.058779
    40  H    0.076331
    41  H    0.032860
    42  C   -0.110712
    43  O   -0.263860
    44  C    0.157761
    45  H    0.134279
    46  N   -0.126087
    47  O   -0.345819
    48  C    0.352092
    49  H    0.049236
    50  C    0.164488
    51  C    0.043596
    52  N   -0.292180
    53  H    0.034857
    54  H    0.046608
    55  H    0.017423
    56  H    0.128012
    57  H    0.113719
    58  N   -0.070746
    59  C    0.086194
    60  C    0.223314
    61  N   -0.256375
    62  H    0.051188
    63  C    0.161214
    64  N   -0.301850
    65  H    0.032683
    66  C    0.131742
    67  N   -0.268098
    68  C    0.042448
    69  C    0.171418
    70  N   -0.309257
 Sum of Mulliken charges =  -0.00000

 Dipole moment (field-independent basis, Debye):
    X=              9.4007    Y=              4.7093    Z=              1.8391  Tot=             10.6739
 Quadrupole moment (field-independent basis, Debye-Ang):
   XX=           -159.5579   YY=           -209.1686   ZZ=           -251.5447
   XY=             -5.6564   XZ=              5.9880   YZ=             -7.1702

 Normal termination of Gaussian 16 at Sat Jan 27 10:05:40 2018.
