 Gaussian 16, Revision A.03,
 Gaussian 16:  EM64L-G16RevA.03 25-Dec-2016

 ---------------------------------------
 #p wb97xd/cc-pvdz sp scf=(maxcycles=20)
 ---------------------------------------

 ------------------
 Base pair stacking
 ------------------
 Symbolic Z-matrix:
 Charge =  0 Multiplicity = 1

                         Standard orientation:
 ---------------------------------------------------------------------
 Center     Atomic      Atomic             Coordinates (Angstroms)
 Number     Number       Type             X           Y           Z
 ---------------------------------------------------------------------
      1          7           0       -5.331478   -2.018396    1.387391
      2          6           0       -6.739385   -1.619315    1.578522
      3          6           0       -3.134035   -2.012043    1.295114
      4          7           0       -3.535506   -3.279097    0.897448
      5          6           0       -4.843317   -3.232204    0.968960
      6          1           0       -5.507672   -4.061930    0.725785
      7          7           0       -1.814309   -0.138248    1.852029
      8          6           0       -2.961808    0.497773    2.109571
      9          1           0       -2.857021    1.529362    2.442871
     10          7           0       -4.213421    0.052892    2.017637
     11          6           0       -4.229968   -1.223810    1.600284
     12          6           0       -1.864634   -1.421863    1.433863
     13          7           0       -0.720258   -2.058438    1.176284
     14          1           0       -0.709974   -3.009177    0.864510
     15          1           0        0.165316   -1.606953    1.286096
     16          1           0       -7.165461   -2.212138    2.262041
     17          1           0       -6.778234   -0.670594    1.890844
     18          1           0       -7.232470   -1.703860    0.712660
     19          7           0       -3.493160    3.485999   -1.277607
     20          6           0       -2.235221    2.935906   -1.332765
     21          6           0       -3.790279    4.919582   -1.084579
     22          7           0        1.216419    3.305066   -1.224702
     23          1           0        2.023396    2.719019   -1.292279
     24          1           0        1.376085    4.282958   -1.087033
     25          7           0       -1.068647    3.607184   -1.220782
     26          6           0       -0.024494    2.803094   -1.314540
     27          7           0       -0.113788    1.445217   -1.503509
     28          1           0        0.738018    0.908753   -1.563501
     29          6           0       -1.303458    0.733426   -1.621469
     30          8           0       -1.273799   -0.491894   -1.790167
     31          6           0       -2.433952    1.583792   -1.522746
     32          7           0       -3.789376    1.290917   -1.585602
     33          6           0       -4.377314    2.446807   -1.435730
     34          1           0       -5.457252    2.598413   -1.432649
     35          1           0       -4.331207    5.040552   -0.252970
     36          1           0       -2.933681    5.426937   -1.000359
     37          1           0       -4.304474    5.263741   -1.869414
     38          1           0        5.311487   -1.271044   -1.133883
     39          1           0        5.236616   -1.292225   -2.894163
     40          1           0        4.447336    0.003423   -1.994323
     41          1           0        2.398958   -5.033457   -1.846593
     42          6           0        2.357431   -3.944245   -1.857934
     43          8           0       -0.010754   -3.849942   -1.758330
     44          6           0        1.084764   -3.291554   -1.811649
     45          1           0        0.265806   -1.416064   -1.799379
     46          7           0        1.145055   -1.912704   -1.830803
     47          8           0        2.226368    0.083062   -1.900812
     48          6           0        2.273999   -1.134412   -1.888189
     49          1           0        4.468436   -3.660011   -1.951143
     50          6           0        3.476200   -3.212272   -1.914322
     51          6           0        4.695580   -1.047532   -1.992231
     52          7           0        3.462312   -1.836807   -1.930280
     53          1           0        4.879176    3.907527    3.081376
     54          1           0        3.567533    3.981715    2.113802
     55          1           0        5.061835    4.138334    1.476144
     56          1           0        2.848262   -2.930253    1.035468
     57          1           0        4.476437   -2.486021    1.284076
     58          7           0        3.517380   -2.209090    1.215310
     59          6           0        3.148206   -0.934436    1.357297
     60          6           0        3.515511    1.386166    1.733592
     61          7           0        2.220355    1.728970    1.636232
     62          1           0        0.401641    0.844906    1.302610
     63          6           0        1.470085    0.655448    1.396379
     64          7           0        1.837951   -0.622028    1.253840
     65          1           0        6.692437    1.812353    2.155129
     66          6           0        5.693881    1.409282    1.983824
     67          7           0        5.427464    0.143793    1.771118
     68          6           0        4.049697    0.115298    1.610862
     69          6           0        4.517692    3.677995    2.177697
     70          7           0        4.583447    2.217718    1.974554
 ---------------------------------------------------------------------

 SCF Done:  E(RwB97XD) =  -2048.74420983     A.U. after   15 cycles

 The electronic state is 1-A.
 Alpha  occ. eigenvalues --  -19.25772 -19.22114 -19.20585 -14.52480 -14.52336
 Alpha  occ. eigenvalues --  -14.48853 -14.48579 -14.47904 -14.47832 -14.46940
 Alpha  occ. eigenvalues --  -14.46646 -14.45346 -14.44406 -14.44313 -14.42045
 Alpha  occ. eigenvalues --  -14.41892 -14.40890 -14.40530 -14.40178 -14.39707
 Alpha  occ. eigenvalues --  -10.45462 -10.41248 -10.40241 -10.40041 -10.38224
 Alpha  occ. eigenvalues --  -10.38126 -10.37908 -10.37137 -10.35688 -10.35131
 Alpha  occ. eigenvalues --  -10.34872 -10.34379 -10.33807 -10.33333 -10.33258
 Alpha  occ. eigenvalues --  -10.32663 -10.32565 -10.32409 -10.31425 -10.31030
 Alpha  occ. eigenvalues --  -10.30174 -10.28125 -10.27764  -1.19388  -1.15096
 Alpha  occ. eigenvalues --   -1.13211  -1.13109  -1.10622  -1.10500  -1.09471
 Alpha  occ. eigenvalues --   -1.09307  -1.08557  -1.04945  -1.04393  -1.02494
 Alpha  occ. eigenvalues --   -1.00918  -0.99844  -0.99734  -0.98569  -0.96917
 Alpha  occ. eigenvalues --   -0.96642  -0.96164  -0.92080  -0.91298  -0.87560
 Alpha  occ. eigenvalues --   -0.85831  -0.84155  -0.83627  -0.83152  -0.82570
 Alpha  occ. eigenvalues --   -0.81565  -0.79028  -0.77045  -0.74833  -0.74642
 Alpha  occ. eigenvalues --   -0.73659  -0.73394  -0.72262  -0.70492  -0.70315
 Alpha  occ. eigenvalues --   -0.67396  -0.66901  -0.66609  -0.65665  -0.64551
 Alpha  occ. eigenvalues --   -0.64289  -0.63843  -0.62697  -0.62077  -0.61760
 Alpha  occ. eigenvalues --   -0.60594  -0.60176  -0.59993  -0.59642  -0.59418
 Alpha  occ. eigenvalues --   -0.59233  -0.58362  -0.56699  -0.56023  -0.55956
 Alpha  occ. eigenvalues --   -0.55539  -0.55240  -0.54907  -0.54526  -0.54272
 Alpha  occ. eigenvalues --   -0.53763  -0.53711  -0.53444  -0.53216  -0.53014
 Alpha  occ. eigenvalues --   -0.52743  -0.52451  -0.51057  -0.50236  -0.49993
 Alpha  occ. eigenvalues --   -0.49826  -0.49570  -0.49438  -0.49257  -0.48878
 Alpha  occ. eigenvalues --   -0.48384  -0.48291  -0.48134  -0.47749  -0.47349
 Alpha  occ. eigenvalues --   -0.46239  -0.45691  -0.45303  -0.44202  -0.43989
 Alpha  occ. eigenvalues --   -0.40635  -0.40462  -0.39392  -0.37739  -0.37540
 Alpha  occ. eigenvalues --   -0.37303  -0.37254  -0.36374  -0.35819  -0.34856
 Alpha  occ. eigenvalues --   -0.34416  -0.33841  -0.33267  -0.32808  -0.32785
 Alpha  occ. eigenvalues --   -0.32682  -0.32435  -0.32164  -0.31869  -0.30224
 Alpha  occ. eigenvalues --   -0.30147  -0.29767  -0.25513  -0.25112
 Alpha virt. eigenvalues --    0.02500   0.04249   0.06940   0.08451   0.08768
 Alpha virt. eigenvalues --    0.09215   0.09760   0.10661   0.11117   0.11721
 Alpha virt. eigenvalues --    0.12766   0.14270   0.14510   0.14908   0.15116

 Mulliken charges:
               1
     1  N   -0.313000
     2  C    0.182433
     3  C    0.044934
     4  N   -0.256298
     5  C    0.137023
     6  H    0.024718
     7  N   -0.301848
     8  C    0.140412
     9  H    0.008100
    10  N   -0.288030
    11  C    0.258877
    12  C    0.114013
    13  N   -0.065945
    14  H    0.112195
    15  H    0.080913
    16  H    0.021943
    17  H    0.032810
    18  H    0.027480
    19  N   -0.312042
    20  C    0.248494
    21  C    0.180828
    22  N   -0.113075
    23  H    0.113468
    24  H    0.114968
    25  N   -0.310622
    26  C    0.241946
    27  N   -0.150239
    28  H    0.122283
    29  C    0.196191
    30  O   -0.321400
    31  C   -0.014038
    32  N   -0.225631
    33  C    0.129272
    34  H    0.024487
    35  H    0.028088
    36  H    0.028824
    37  H    0.024916
    38  H    0.053679
    39  H    0.060879
    40  H    0.076220
    41  H    0.031889
    42  C   -0.116434
    43  O   -0.260066
    44  C    0.170239
    45  H    0.132842
    46  N   -0.123338
    47  O   -0.346073
    48  C    0.344552
    49  H    0.045071
    50  C    0.154570
    51  C    0.040553
    52  N   -0.277111
    53  H    0.034717
    54  H    0.041828
    55  H    0.027693
    56  H    0.116718
    57  H    0.116004
    58  N   -0.061907
    59  C    0.094208
    60  C    0.244603
    61  N   -0.270086
    62  H    0.040909
    63  C    0.169365
    64  N   -0.313383
    65  H    0.037820
    66  C    0.139975
    67  N   -0.268088
    68  C    0.029668
    69  C    0.178535
    70  N   -0.313501
 Sum of Mulliken charges =  -0.00000

 Dipole moment (field-independent basis, Debye):
    X=              9.5985    Y=              5.1657    Z=              0.5539  Tot=             10.9143
 Quadrupole moment (field-independent basis, Debye-Ang):
   XX=           -169.5004   YY=           -206.9463   ZZ=           -250.5729
   XY=             -7.5659   XZ=             -8.3355   YZ=             -1.5103

 Normal termination of Gaussian 16 at Fri Jan 26 21:58:03 2018.
