 Gaussian 16, Revision A.03,
 Gaussian 16:  EM64L-G16RevA.03 25-Dec-2016

 ---------------------------------------
 #p wb97xd/cc-pvdz sp scf=(maxcycles=20)
 ---------------------------------------

 ------------------
 Base pair stacking
 ------------------
 Symbolic Z-matrix:
 Charge =  0 Multiplicity = 1

                         Standard orientation:
 ---------------------------------------------------------------------
 Center     Atomic      Atomic             Coordinates (Angstroms)
 Number     Number       Type             X           Y           Z
 ---------------------------------------------------------------------
      1          7           0       -6.455250   -1.648658    0.583343
      2          6           0       -7.851449   -1.195963    0.429402
      3          6           0       -4.276639   -1.695614    0.881304
      4          7           0       -4.673533   -3.014000    0.710800
      5          6           0       -5.970179   -2.932937    0.538103
      6          1           0       -6.628091   -3.786485    0.372117
      7          7           0       -2.969914    0.236387    1.231719
      8          6           0       -4.108140    0.931076    1.134750
      9          1           0       -4.005188    2.009896    1.243518
     10          7           0       -5.348626    0.495280    0.924575
     11          6           0       -5.363901   -0.842617    0.805269
     12          6           0       -3.018653   -1.107941    1.107213
     13          7           0       -1.883508   -1.803147    1.203703
     14          1           0       -1.872458   -2.800010    1.117924
     15          1           0       -1.005925   -1.351487    1.364946
     16          1           0       -8.418202   -1.610748    1.141392
     17          1           0       -7.890815   -0.200529    0.511141
     18          1           0       -8.195369   -1.468798   -0.469082
     19          7           0       -2.261982    3.239709   -1.749548
     20          6           0       -1.026627    2.671467   -1.551914
     21          6           0       -2.569994    4.678397   -1.623035
     22          7           0        2.339672    2.992037   -0.760058
     23          1           0        3.135066    2.394204   -0.664248
     24          1           0        2.483432    3.968286   -0.595769
     25          7           0        0.104304    3.326677   -1.211676
     26          6           0        1.134032    2.507305   -1.093795
     27          7           0        1.063732    1.149831   -1.293423
     28          1           0        1.902282    0.600989   -1.181374
     29          6           0       -0.089248    0.454425   -1.644012
     30          8           0       -0.045038   -0.772084   -1.800423
     31          6           0       -1.203872    1.321317   -1.774328
     32          7           0       -2.523950    1.047437   -2.104937
     33          6           0       -3.112512    2.212362   -2.077893
     34          1           0       -4.169079    2.379346   -2.290167
     35          1           0       -3.263668    4.811541   -0.916000
     36          1           0       -1.739743    5.173953   -1.371280
     37          1           0       -2.912539    5.025601   -2.495335
     38          1           0        6.265590   -1.641334    0.155126
     39          1           0        6.542102   -1.670951   -1.584790
     40          1           0        5.609140   -0.359370   -0.863203
     41          1           0        3.496876   -5.365701   -1.113669
     42          6           0        3.474806   -4.276088   -1.135718
     43          8           0        1.135840   -4.147548   -1.509612
     44          6           0        2.228323   -3.605114   -1.345232
     45          1           0        1.451562   -1.718115   -1.500792
     46          7           0        2.311932   -2.227372   -1.355399
     47          8           0        3.415419   -0.247621   -1.213733
     48          6           0        3.441286   -1.465556   -1.188889
     49          1           0        5.566185   -4.022447   -0.807674
     50          6           0        4.593300   -3.560438   -0.970154
     51          6           0        5.836191   -1.413719   -0.809178
     52          7           0        4.603531   -2.185012   -0.991941
     53          1           0        3.630217    4.357853    2.692559
     54          1           0        2.506456    4.228257    1.516790
     55          1           0        4.093129    4.213294    1.134285
     56          1           0        1.604996   -2.736061    1.892336
     57          1           0        3.189655   -2.270619    2.319344
     58          7           0        2.272387   -2.002726    2.022575
     59          6           0        1.954328   -0.724090    1.810205
     60          6           0        2.378409    1.615510    1.720003
     61          7           0        1.138747    1.945886    1.321852
     62          1           0       -0.642988    1.035640    0.877461
     63          6           0        0.382475    0.857021    1.198073
     64          7           0        0.699182   -0.424472    1.410304
     65          1           0        5.457193    2.080284    2.590196
     66          6           0        4.481409    1.663357    2.339291
     67          7           0        4.186344    0.386767    2.369623
     68          6           0        2.855828    0.342542    1.979103
     69          6           0        3.414324    3.933320    1.813262
     70          7           0        3.433991    2.464431    1.954692
 ---------------------------------------------------------------------

 SCF Done:  E(RwB97XD) =  -2048.71888904     A.U. after   15 cycles

 The electronic state is 1-A.
 Alpha  occ. eigenvalues --  -19.26029 -19.22150 -19.20732 -14.52595 -14.52078
 Alpha  occ. eigenvalues --  -14.48840 -14.48559 -14.47984 -14.47889 -14.46788
 Alpha  occ. eigenvalues --  -14.46619 -14.45010 -14.43565 -14.43046 -14.42124
 Alpha  occ. eigenvalues --  -14.42050 -14.41249 -14.40826 -14.40655 -14.39941
 Alpha  occ. eigenvalues --  -10.45634 -10.41301 -10.40262 -10.39381 -10.38289
 Alpha  occ. eigenvalues --  -10.38006 -10.37595 -10.36493 -10.35237 -10.35221
 Alpha  occ. eigenvalues --  -10.34971 -10.34435 -10.33998 -10.33911 -10.33265
 Alpha  occ. eigenvalues --  -10.33147 -10.32865 -10.32074 -10.31323 -10.31003
 Alpha  occ. eigenvalues --  -10.30752 -10.28334 -10.28174  -1.19593  -1.14818
 Alpha  occ. eigenvalues --   -1.13361  -1.13171  -1.11142  -1.10666  -1.09486
 Alpha  occ. eigenvalues --   -1.08927  -1.08559  -1.04769  -1.04252  -1.02629
 Alpha  occ. eigenvalues --   -1.00801  -1.00257  -0.99878  -0.98608  -0.96803
 Alpha  occ. eigenvalues --   -0.96634  -0.96216  -0.92428  -0.91233  -0.87233
 Alpha  occ. eigenvalues --   -0.85760  -0.84200  -0.83732  -0.83711  -0.82609
 Alpha  occ. eigenvalues --   -0.82122  -0.79050  -0.76614  -0.74761  -0.74300
 Alpha  occ. eigenvalues --   -0.73837  -0.73489  -0.72724  -0.70852  -0.70045
 Alpha  occ. eigenvalues --   -0.67562  -0.66697  -0.66405  -0.66139  -0.64579
 Alpha  occ. eigenvalues --   -0.63950  -0.63880  -0.62841  -0.62537  -0.62168
 Alpha  occ. eigenvalues --   -0.60245  -0.60167  -0.59936  -0.59655  -0.59504
 Alpha  occ. eigenvalues --   -0.59196  -0.58689  -0.56993  -0.56382  -0.56168
 Alpha  occ. eigenvalues --   -0.56092  -0.55580  -0.55284  -0.54801  -0.54470
 Alpha  occ. eigenvalues --   -0.53784  -0.53659  -0.53255  -0.53051  -0.52767
 Alpha  occ. eigenvalues --   -0.52475  -0.52246  -0.51574  -0.50513  -0.50253
 Alpha  occ. eigenvalues --   -0.50011  -0.49542  -0.49351  -0.48913  -0.48787
 Alpha  occ. eigenvalues --   -0.48631  -0.48423  -0.48315  -0.48263  -0.47477
 Alpha  occ. eigenvalues --   -0.46735  -0.45884  -0.44871  -0.44134  -0.43361
 Alpha  occ. eigenvalues --   -0.40947  -0.40015  -0.39554  -0.37943  -0.37306
 Alpha  occ. eigenvalues --   -0.37005  -0.36974  -0.36885  -0.35874  -0.34520
 Alpha  occ. eigenvalues --   -0.34083  -0.33423  -0.33331  -0.33281  -0.32928
 Alpha  occ. eigenvalues --   -0.32701  -0.32434  -0.32142  -0.31869  -0.30613
 Alpha  occ. eigenvalues --   -0.30158  -0.29220  -0.25752  -0.25321
 Alpha virt. eigenvalues --    0.02872   0.04330   0.07679   0.08187   0.08349
 Alpha virt. eigenvalues --    0.09061   0.09495   0.10940   0.11470   0.11836
 Alpha virt. eigenvalues --    0.12477   0.13887   0.14200   0.14657   0.15012

 Mulliken charges:
               1
     1  N   -0.311878
     2  C    0.181418
     3  C    0.033824
     4  N   -0.259950
     5  C    0.134221
     6  H    0.025917
     7  N   -0.294461
     8  C    0.143881
     9  H    0.005701
    10  N   -0.291646
    11  C    0.249004
    12  C    0.126229
    13  N   -0.058688
    14  H    0.109001
    15  H    0.086738
    16  H    0.024324
    17  H    0.033983
    18  H    0.026617
    19  N   -0.312641
    20  C    0.237516
    21  C    0.181732
    22  N   -0.094800
    23  H    0.116623
    24  H    0.109799
    25  N   -0.286558
    26  C    0.197407
    27  N   -0.112597
    28  H    0.113406
    29  C    0.143379
    30  O   -0.314561
    31  C    0.015504
    32  N   -0.221220
    33  C    0.125628
    34  H    0.028983
    35  H    0.028090
    36  H    0.027592
    37  H    0.025048
    38  H    0.062041
    39  H    0.058342
    40  H    0.076168
    41  H    0.032394
    42  C   -0.111935
    43  O   -0.262588
    44  C    0.168370
    45  H    0.133614
    46  N   -0.131144
    47  O   -0.345988
    48  C    0.353543
    49  H    0.048281
    50  C    0.165610
    51  C    0.043570
    52  N   -0.293709
    53  H    0.037709
    54  H    0.047939
    55  H    0.018261
    56  H    0.124246
    57  H    0.114674
    58  N   -0.070449
    59  C    0.086618
    60  C    0.206541
    61  N   -0.255135
    62  H    0.055650
    63  C    0.163578
    64  N   -0.301573
    65  H    0.033376
    66  C    0.131327
    67  N   -0.266799
    68  C    0.051224
    69  C    0.162172
    70  N   -0.308491
 Sum of Mulliken charges =  -0.00000

 Dipole moment (field-independent basis, Debye):
    X=              9.0610    Y=              4.6607    Z=              2.5540  Tot=             10.5046
 Quadrupole moment (field-independent basis, Debye-Ang):
   XX=           -159.7170   YY=           -210.1461   ZZ=           -253.2322
   XY=             -5.4603   XZ=              5.6616   YZ=             -9.1523

 Normal termination of Gaussian 16 at Sat Jan 27 09:43:09 2018.
