 Gaussian 16, Revision A.03,
 Gaussian 16:  EM64L-G16RevA.03 25-Dec-2016

 ---------------------------------------
 #p wb97xd/cc-pvdz sp scf=(maxcycles=20)
 ---------------------------------------

 ------------------
 Base pair stacking
 ------------------
 Symbolic Z-matrix:
 Charge =  0 Multiplicity = 1

                         Standard orientation:
 ---------------------------------------------------------------------
 Center     Atomic      Atomic             Coordinates (Angstroms)
 Number     Number       Type             X           Y           Z
 ---------------------------------------------------------------------
      1          7           0        5.626517   -1.854909   -1.198412
      2          6           0        7.035610   -1.418727   -1.245541
      3          6           0        3.427859   -1.884863   -1.246522
      4          7           0        3.828293   -3.188734   -0.992936
      5          6           0        5.136875   -3.118506   -0.974099
      6          1           0        5.800775   -3.965667   -0.799471
      7          7           0        2.109271    0.031318   -1.637039
      8          6           0        3.258034    0.708234   -1.735549
      9          1           0        3.154217    1.773502   -1.937269
     10          7           0        4.509891    0.268895   -1.622805
     11          6           0        4.525194   -1.051357   -1.375571
     12          6           0        2.158341   -1.295532   -1.387748
     13          7           0        1.012699   -1.972968   -1.289061
     14          1           0        1.001462   -2.956520   -1.105432
     15          1           0        0.127070   -1.520709   -1.395265
     16          1           0        7.514457   -1.911774   -1.972027
     17          1           0        7.075422   -0.436798   -1.428175
     18          1           0        7.475746   -1.611026   -0.368444
     19          7           0        3.188345    3.396926    1.432538
     20          6           0        1.934737    2.835362    1.398327
     21          6           0        3.487610    4.829645    1.236433
     22          7           0       -1.500449    3.167905    1.010222
     23          1           0       -2.305221    2.575135    1.024796
     24          1           0       -1.657025    4.141465    0.841784
     25          7           0        0.775057    3.492767    1.181558
     26          6           0       -0.266348    2.680109    1.207581
     27          7           0       -0.180753    1.326870    1.428809
     28          1           0       -1.030019    0.783093    1.431320
     29          6           0        1.001833    0.629306    1.654123
     30          8           0        0.969330   -0.592964    1.843209
     31          6           0        2.129298    1.489003    1.629112
     32          7           0        3.477903    1.210916    1.804687
     33          6           0        4.065993    2.369700    1.679902
     34          1           0        5.141440    2.532033    1.759497
     35          1           0        4.091787    4.940815    0.448135
     36          1           0        2.636093    5.326772    1.075003
     37          1           0        3.934922    5.193226    2.052850
     38          1           0       -5.536189   -1.449873    0.682327
     39          1           0       -5.601105   -1.438141    2.443094
     40          1           0       -4.753979   -0.151317    1.584127
     41          1           0       -2.657423   -5.169286    1.694848
     42          6           0       -2.626225   -4.079694    1.688739
     43          8           0       -0.258506   -3.963513    1.775249
     44          6           0       -1.359522   -3.415251    1.731011
     45          1           0       -0.558201   -1.532185    1.747999
     46          7           0       -1.432904   -2.036938    1.719117
     47          8           0       -2.533354   -0.051160    1.665318
     48          6           0       -2.569444   -1.269083    1.672110
     49          1           0       -4.740320   -3.814955    1.609041
     50          6           0       -3.752147   -3.358048    1.642422
     51          6           0       -4.992298   -1.204563    1.582359
     52          7           0       -3.751310   -1.982456    1.633290
     53          1           0       -4.572048    4.129959   -2.752140
     54          1           0       -3.324416    4.090606   -1.701450
     55          1           0       -4.858026    4.145571   -1.145474
     56          1           0       -2.540256   -2.894839   -1.491357
     57          1           0       -4.158194   -2.439654   -1.783215
     58          7           0       -3.210732   -2.163664   -1.617805
     59          6           0       -2.858100   -0.877443   -1.568252
     60          6           0       -3.246040    1.468323   -1.660924
     61          7           0       -1.966225    1.809537   -1.437178
     62          1           0       -0.154937    0.909278   -1.106477
     63          6           0       -1.211689    0.722083   -1.292187
     64          7           0       -1.562999   -0.567002   -1.341477
     65          1           0       -6.398438    1.911383   -2.225076
     66          6           0       -5.404809    1.500249   -2.044504
     67          7           0       -5.127738    0.220781   -1.982332
     68          6           0       -3.762228    0.186569   -1.739561
     69          6           0       -4.262785    3.787524   -1.864963
     70          7           0       -4.312845    2.312580   -1.858880
 ---------------------------------------------------------------------

 SCF Done:  E(RwB97XD) =  -2048.74066454     A.U. after   15 cycles

 The electronic state is 1-A.
 Alpha  occ. eigenvalues --  -19.25754 -19.21974 -19.20521 -14.52433 -14.52408
 Alpha  occ. eigenvalues --  -14.48736 -14.48528 -14.48135 -14.47778 -14.46819
 Alpha  occ. eigenvalues --  -14.46310 -14.45410 -14.44294 -14.44155 -14.42046
 Alpha  occ. eigenvalues --  -14.41903 -14.40803 -14.40749 -14.40325 -14.39816
 Alpha  occ. eigenvalues --  -10.45411 -10.41024 -10.40105 -10.39965 -10.38123
 Alpha  occ. eigenvalues --  -10.37955 -10.37947 -10.37121 -10.35576 -10.35053
 Alpha  occ. eigenvalues --  -10.35026 -10.34244 -10.34048 -10.33501 -10.33205
 Alpha  occ. eigenvalues --  -10.32761 -10.32625 -10.32556 -10.31268 -10.30940
 Alpha  occ. eigenvalues --  -10.30378 -10.27992 -10.27969  -1.19360  -1.15154
 Alpha  occ. eigenvalues --   -1.13110  -1.12984  -1.10725  -1.10518  -1.09347
 Alpha  occ. eigenvalues --   -1.09294  -1.08411  -1.04915  -1.04534  -1.02419
 Alpha  occ. eigenvalues --   -1.00990  -1.00005  -0.99547  -0.98459  -0.96875
 Alpha  occ. eigenvalues --   -0.96527  -0.96378  -0.92219  -0.91145  -0.87598
 Alpha  occ. eigenvalues --   -0.85964  -0.84023  -0.83545  -0.83355  -0.82461
 Alpha  occ. eigenvalues --   -0.81768  -0.78915  -0.77045  -0.74865  -0.74502
 Alpha  occ. eigenvalues --   -0.73525  -0.73300  -0.72441  -0.70572  -0.70432
 Alpha  occ. eigenvalues --   -0.67249  -0.66903  -0.66510  -0.65848  -0.64452
 Alpha  occ. eigenvalues --   -0.64315  -0.63733  -0.62644  -0.62260  -0.61594
 Alpha  occ. eigenvalues --   -0.60623  -0.60216  -0.60048  -0.59546  -0.59462
 Alpha  occ. eigenvalues --   -0.59337  -0.58203  -0.56657  -0.56159  -0.55924
 Alpha  occ. eigenvalues --   -0.55754  -0.55399  -0.55058  -0.54613  -0.54312
 Alpha  occ. eigenvalues --   -0.53911  -0.53614  -0.53338  -0.53141  -0.52901
 Alpha  occ. eigenvalues --   -0.52697  -0.52346  -0.51245  -0.50193  -0.50090
 Alpha  occ. eigenvalues --   -0.49822  -0.49620  -0.49499  -0.49238  -0.48765
 Alpha  occ. eigenvalues --   -0.48464  -0.48248  -0.47981  -0.47649  -0.47274
 Alpha  occ. eigenvalues --   -0.46397  -0.45696  -0.45100  -0.44342  -0.43928
 Alpha  occ. eigenvalues --   -0.40755  -0.40623  -0.39364  -0.37830  -0.37643
 Alpha  occ. eigenvalues --   -0.37185  -0.37034  -0.36582  -0.35723  -0.34990
 Alpha  occ. eigenvalues --   -0.34442  -0.33337  -0.33130  -0.33010  -0.32824
 Alpha  occ. eigenvalues --   -0.32578  -0.32303  -0.32009  -0.31761  -0.30382
 Alpha  occ. eigenvalues --   -0.30064  -0.29920  -0.25529  -0.25037
 Alpha virt. eigenvalues --    0.02781   0.04194   0.07012   0.08405   0.08590
 Alpha virt. eigenvalues --    0.09313   0.09808   0.10653   0.11269   0.11594
 Alpha virt. eigenvalues --    0.12239   0.14031   0.14567   0.14901   0.14991

 Mulliken charges:
               1
     1  N   -0.313008
     2  C    0.182205
     3  C    0.041487
     4  N   -0.259013
     5  C    0.136180
     6  H    0.025158
     7  N   -0.299229
     8  C    0.143783
     9  H    0.007833
    10  N   -0.288127
    11  C    0.257847
    12  C    0.118178
    13  N   -0.063072
    14  H    0.110550
    15  H    0.081344
    16  H    0.022660
    17  H    0.032898
    18  H    0.027404
    19  N   -0.312228
    20  C    0.246393
    21  C    0.180920
    22  N   -0.094681
    23  H    0.112006
    24  H    0.112441
    25  N   -0.307593
    26  C    0.226544
    27  N   -0.147224
    28  H    0.125092
    29  C    0.186953
    30  O   -0.321703
    31  C   -0.008156
    32  N   -0.224148
    33  C    0.129443
    34  H    0.024464
    35  H    0.028054
    36  H    0.028340
    37  H    0.024609
    38  H    0.056631
    39  H    0.060146
    40  H    0.076263
    41  H    0.031591
    42  C   -0.114715
    43  O   -0.261075
    44  C    0.171628
    45  H    0.132869
    46  N   -0.124617
    47  O   -0.344733
    48  C    0.342472
    49  H    0.045742
    50  C    0.159434
    51  C    0.040557
    52  N   -0.282141
    53  H    0.036234
    54  H    0.038966
    55  H    0.027898
    56  H    0.118766
    57  H    0.115958
    58  N   -0.064029
    59  C    0.088895
    60  C    0.235778
    61  N   -0.268442
    62  H    0.043540
    63  C    0.161095
    64  N   -0.305390
    65  H    0.037499
    66  C    0.138468
    67  N   -0.268083
    68  C    0.036303
    69  C    0.175875
    70  N   -0.313985
 Sum of Mulliken charges =  -0.00000

 Dipole moment (field-independent basis, Debye):
    X=             -9.5073    Y=              4.9435    Z=             -1.5574  Tot=             10.8283
 Quadrupole moment (field-independent basis, Debye-Ang):
   XX=           -166.4431   YY=           -207.8590   ZZ=           -253.0449
   XY=              7.3404   XZ=             -5.0540   YZ=              5.1262

 Normal termination of Gaussian 16 at Fri Jan 26 18:46:57 2018.
