 Gaussian 16, Revision A.03,
 Gaussian 16:  EM64L-G16RevA.03 25-Dec-2016

 ---------------------------------------
 #p wb97xd/cc-pvdz sp scf=(maxcycles=20)
 ---------------------------------------

 ------------------
 Base pair stacking
 ------------------
 Symbolic Z-matrix:
 Charge =  0 Multiplicity = 1

                         Standard orientation:
 ---------------------------------------------------------------------
 Center     Atomic      Atomic             Coordinates (Angstroms)
 Number     Number       Type             X           Y           Z
 ---------------------------------------------------------------------
      1          7           0       -5.214228   -2.092685    1.116680
      2          6           0       -6.573158   -1.752113    1.580716
      3          6           0       -3.033843   -2.131558    0.830734
      4          7           0       -3.551654   -3.115646    0.001171
      5          6           0       -4.844535   -3.052838    0.206646
      6          1           0       -5.581850   -3.689257   -0.283545
      7          7           0       -1.547908   -0.690704    1.961613
      8          6           0       -2.626155   -0.169814    2.556280
      9          1           0       -2.424865    0.635836    3.261033
     10          7           0       -3.909688   -0.493173    2.411772
     11          6           0       -4.046596   -1.492507    1.524620
     12          6           0       -1.718966   -1.694776    1.074103
     13          7           0       -0.643865   -2.216046    0.479462
     14          1           0       -0.723375   -2.960684   -0.184179
     15          1           0        0.277203   -1.880211    0.676934
     16          1           0       -6.991404   -2.553523    2.008470
     17          1           0       -6.522163   -1.008489    2.246710
     18          1           0       -7.130593   -1.462735    0.802562
     19          7           0       -4.580162    2.425503   -0.730677
     20          6           0       -3.209234    2.372183   -0.806663
     21          6           0       -5.363978    3.578551   -0.244056
     22          7           0       -0.110446    3.869285   -0.339805
     23          1           0        0.851291    3.631116   -0.472375
     24          1           0       -0.306137    4.779074    0.027217
     25          7           0       -2.354762    3.356268   -0.452404
     26          6           0       -1.094210    3.008032   -0.640397
     27          7           0       -0.698605    1.789761   -1.137213
     28          1           0        0.287573    1.610210   -1.247625
     29          6           0       -1.560385    0.762387   -1.508286
     30          8           0       -1.100272   -0.299452   -1.945931
     31          6           0       -2.918039    1.121733   -1.312004
     32          7           0       -4.082712    0.404439   -1.548510
     33          6           0       -5.040605    1.215637   -1.189873
     34          1           0       -6.104404    0.980896   -1.239911
     35          1           0       -5.909187    3.303108    0.546956
     36          1           0       -4.741647    4.313789    0.021277
     37          1           0       -5.969980    3.901982   -0.969977
     38          1           0        5.338088    1.102240   -0.952640
     39          1           0        5.268001    1.478726   -2.672520
     40          1           0        4.075579    2.167940   -1.570493
     41          1           0        3.940374   -3.145220   -2.728034
     42          6           0        3.516499   -2.167927   -2.496827
     43          8           0        1.268292   -2.921120   -2.570093
     44          6           0        2.095491   -2.024411   -2.407509
     45          1           0        0.666546   -0.606461   -2.038899
     46          7           0        1.664451   -0.747244   -2.110381
     47          8           0        1.970242    1.453541   -1.641091
     48          6           0        2.445174    0.361599   -1.899463
     49          1           0        5.390353   -1.161094   -2.352788
     50          6           0        4.304083   -1.104871   -2.296219
     51          6           0        4.679271    1.298725   -1.785361
     52          7           0        3.804858    0.142922   -2.002733
     53          1           0        5.487032    2.266348    4.070571
     54          1           0        4.119338    2.772313    3.338779
     55          1           0        5.572532    3.116503    2.680113
     56          1           0        2.834615   -3.089733   -0.327456
     57          1           0        4.503780   -2.844007   -0.075202
     58          7           0        3.564478   -2.527312    0.061311
     59          6           0        3.298108   -1.404718    0.732128
     60          6           0        3.855623    0.552976    1.964349
     61          7           0        2.584606    0.953927    2.132190
     62          1           0        0.688500    0.347176    1.645117
     63          6           0        1.744636    0.096363    1.556060
     64          7           0        2.009465   -1.028548    0.883723
     65          1           0        7.076599    0.654958    2.223334
     66          6           0        6.042259    0.392344    1.999475
     67          7           0        5.671929   -0.669761    1.326814
     68          6           0        4.287793   -0.580057    1.297258
     69          6           0        5.047534    2.433416    3.187999
     70          7           0        4.994457    1.176916    2.415735
 ---------------------------------------------------------------------

 SCF Done:  E(RwB97XD) =  -2048.73404469     A.U. after   15 cycles

 The electronic state is 1-A.
 Alpha  occ. eigenvalues --  -19.25955 -19.22752 -19.20812 -14.52562 -14.52234
 Alpha  occ. eigenvalues --  -14.49050 -14.48068 -14.48010 -14.47800 -14.47119
 Alpha  occ. eigenvalues --  -14.46911 -14.45337 -14.44060 -14.43971 -14.42236
 Alpha  occ. eigenvalues --  -14.41700 -14.41223 -14.40559 -14.40477 -14.39884
 Alpha  occ. eigenvalues --  -10.45539 -10.41479 -10.40599 -10.39673 -10.38440
 Alpha  occ. eigenvalues --  -10.37805 -10.37546 -10.36948 -10.35528 -10.35076
 Alpha  occ. eigenvalues --  -10.34913 -10.34608 -10.33664 -10.33657 -10.33336
 Alpha  occ. eigenvalues --  -10.32749 -10.32661 -10.32475 -10.31281 -10.31133
 Alpha  occ. eigenvalues --  -10.30587 -10.28371 -10.27885  -1.19524  -1.14986
 Alpha  occ. eigenvalues --   -1.13658  -1.13421  -1.10843  -1.10626  -1.09532
 Alpha  occ. eigenvalues --   -1.09048  -1.08789  -1.04688  -1.04538  -1.02719
 Alpha  occ. eigenvalues --   -1.00820  -0.99986  -0.99896  -0.98779  -0.96856
 Alpha  occ. eigenvalues --   -0.96710  -0.96241  -0.92221  -0.91220  -0.87406
 Alpha  occ. eigenvalues --   -0.85688  -0.84375  -0.83661  -0.83357  -0.82742
 Alpha  occ. eigenvalues --   -0.81781  -0.79081  -0.76860  -0.74882  -0.74621
 Alpha  occ. eigenvalues --   -0.73881  -0.73561  -0.72344  -0.70529  -0.70243
 Alpha  occ. eigenvalues --   -0.67641  -0.66935  -0.66437  -0.65737  -0.64829
 Alpha  occ. eigenvalues --   -0.64222  -0.63808  -0.62876  -0.62166  -0.62015
 Alpha  occ. eigenvalues --   -0.60601  -0.60251  -0.60058  -0.59535  -0.59170
 Alpha  occ. eigenvalues --   -0.59111  -0.58610  -0.56856  -0.56158  -0.56079
 Alpha  occ. eigenvalues --   -0.55847  -0.55149  -0.54869  -0.54554  -0.54056
 Alpha  occ. eigenvalues --   -0.53907  -0.53737  -0.53527  -0.53393  -0.53233
 Alpha  occ. eigenvalues --   -0.52596  -0.52528  -0.51277  -0.50464  -0.50260
 Alpha  occ. eigenvalues --   -0.49868  -0.49707  -0.49553  -0.49303  -0.49175
 Alpha  occ. eigenvalues --   -0.48696  -0.48594  -0.48243  -0.47925  -0.47586
 Alpha  occ. eigenvalues --   -0.46441  -0.45965  -0.45491  -0.44367  -0.43125
 Alpha  occ. eigenvalues --   -0.40577  -0.40496  -0.39551  -0.37830  -0.37532
 Alpha  occ. eigenvalues --   -0.37502  -0.37348  -0.36570  -0.36189  -0.34491
 Alpha  occ. eigenvalues --   -0.34295  -0.33948  -0.33822  -0.32987  -0.32947
 Alpha  occ. eigenvalues --   -0.32883  -0.32733  -0.32566  -0.32094  -0.30366
 Alpha  occ. eigenvalues --   -0.29973  -0.28706  -0.25815  -0.25101
 Alpha virt. eigenvalues --    0.02701   0.04277   0.07115   0.08238   0.08529
 Alpha virt. eigenvalues --    0.09149   0.09523   0.10618   0.11526   0.11927
 Alpha virt. eigenvalues --    0.13138   0.14073   0.14439   0.14802   0.15150

 Mulliken charges:
               1
     1  N   -0.310857
     2  C    0.180794
     3  C    0.057536
     4  N   -0.254158
     5  C    0.141184
     6  H    0.024546
     7  N   -0.298617
     8  C    0.132641
     9  H    0.009295
    10  N   -0.290619
    11  C    0.245233
    12  C    0.095591
    13  N   -0.051131
    14  H    0.116672
    15  H    0.083467
    16  H    0.024284
    17  H    0.031073
    18  H    0.022025
    19  N   -0.310378
    20  C    0.257231
    21  C    0.181120
    22  N   -0.123657
    23  H    0.117286
    24  H    0.118806
    25  N   -0.311938
    26  C    0.249504
    27  N   -0.150943
    28  H    0.120187
    29  C    0.196945
    30  O   -0.321927
    31  C   -0.015858
    32  N   -0.223879
    33  C    0.125900
    34  H    0.021046
    35  H    0.029049
    36  H    0.029969
    37  H    0.024475
    38  H    0.063228
    39  H    0.059690
    40  H    0.073718
    41  H    0.023814
    42  C   -0.121027
    43  O   -0.269296
    44  C    0.155250
    45  H    0.130178
    46  N   -0.106600
    47  O   -0.345565
    48  C    0.338289
    49  H    0.045603
    50  C    0.172604
    51  C    0.039602
    52  N   -0.274903
    53  H    0.033710
    54  H    0.042209
    55  H    0.027010
    56  H    0.124385
    57  H    0.112584
    58  N   -0.038801
    59  C    0.081973
    60  C    0.244717
    61  N   -0.273612
    62  H    0.034479
    63  C    0.170154
    64  N   -0.311078
    65  H    0.036345
    66  C    0.131694
    67  N   -0.264064
    68  C    0.019459
    69  C    0.181025
    70  N   -0.308674
 Sum of Mulliken charges =  -0.00000

 Dipole moment (field-independent basis, Debye):
    X=              7.3112    Y=              7.0923    Z=              1.9259  Tot=             10.3665
 Quadrupole moment (field-independent basis, Debye-Ang):
   XX=           -152.7828   YY=           -221.9928   ZZ=           -252.7861
   XY=              3.2171   XZ=             -4.8123   YZ=              0.7127

 Normal termination of Gaussian 16 at Mon Jan 22 11:11:46 2018.
