 Gaussian 16, Revision A.03,
 Gaussian 16:  EM64L-G16RevA.03 25-Dec-2016

 ---------------------------------------
 #p wb97xd/cc-pvdz sp scf=(maxcycles=20)
 ---------------------------------------

 ------------------
 Base pair stacking
 ------------------
 Symbolic Z-matrix:
 Charge =  0 Multiplicity = 1

                         Standard orientation:
 ---------------------------------------------------------------------
 Center     Atomic      Atomic             Coordinates (Angstroms)
 Number     Number       Type             X           Y           Z
 ---------------------------------------------------------------------
      1          7           0       -5.832151   -1.689256    0.928778
      2          6           0       -7.202477   -1.199081    1.173616
      3          6           0       -3.641604   -1.874850    0.862773
      4          7           0       -4.145953   -3.006693    0.238832
      5          6           0       -5.445492   -2.849577    0.303569
      6          1           0       -6.175869   -3.555782   -0.092369
      7          7           0       -2.172185   -0.264255    1.762625
      8          6           0       -3.263469    0.421417    2.118295
      9          1           0       -3.074177    1.362278    2.633277
     10          7           0       -4.547462    0.120779    1.934203
     11          6           0       -4.668995   -1.053488    1.293293
     12          6           0       -2.327937   -1.441948    1.119307
     13          7           0       -1.239785   -2.127865    0.763452
     14          1           0       -1.307752   -3.004288    0.285464
     15          1           0       -0.320057   -1.789253    0.962397
     16          1           0       -7.699606   -1.861320    1.734397
     17          1           0       -7.163149   -0.322030    1.651475
     18          1           0       -7.677122   -1.080552    0.301452
     19          7           0       -3.942026    2.383258   -1.241056
     20          6           0       -2.573016    2.275090   -1.194489
     21          6           0       -4.714552    3.595630   -0.903369
     22          7           0        0.536130    3.688525   -0.564250
     23          1           0        1.494704    3.406872   -0.596740
     24          1           0        0.348896    4.628617   -0.278106
     25          7           0       -1.710499    3.250334   -0.835308
     26          6           0       -0.454422    2.844207   -0.889594
     27          7           0       -0.070284    1.580142   -1.266538
     28          1           0        0.913220    1.357622   -1.278853
     29          6           0       -0.940505    0.560809   -1.640105
     30          8           0       -0.490506   -0.545451   -1.963275
     31          6           0       -2.293474    0.982112   -1.586735
     32          7           0       -3.463443    0.292417   -1.873786
     33          6           0       -4.412970    1.161218   -1.655155
     34          1           0       -5.477786    0.962157   -1.780896
     35          1           0       -5.335170    3.397122   -0.145580
     36          1           0       -4.086192    4.324887   -0.635764
     37          1           0       -5.243508    3.888263   -1.699216
     38          1           0        5.895442    0.689529   -0.514710
     39          1           0        5.985459    0.944881   -2.255785
     40          1           0        4.735081    1.753511   -1.310250
     41          1           0        4.473554   -3.620209   -2.111884
     42          6           0        4.073361   -2.614232   -1.985046
     43          8           0        1.809452   -3.288896   -2.201048
     44          6           0        2.657171   -2.413406   -2.028808
     45          1           0        1.263395   -0.922032   -1.882154
     46          7           0        2.256945   -1.103558   -1.857402
     47          8           0        2.614825    1.112548   -1.513884
     48          6           0        3.063299   -0.011493   -1.655550
     49          1           0        5.969330   -1.668162   -1.748256
     50          6           0        4.885465   -1.568800   -1.789726
     51          6           0        5.317488    0.849927   -1.412659
     52          7           0        4.416430   -0.286017   -1.625852
     53          1           0        4.826253    2.844050    3.773260
     54          1           0        3.554085    3.213789    2.820902
     55          1           0        5.073488    3.339385    2.238023
     56          1           0        2.236744   -3.294788    0.506064
     57          1           0        3.891191   -3.058445    0.848182
     58          7           0        2.963693   -2.684036    0.820191
     59          6           0        2.708669   -1.426064    1.185748
     60          6           0        3.275806    0.744642    1.978295
     61          7           0        2.020547    1.220517    1.930454
     62          1           0        0.138611    0.586660    1.423342
     63          6           0        1.182292    0.283087    1.492880
     64          7           0        1.435766   -0.977438    1.126257
     65          1           0        6.465521    0.785636    2.503882
     66          6           0        5.439432    0.516112    2.251980
     67          7           0        5.064560   -0.660021    1.811698
     68          6           0        3.694900   -0.528724    1.634134
     69          6           0        4.470414    2.814872    2.839169
     70          7           0        4.408137    1.414770    2.376724
 ---------------------------------------------------------------------

 SCF Done:  E(RwB97XD) =  -2048.75036375     A.U. after   15 cycles

 The electronic state is 1-A.
 Alpha  occ. eigenvalues --  -19.25884 -19.22246 -19.20653 -14.52352 -14.52242
 Alpha  occ. eigenvalues --  -14.48737 -14.48548 -14.47803 -14.47601 -14.46962
 Alpha  occ. eigenvalues --  -14.46665 -14.45334 -14.43948 -14.43917 -14.42033
 Alpha  occ. eigenvalues --  -14.42026 -14.41076 -14.40891 -14.40816 -14.40101
 Alpha  occ. eigenvalues --  -10.45456 -10.41248 -10.40333 -10.39548 -10.38259
 Alpha  occ. eigenvalues --  -10.37836 -10.37684 -10.36912 -10.35424 -10.35222
 Alpha  occ. eigenvalues --  -10.35039 -10.34321 -10.33791 -10.33788 -10.33343
 Alpha  occ. eigenvalues --  -10.33114 -10.32963 -10.32402 -10.31081 -10.30968
 Alpha  occ. eigenvalues --  -10.30804 -10.28243 -10.28094  -1.19432  -1.14972
 Alpha  occ. eigenvalues --   -1.13271  -1.13217  -1.11086  -1.10576  -1.09274
 Alpha  occ. eigenvalues --   -1.08910  -1.08578  -1.04845  -1.04439  -1.02518
 Alpha  occ. eigenvalues --   -1.00758  -1.00243  -0.99748  -0.98558  -0.96764
 Alpha  occ. eigenvalues --   -0.96569  -0.96420  -0.92512  -0.91021  -0.87379
 Alpha  occ. eigenvalues --   -0.85711  -0.84088  -0.83753  -0.83549  -0.82453
 Alpha  occ. eigenvalues --   -0.82160  -0.78831  -0.76736  -0.74641  -0.74482
 Alpha  occ. eigenvalues --   -0.73659  -0.73371  -0.72705  -0.70870  -0.70102
 Alpha  occ. eigenvalues --   -0.67389  -0.66510  -0.66473  -0.66105  -0.64475
 Alpha  occ. eigenvalues --   -0.63959  -0.63723  -0.62674  -0.62530  -0.61763
 Alpha  occ. eigenvalues --   -0.60500  -0.60253  -0.60128  -0.59408  -0.59188
 Alpha  occ. eigenvalues --   -0.58974  -0.58369  -0.56643  -0.56405  -0.56218
 Alpha  occ. eigenvalues --   -0.55985  -0.55322  -0.55023  -0.54422  -0.54299
 Alpha  occ. eigenvalues --   -0.53682  -0.53619  -0.53327  -0.53211  -0.52964
 Alpha  occ. eigenvalues --   -0.52530  -0.52405  -0.51654  -0.50620  -0.50193
 Alpha  occ. eigenvalues --   -0.50100  -0.49634  -0.49483  -0.48996  -0.48901
 Alpha  occ. eigenvalues --   -0.48705  -0.48397  -0.48200  -0.47588  -0.47413
 Alpha  occ. eigenvalues --   -0.46787  -0.45751  -0.44719  -0.44571  -0.43740
 Alpha  occ. eigenvalues --   -0.40922  -0.40464  -0.39445  -0.37527  -0.37297
 Alpha  occ. eigenvalues --   -0.37283  -0.37220  -0.36962  -0.36167  -0.34507
 Alpha  occ. eigenvalues --   -0.34115  -0.33965  -0.33421  -0.33259  -0.33199
 Alpha  occ. eigenvalues --   -0.32664  -0.32435  -0.32223  -0.31909  -0.30737
 Alpha  occ. eigenvalues --   -0.30297  -0.29384  -0.25612  -0.25278
 Alpha virt. eigenvalues --    0.02947   0.04312   0.07358   0.08041   0.08431
 Alpha virt. eigenvalues --    0.09222   0.09779   0.10688   0.11255   0.12031
 Alpha virt. eigenvalues --    0.12995   0.14397   0.14510   0.14664   0.15232

 Mulliken charges:
               1
     1  N   -0.312642
     2  C    0.180211
     3  C    0.062523
     4  N   -0.256810
     5  C    0.134875
     6  H    0.025412
     7  N   -0.294260
     8  C    0.134470
     9  H    0.010739
    10  N   -0.291832
    11  C    0.239977
    12  C    0.103438
    13  N   -0.049216
    14  H    0.112686
    15  H    0.086091
    16  H    0.025777
    17  H    0.031610
    18  H    0.023346
    19  N   -0.307748
    20  C    0.254424
    21  C    0.180603
    22  N   -0.118240
    23  H    0.114283
    24  H    0.116984
    25  N   -0.309692
    26  C    0.241211
    27  N   -0.148065
    28  H    0.123022
    29  C    0.186618
    30  O   -0.323899
    31  C   -0.012777
    32  N   -0.224115
    33  C    0.130949
    34  H    0.020148
    35  H    0.030715
    36  H    0.028412
    37  H    0.023037
    38  H    0.059906
    39  H    0.059623
    40  H    0.071511
    41  H    0.024840
    42  C   -0.114397
    43  O   -0.271515
    44  C    0.155087
    45  H    0.132885
    46  N   -0.111607
    47  O   -0.341573
    48  C    0.334548
    49  H    0.047829
    50  C    0.176598
    51  C    0.038146
    52  N   -0.278746
    53  H    0.034068
    54  H    0.040718
    55  H    0.025605
    56  H    0.128121
    57  H    0.116197
    58  N   -0.051655
    59  C    0.082676
    60  C    0.249083
    61  N   -0.273276
    62  H    0.038296
    63  C    0.159602
    64  N   -0.301661
    65  H    0.036045
    66  C    0.127208
    67  N   -0.262707
    68  C    0.024164
    69  C    0.180702
    70  N   -0.308588
 Sum of Mulliken charges =  -0.00000

 Dipole moment (field-independent basis, Debye):
    X=              7.3394    Y=              6.6306    Z=              2.3921  Tot=             10.1762
 Quadrupole moment (field-independent basis, Debye-Ang):
   XX=           -149.3165   YY=           -222.4519   ZZ=           -254.8845
   XY=              4.5913   XZ=              2.3589   YZ=             -4.0452

 Normal termination of Gaussian 16 at Mon Jan 22 01:00:16 2018.
