 Gaussian 16, Revision A.03,
 Gaussian 16:  EM64L-G16RevA.03 25-Dec-2016

 ---------------------------------------
 #p wb97xd/cc-pvdz sp scf=(maxcycles=20)
 ---------------------------------------

 ------------------
 Base pair stacking
 ------------------
 Symbolic Z-matrix:
 Charge =  0 Multiplicity = 1

                         Standard orientation:
 ---------------------------------------------------------------------
 Center     Atomic      Atomic             Coordinates (Angstroms)
 Number     Number       Type             X           Y           Z
 ---------------------------------------------------------------------
      1          7           0       -6.401069   -1.448556    0.597182
      2          6           0       -7.765228   -0.893023    0.689207
      3          6           0       -4.219316   -1.705060    0.704260
      4          7           0       -4.723729   -2.886499    0.180344
      5          6           0       -6.017971   -2.684673    0.136805
      6          1           0       -6.746778   -3.410348   -0.225380
      7          7           0       -2.752706   -0.044645    1.513603
      8          6           0       -3.838567    0.709653    1.712415
      9          1           0       -3.648333    1.698091    2.128404
     10          7           0       -5.118125    0.427593    1.475623
     11          6           0       -5.241276   -0.809228    0.966168
     12          6           0       -2.909956   -1.284148    0.999786
     13          7           0       -1.827239   -2.038605    0.800611
     14          1           0       -1.896496   -2.962355    0.422300
     15          1           0       -0.910455   -1.706389    1.022621
     16          1           0       -8.322188   -1.470501    1.286275
     17          1           0       -7.724492    0.032169    1.065343
     18          1           0       -8.177252   -0.862929   -0.221465
     19          7           0       -3.308870    2.354276   -1.509806
     20          6           0       -1.949297    2.215817   -1.366815
     21          6           0       -4.071138    3.594973   -1.264217
     22          7           0        1.145533    3.576640   -0.571866
     23          1           0        2.096616    3.271767   -0.530086
     24          1           0        0.963566    4.529906   -0.329182
     25          7           0       -1.088258    3.182157   -0.981017
     26          6           0        0.157849    2.745241   -0.936787
     27          7           0        0.534042    1.460641   -1.246298
     28          1           0        1.510150    1.214952   -1.184600
     29          6           0       -0.334844    0.449946   -1.645560
     30          8           0        0.107447   -0.676706   -1.901997
     31          6           0       -1.677147    0.904259   -1.697777
     32          7           0       -2.842400    0.232821   -2.041646
     33          6           0       -3.781975    1.130380   -1.915874
     34          1           0       -4.840662    0.952109   -2.107360
     35          1           0       -4.746147    3.436478   -0.544468
     36          1           0       -3.443762    4.317923   -0.977838
     37          1           0       -4.537750    3.873049   -2.103120
     38          1           0        6.411030    0.456755   -0.062457
     39          1           0        6.624382    0.651487   -1.800616
     40          1           0        5.334335    1.520289   -0.968549
     41          1           0        4.990114   -3.869695   -1.614659
     42          6           0        4.608125   -2.850971   -1.547411
     43          8           0        2.347362   -3.479490   -1.895320
     44          6           0        3.203670   -2.618738   -1.693781
     45          1           0        1.841732   -1.091173   -1.689814
     46          7           0        2.826424   -1.294905   -1.591770
     47          8           0        3.216880    0.922512   -1.295427
     48          6           0        3.645009   -0.215805   -1.370404
     49          1           0        6.507424   -1.942000   -1.212443
     50          6           0        5.431700   -1.818814   -1.330688
     51          6           0        5.899038    0.600448   -1.002285
     52          7           0        4.985625   -0.520680   -1.240006
     53          1           0        4.210675    3.069016    3.634610
     54          1           0        3.017975    3.362660    2.560672
     55          1           0        4.575762    3.374672    2.073609
     56          1           0        1.612785   -3.329537    0.918914
     57          1           0        3.249065   -3.103836    1.345238
     58          7           0        2.339958   -2.708063    1.210681
     59          6           0        2.108694   -1.409099    1.411677
     60          6           0        2.703424    0.821460    1.988389
     61          7           0        1.472558    1.325318    1.799927
     62          1           0       -0.394617    0.692474    1.239771
     63          6           0        0.630275    0.368431    1.415447
     64          7           0        0.859981   -0.933132    1.213572
     65          1           0        5.851392    0.829350    2.724893
     66          6           0        4.834588    0.562691    2.435157
     67          7           0        4.445657   -0.645156    2.107251
     68          6           0        3.096329   -0.495112    1.821683
     69          6           0        3.915662    2.941748    2.687627
     70          7           0        3.831548    1.499770    2.384928
 ---------------------------------------------------------------------

 SCF Done:  E(RwB97XD) =  -2048.75097138     A.U. after   15 cycles

 The electronic state is 1-A.
 Alpha  occ. eigenvalues --  -19.25951 -19.22130 -19.20636 -14.52453 -14.51886
 Alpha  occ. eigenvalues --  -14.48945 -14.48651 -14.47898 -14.47056 -14.46876
 Alpha  occ. eigenvalues --  -14.46628 -14.44954 -14.43450 -14.43410 -14.42297
 Alpha  occ. eigenvalues --  -14.42008 -14.41530 -14.41147 -14.40762 -14.40338
 Alpha  occ. eigenvalues --  -10.45560 -10.41161 -10.40272 -10.39067 -10.38199
 Alpha  occ. eigenvalues --  -10.37857 -10.37471 -10.36501 -10.35541 -10.35339
 Alpha  occ. eigenvalues --  -10.35061 -10.34272 -10.34201 -10.33679 -10.33502
 Alpha  occ. eigenvalues --  -10.33280 -10.33222 -10.31889 -10.31211 -10.31101
 Alpha  occ. eigenvalues --  -10.30643 -10.28642 -10.28034  -1.19512  -1.14577
 Alpha  occ. eigenvalues --   -1.13194  -1.13167  -1.11502  -1.10510  -1.09345
 Alpha  occ. eigenvalues --   -1.08531  -1.08398  -1.05139  -1.03951  -1.02569
 Alpha  occ. eigenvalues --   -1.00566  -1.00373  -0.99708  -0.98509  -0.97108
 Alpha  occ. eigenvalues --   -0.96473  -0.95975  -0.92797  -0.91086  -0.87012
 Alpha  occ. eigenvalues --   -0.85438  -0.84111  -0.84001  -0.83714  -0.82485
 Alpha  occ. eigenvalues --   -0.82345  -0.78906  -0.76314  -0.74551  -0.74081
 Alpha  occ. eigenvalues --   -0.73629  -0.73415  -0.73036  -0.71210  -0.69692
 Alpha  occ. eigenvalues --   -0.67337  -0.66596  -0.66440  -0.66030  -0.64485
 Alpha  occ. eigenvalues --   -0.63730  -0.63533  -0.62836  -0.62661  -0.61690
 Alpha  occ. eigenvalues --   -0.60397  -0.60250  -0.59813  -0.59521  -0.58883
 Alpha  occ. eigenvalues --   -0.58876  -0.58325  -0.56745  -0.56663  -0.56406
 Alpha  occ. eigenvalues --   -0.56021  -0.55543  -0.54815  -0.54570  -0.54396
 Alpha  occ. eigenvalues --   -0.53663  -0.53611  -0.52984  -0.52883  -0.52796
 Alpha  occ. eigenvalues --   -0.52536  -0.52151  -0.51937  -0.50956  -0.50370
 Alpha  occ. eigenvalues --   -0.50126  -0.49508  -0.49443  -0.49033  -0.48836
 Alpha  occ. eigenvalues --   -0.48804  -0.48290  -0.48007  -0.47561  -0.47407
 Alpha  occ. eigenvalues --   -0.47112  -0.45525  -0.45095  -0.44132  -0.43815
 Alpha  occ. eigenvalues --   -0.41330  -0.40116  -0.39506  -0.37341  -0.37265
 Alpha  occ. eigenvalues --   -0.37230  -0.36989  -0.36795  -0.35985  -0.34220
 Alpha  occ. eigenvalues --   -0.34022  -0.33699  -0.33554  -0.33395  -0.33296
 Alpha  occ. eigenvalues --   -0.32665  -0.32305  -0.32038  -0.31817  -0.31106
 Alpha  occ. eigenvalues --   -0.30562  -0.29168  -0.25862  -0.25367
 Alpha virt. eigenvalues --    0.02900   0.04827   0.07437   0.07890   0.08788
 Alpha virt. eigenvalues --    0.09176   0.09751   0.10800   0.10946   0.11395
 Alpha virt. eigenvalues --    0.12956   0.14051   0.14531   0.14656   0.15145

 Mulliken charges:
               1
     1  N   -0.311991
     2  C    0.180379
     3  C    0.052399
     4  N   -0.257560
     5  C    0.132805
     6  H    0.026626
     7  N   -0.287709
     8  C    0.131795
     9  H    0.011726
    10  N   -0.291638
    11  C    0.233376
    12  C    0.110729
    13  N   -0.048302
    14  H    0.110297
    15  H    0.090146
    16  H    0.026474
    17  H    0.032972
    18  H    0.024726
    19  N   -0.307288
    20  C    0.252895
    21  C    0.179779
    22  N   -0.110787
    23  H    0.111843
    24  H    0.115429
    25  N   -0.305987
    26  C    0.234825
    27  N   -0.138179
    28  H    0.117421
    29  C    0.165359
    30  O   -0.322445
    31  C    0.002704
    32  N   -0.224744
    33  C    0.128166
    34  H    0.023744
    35  H    0.031583
    36  H    0.027417
    37  H    0.022833
    38  H    0.057117
    39  H    0.061298
    40  H    0.070459
    41  H    0.028520
    42  C   -0.118072
    43  O   -0.272684
    44  C    0.164615
    45  H    0.135693
    46  N   -0.124676
    47  O   -0.346463
    48  C    0.350119
    49  H    0.047909
    50  C    0.184175
    51  C    0.041060
    52  N   -0.284495
    53  H    0.034191
    54  H    0.038855
    55  H    0.022978
    56  H    0.126868
    57  H    0.115626
    58  N   -0.054850
    59  C    0.101886
    60  C    0.246996
    61  N   -0.273749
    62  H    0.037672
    63  C    0.166832
    64  N   -0.301202
    65  H    0.033197
    66  C    0.124203
    67  N   -0.259294
    68  C    0.004377
    69  C    0.178409
    70  N   -0.309387
 Sum of Mulliken charges =  -0.00000

 Dipole moment (field-independent basis, Debye):
    X=              7.1717    Y=              6.2741    Z=              2.6255  Tot=              9.8839
 Quadrupole moment (field-independent basis, Debye-Ang):
   XX=           -145.8956   YY=           -223.5079   ZZ=           -254.6499
   XY=              6.8815   XZ=              8.5797   YZ=             -6.2104

 Normal termination of Gaussian 16 at Mon Jan 22 15:18:19 2018.
