 Gaussian 16, Revision A.03,
 Gaussian 16:  EM64L-G16RevA.03 25-Dec-2016

 ---------------------------------------
 #p wb97xd/cc-pvdz sp scf=(maxcycles=20)
 ---------------------------------------

 ------------------
 Base pair stacking
 ------------------
 Symbolic Z-matrix:
 Charge =  0 Multiplicity = 1

                         Standard orientation:
 ---------------------------------------------------------------------
 Center     Atomic      Atomic             Coordinates (Angstroms)
 Number     Number       Type             X           Y           Z
 ---------------------------------------------------------------------
      1          7           0       -6.703651   -1.423047    0.297886
      2          6           0       -8.072710   -0.914188    0.509432
      3          6           0       -4.520593   -1.683866    0.357240
      4          7           0       -5.012499   -2.709308   -0.437260
      5          6           0       -6.308022   -2.511131   -0.441219
      6          1           0       -7.028893   -3.134000   -0.971622
      7          7           0       -3.072031   -0.255327    1.550497
      8          6           0       -4.165010    0.422842    1.915292
      9          1           0       -3.985097    1.284634    2.556550
     10          7           0       -5.440875    0.197336    1.608324
     11          6           0       -5.551174   -0.882920    0.817553
     12          6           0       -3.216379   -1.337351    0.754600
     13          7           0       -2.126536   -2.015606    0.389393
     14          1           0       -2.186214   -2.822791   -0.198914
     15          1           0       -1.213752   -1.740164    0.691216
     16          1           0       -8.628552   -1.620988    0.947221
     17          1           0       -8.041546   -0.105251    1.095756
     18          1           0       -8.479608   -0.670244   -0.370864
     19          7           0       -2.925845    2.644749   -1.458130
     20          6           0       -1.571138    2.464291   -1.315849
     21          6           0       -3.648288    3.910247   -1.218734
     22          7           0        1.566088    3.731269   -0.532065
     23          1           0        2.507138    3.396787   -0.489609
     24          1           0        1.414589    4.691149   -0.294595
     25          7           0       -0.679548    3.405146   -0.936502
     26          6           0        0.552211    2.929399   -0.891168
     27          7           0        0.887301    1.631848   -1.193806
     28          1           0        1.855256    1.355841   -1.131807
     29          6           0       -0.013531    0.646836   -1.586377
     30          8           0        0.392682   -0.494638   -1.836909
     31          6           0       -1.340900    1.142953   -1.639683
     32          7           0       -2.527194    0.506690   -1.978447
     33          6           0       -3.437834    1.434116   -1.856726
     34          1           0       -4.501869    1.288262   -2.046018
     35          1           0       -4.327036    3.777176   -0.497349
     36          1           0       -2.998060    4.614648   -0.937148
     37          1           0       -4.106978    4.198172   -2.058675
     38          1           0        6.731232    0.449772   -0.010803
     39          1           0        6.948382    0.627882   -1.750275
     40          1           0        5.687448    1.541607   -0.921719
     41          1           0        5.172583   -3.838381   -1.536879
     42          6           0        4.822994   -2.807757   -1.474984
     43          8           0        2.543096   -3.366595   -1.816820
     44          6           0        3.426386   -2.532163   -1.621111
     45          1           0        2.113303   -0.962405   -1.624301
     46          7           0        3.091203   -1.196534   -1.526200
     47          8           0        3.551779    1.009085   -1.242859
     48          6           0        3.943695   -0.142565   -1.311851
     49          1           0        6.750462   -1.957276   -1.147284
     50          6           0        5.678997   -1.800885   -1.265027
     51          6           0        6.222812    0.604238   -0.950867
     52          7           0        5.274197   -0.488831   -1.181210
     53          1           0        3.853767    2.306262    4.406016
     54          1           0        2.665080    2.840146    3.424131
     55          1           0        4.225558    2.977923    2.965857
     56          1           0        1.322903   -3.275640    0.222396
     57          1           0        2.954801   -3.147838    0.702682
     58          7           0        2.043382   -2.737151    0.659543
     59          6           0        1.800599   -1.525187    1.162897
     60          6           0        2.374151    0.507014    2.259677
     61          7           0        1.140429    1.033477    2.187533
     62          1           0       -0.718320    0.540773    1.478387
     63          6           0        0.308071    0.190675    1.579441
     64          7           0        0.549313   -1.023616    1.074602
     65          1           0        5.517576    0.358849    3.000684
     66          6           0        4.504650    0.162604    2.647968
     67          7           0        4.127276   -0.934525    2.038390
     68          6           0        2.778499   -0.729210    1.786631
     69          6           0        3.565337    2.406798    3.453805
     70          7           0        3.494485    1.078219    2.815165
 ---------------------------------------------------------------------

 SCF Done:  E(RwB97XD) =  -2048.74062690     A.U. after   15 cycles

 The electronic state is 1-A.
 Alpha  occ. eigenvalues --  -19.26164 -19.22474 -19.20877 -14.52724 -14.51321
 Alpha  occ. eigenvalues --  -14.48872 -14.48861 -14.48239 -14.47201 -14.47030
 Alpha  occ. eigenvalues --  -14.45815 -14.44427 -14.42775 -14.42600 -14.42258
 Alpha  occ. eigenvalues --  -14.41949 -14.41484 -14.40942 -14.40934 -14.40125
 Alpha  occ. eigenvalues --  -10.45805 -10.41495 -10.40653 -10.38468 -10.38161
 Alpha  occ. eigenvalues --  -10.38155 -10.36935 -10.35830 -10.35577 -10.35333
 Alpha  occ. eigenvalues --  -10.34529 -10.34319 -10.34148 -10.33417 -10.33378
 Alpha  occ. eigenvalues --  -10.33117 -10.33102 -10.31357 -10.31262 -10.31115
 Alpha  occ. eigenvalues --  -10.30878 -10.28551 -10.28292  -1.19741  -1.13995
 Alpha  occ. eigenvalues --   -1.13727  -1.13446  -1.11434  -1.10737  -1.09619
 Alpha  occ. eigenvalues --   -1.08830  -1.07582  -1.04952  -1.03171  -1.02905
 Alpha  occ. eigenvalues --   -1.00346  -1.00057  -0.99744  -0.98752  -0.96996
 Alpha  occ. eigenvalues --   -0.96693  -0.95203  -0.92583  -0.91367  -0.86376
 Alpha  occ. eigenvalues --   -0.84817  -0.84252  -0.84011  -0.83973  -0.82582
 Alpha  occ. eigenvalues --   -0.82378  -0.79219  -0.75620  -0.74797  -0.73929
 Alpha  occ. eigenvalues --   -0.73738  -0.73364  -0.72889  -0.71058  -0.68990
 Alpha  occ. eigenvalues --   -0.67630  -0.66908  -0.66280  -0.65356  -0.64786
 Alpha  occ. eigenvalues --   -0.63990  -0.62897  -0.62858  -0.62576  -0.61973
 Alpha  occ. eigenvalues --   -0.60178  -0.60056  -0.59834  -0.59111  -0.58694
 Alpha  occ. eigenvalues --   -0.58611  -0.58245  -0.56706  -0.56520  -0.56486
 Alpha  occ. eigenvalues --   -0.56267  -0.55296  -0.54747  -0.54606  -0.54145
 Alpha  occ. eigenvalues --   -0.53874  -0.53640  -0.53134  -0.52788  -0.52636
 Alpha  occ. eigenvalues --   -0.52335  -0.51802  -0.51548  -0.50836  -0.50420
 Alpha  occ. eigenvalues --   -0.50215  -0.49809  -0.49429  -0.49193  -0.49143
 Alpha  occ. eigenvalues --   -0.48482  -0.48385  -0.47884  -0.47742  -0.47460
 Alpha  occ. eigenvalues --   -0.46976  -0.45481  -0.45071  -0.44388  -0.43004
 Alpha  occ. eigenvalues --   -0.41177  -0.39737  -0.39471  -0.37477  -0.37404
 Alpha  occ. eigenvalues --   -0.37190  -0.36462  -0.36241  -0.36054  -0.34519
 Alpha  occ. eigenvalues --   -0.33801  -0.33644  -0.33509  -0.33260  -0.32892
 Alpha  occ. eigenvalues --   -0.32721  -0.32493  -0.32385  -0.31994  -0.30987
 Alpha  occ. eigenvalues --   -0.30353  -0.28247  -0.25824  -0.25561
 Alpha virt. eigenvalues --    0.02540   0.05359   0.07804   0.07995   0.08707
 Alpha virt. eigenvalues --    0.09139   0.09545   0.10987   0.11297   0.12075
 Alpha virt. eigenvalues --    0.12868   0.13915   0.14574   0.14605   0.15992

 Mulliken charges:
               1
     1  N   -0.311055
     2  C    0.180634
     3  C    0.041095
     4  N   -0.255844
     5  C    0.130630
     6  H    0.026080
     7  N   -0.290210
     8  C    0.130141
     9  H    0.011997
    10  N   -0.290882
    11  C    0.232577
    12  C    0.113984
    13  N   -0.045916
    14  H    0.110236
    15  H    0.091317
    16  H    0.026284
    17  H    0.034289
    18  H    0.024002
    19  N   -0.311085
    20  C    0.252430
    21  C    0.180475
    22  N   -0.123071
    23  H    0.113000
    24  H    0.117964
    25  N   -0.308514
    26  C    0.247642
    27  N   -0.139588
    28  H    0.116015
    29  C    0.173907
    30  O   -0.323387
    31  C   -0.003067
    32  N   -0.224693
    33  C    0.130955
    34  H    0.028045
    35  H    0.032361
    36  H    0.028334
    37  H    0.024009
    38  H    0.058845
    39  H    0.061363
    40  H    0.072728
    41  H    0.030294
    42  C   -0.108904
    43  O   -0.284799
    44  C    0.140327
    45  H    0.139062
    46  N   -0.118432
    47  O   -0.350490
    48  C    0.356981
    49  H    0.049429
    50  C    0.191005
    51  C    0.041183
    52  N   -0.286949
    53  H    0.031788
    54  H    0.041995
    55  H    0.021133
    56  H    0.129743
    57  H    0.114020
    58  N   -0.031984
    59  C    0.094661
    60  C    0.245064
    61  N   -0.273607
    62  H    0.036762
    63  C    0.163816
    64  N   -0.300848
    65  H    0.028505
    66  C    0.127383
    67  N   -0.263997
    68  C    0.004350
    69  C    0.180072
    70  N   -0.311586
 Sum of Mulliken charges =  -0.00000

 Dipole moment (field-independent basis, Debye):
    X=              7.6010    Y=              6.2756    Z=              2.0097  Tot=             10.0597
 Quadrupole moment (field-independent basis, Debye-Ang):
   XX=           -143.6371   YY=           -223.4207   ZZ=           -251.3568
   XY=              5.4379   XZ=             12.4599   YZ=             -1.8270

 Normal termination of Gaussian 16 at Mon Jan 22 11:47:43 2018.
