 Gaussian 16, Revision A.03,
 Gaussian 16:  EM64L-G16RevA.03 25-Dec-2016

 ---------------------------------------
 #p wb97xd/cc-pvdz sp scf=(maxcycles=20)
 ---------------------------------------

 ------------------
 Base pair stacking
 ------------------
 Symbolic Z-matrix:
 Charge =  0 Multiplicity = 1

                         Standard orientation:
 ---------------------------------------------------------------------
 Center     Atomic      Atomic             Coordinates (Angstroms)
 Number     Number       Type             X           Y           Z
 ---------------------------------------------------------------------
      1          7           0        5.196019   -1.492694   -1.429279
      2          6           0        6.569658   -0.954611   -1.469054
      3          6           0        3.004153   -1.674149   -1.418552
      4          7           0        3.500971   -2.965513   -1.317184
      5          6           0        4.801604   -2.804508   -1.327702
      6          1           0        5.527303   -3.615784   -1.263374
      7          7           0        1.545415    0.173458   -1.564742
      8          6           0        2.641318    0.937157   -1.622528
      9          1           0        2.458296    2.007555   -1.706191
     10          7           0        3.923347    0.578813   -1.592615
     11          6           0        4.037062   -0.755599   -1.488494
     12          6           0        1.693325   -1.165298   -1.460235
     13          7           0        0.600568   -1.929309   -1.402424
     14          1           0        0.662694   -2.924968   -1.324768
     15          1           0       -0.316935   -1.532728   -1.434743
     16          1           0        7.054819   -1.333478   -2.257259
     17          1           0        6.536171    0.041365   -1.546681
     18          1           0        7.052690   -1.205820   -0.630253
     19          7           0        4.623171    1.906709    1.112457
     20          6           0        3.251132    1.833943    1.096055
     21          6           0        5.418982    3.100588    0.763104
     22          7           0        0.166193    3.329905    0.542009
     23          1           0       -0.798361    3.072777    0.594659
     24          1           0        0.371162    4.266348    0.256036
     25          7           0        2.406255    2.832838    0.760713
     26          6           0        1.141657    2.458792    0.841246
     27          7           0        0.733560    1.203081    1.220923
     28          1           0       -0.254847    1.005811    1.254245
     29          6           0        1.585317    0.159853    1.570280
     30          8           0        1.114270   -0.936138    1.898393
     31          6           0        2.947169    0.546574    1.488560
     32          7           0        4.105075   -0.174380    1.746204
     33          6           0        5.071575    0.670880    1.510338
     34          1           0        6.133443    0.443919    1.611318
     35          1           0        6.017248    2.890102   -0.009284
     36          1           0        4.803821    3.847087    0.512954
     37          1           0        5.972887    3.375454    1.548248
     38          1           0       -5.268391    0.469709    0.598759
     39          1           0       -5.313040    0.718344    2.342556
     40          1           0       -4.063587    1.499471    1.372971
     41          1           0       -3.922836   -3.883236    2.144054
     42          6           0       -3.499774   -2.887223    2.012871
     43          8           0       -1.249755   -3.620848    2.175065
     44          6           0       -2.078262   -2.723018    2.025843
     45          1           0       -0.650130   -1.267171    1.854829
     46          7           0       -1.648335   -1.423018    1.851500
     47          8           0       -1.956547    0.803275    1.526180
     48          6           0       -2.430574   -0.309600    1.672719
     49          1           0       -5.375533   -1.891617    1.822889
     50          6           0       -4.288827   -1.820303    1.840541
     51          6           0       -4.666660    0.610616    1.484268
     52          7           0       -3.790646   -0.549161    1.672061
     53          1           0       -5.434242    3.879410   -2.047106
     54          1           0       -4.150313    3.819323   -1.042098
     55          1           0       -5.663417    3.706280   -0.440579
     56          1           0       -2.886494   -3.075919   -1.602265
     57          1           0       -4.540954   -2.709214   -1.798221
     58          7           0       -3.609157   -2.385209   -1.630925
     59          6           0       -3.343170   -1.089388   -1.454039
     60          6           0       -3.892607    1.219522   -1.284418
     61          7           0       -2.631794    1.625812   -1.061499
     62          1           0       -0.752943    0.827335   -0.879960
     63          6           0       -1.800462    0.585742   -1.054872
     64          7           0       -2.064916   -0.712847   -1.231835
     65          1           0       -7.085856    1.493282   -1.709210
     66          6           0       -6.060804    1.137413   -1.601606
     67          7           0       -5.695434   -0.118505   -1.684407
     68          6           0       -4.322999   -0.080477   -1.485133
     69          6           0       -5.071137    3.468894   -1.210663
     70          7           0       -5.020643    2.001629   -1.360928
 ---------------------------------------------------------------------

 SCF Done:  E(RwB97XD) =  -2048.74124136     A.U. after   15 cycles

 The electronic state is 1-A.
 Alpha  occ. eigenvalues --  -19.25229 -19.21526 -19.20415 -14.52855 -14.51944
 Alpha  occ. eigenvalues --  -14.48605 -14.48596 -14.48494 -14.47332 -14.46547
 Alpha  occ. eigenvalues --  -14.46351 -14.45892 -14.44679 -14.44562 -14.42757
 Alpha  occ. eigenvalues --  -14.41830 -14.41234 -14.40998 -14.40876 -14.40458
 Alpha  occ. eigenvalues --  -10.44906 -10.41007 -10.40402 -10.39639 -10.38371
 Alpha  occ. eigenvalues --  -10.38019 -10.37563 -10.37343 -10.36304 -10.35688
 Alpha  occ. eigenvalues --  -10.34336 -10.34295 -10.34123 -10.33965 -10.33350
 Alpha  occ. eigenvalues --  -10.33306 -10.33042 -10.32957 -10.31052 -10.30687
 Alpha  occ. eigenvalues --  -10.30661 -10.28521 -10.27917  -1.19047  -1.15687
 Alpha  occ. eigenvalues --   -1.12984  -1.12556  -1.11209  -1.10364  -1.09703
 Alpha  occ. eigenvalues --   -1.08871  -1.08336  -1.05256  -1.05181  -1.01983
 Alpha  occ. eigenvalues --   -1.01415  -1.00684  -0.99460  -0.98365  -0.97292
 Alpha  occ. eigenvalues --   -0.96889  -0.96406  -0.92936  -0.90610  -0.88064
 Alpha  occ. eigenvalues --   -0.86309  -0.83987  -0.83878  -0.83141  -0.82368
 Alpha  occ. eigenvalues --   -0.82282  -0.78426  -0.77454  -0.75302  -0.74420
 Alpha  occ. eigenvalues --   -0.73392  -0.73026  -0.72883  -0.71163  -0.70809
 Alpha  occ. eigenvalues --   -0.67247  -0.67138  -0.66448  -0.66093  -0.64682
 Alpha  occ. eigenvalues --   -0.64180  -0.63553  -0.62893  -0.62513  -0.61571
 Alpha  occ. eigenvalues --   -0.61356  -0.60874  -0.60675  -0.59828  -0.59168
 Alpha  occ. eigenvalues --   -0.58737  -0.58084  -0.57081  -0.56659  -0.55983
 Alpha  occ. eigenvalues --   -0.55904  -0.55685  -0.55553  -0.54508  -0.54108
 Alpha  occ. eigenvalues --   -0.53893  -0.53668  -0.53324  -0.53129  -0.52913
 Alpha  occ. eigenvalues --   -0.52741  -0.52078  -0.51865  -0.50724  -0.50336
 Alpha  occ. eigenvalues --   -0.50152  -0.49889  -0.49221  -0.49079  -0.48989
 Alpha  occ. eigenvalues --   -0.48562  -0.48342  -0.48084  -0.47502  -0.47085
 Alpha  occ. eigenvalues --   -0.47005  -0.45766  -0.44752  -0.44598  -0.42938
 Alpha  occ. eigenvalues --   -0.41221  -0.40985  -0.39048  -0.38096  -0.38032
 Alpha  occ. eigenvalues --   -0.37560  -0.37150  -0.36899  -0.35786  -0.35134
 Alpha  occ. eigenvalues --   -0.34715  -0.34104  -0.33549  -0.33253  -0.32803
 Alpha  occ. eigenvalues --   -0.32474  -0.32093  -0.31897  -0.31719  -0.30849
 Alpha  occ. eigenvalues --   -0.30542  -0.29756  -0.25912  -0.25285
 Alpha virt. eigenvalues --    0.03305   0.03765   0.06350   0.07860   0.09147
 Alpha virt. eigenvalues --    0.09508   0.09762   0.09982   0.10961   0.12499
 Alpha virt. eigenvalues --    0.12625   0.14049   0.14210   0.14400   0.14809

 Mulliken charges:
               1
     1  N   -0.310223
     2  C    0.177732
     3  C    0.065276
     4  N   -0.261348
     5  C    0.141947
     6  H    0.026868
     7  N   -0.285745
     8  C    0.129015
     9  H    0.016933
    10  N   -0.282882
    11  C    0.248580
    12  C    0.082674
    13  N   -0.053664
    14  H    0.109775
    15  H    0.082017
    16  H    0.026831
    17  H    0.028350
    18  H    0.026929
    19  N   -0.287326
    20  C    0.236815
    21  C    0.183333
    22  N   -0.111362
    23  H    0.115779
    24  H    0.115528
    25  N   -0.297029
    26  C    0.224923
    27  N   -0.124041
    28  H    0.111704
    29  C    0.176510
    30  O   -0.322207
    31  C   -0.011775
    32  N   -0.220227
    33  C    0.112016
    34  H    0.016572
    35  H    0.024630
    36  H    0.028302
    37  H    0.021863
    38  H    0.055341
    39  H    0.054458
    40  H    0.074796
    41  H    0.026352
    42  C   -0.106273
    43  O   -0.265823
    44  C    0.173381
    45  H    0.130195
    46  N   -0.120017
    47  O   -0.335820
    48  C    0.334839
    49  H    0.045818
    50  C    0.162787
    51  C    0.054882
    52  N   -0.279025
    53  H    0.036497
    54  H    0.037843
    55  H    0.028586
    56  H    0.121959
    57  H    0.118118
    58  N   -0.058581
    59  C    0.095933
    60  C    0.199074
    61  N   -0.260094
    62  H    0.020124
    63  C    0.174089
    64  N   -0.305173
    65  H    0.037140
    66  C    0.119138
    67  N   -0.249822
    68  C    0.024479
    69  C    0.182472
    70  N   -0.290749
 Sum of Mulliken charges =  -0.00000

 Dipole moment (field-independent basis, Debye):
    X=             -7.1650    Y=              6.7763    Z=             -2.8356  Tot=             10.2614
 Quadrupole moment (field-independent basis, Debye-Ang):
   XX=           -152.8663   YY=           -225.5107   ZZ=           -256.6565
   XY=             -1.7870   XZ=             -7.6216   YZ=             13.1588

 Normal termination of Gaussian 16 at Mon Jan 22 06:30:02 2018.
