 Gaussian 16, Revision A.03,
 Gaussian 16:  EM64L-G16RevA.03 25-Dec-2016

 ---------------------------------------
 #p wb97xd/cc-pvdz sp scf=(maxcycles=20)
 ---------------------------------------

 ------------------
 Base pair stacking
 ------------------
 Symbolic Z-matrix:
 Charge =  0 Multiplicity = 1

                         Standard orientation:
 ---------------------------------------------------------------------
 Center     Atomic      Atomic             Coordinates (Angstroms)
 Number     Number       Type             X           Y           Z
 ---------------------------------------------------------------------
      1          7           0       -6.128990   -1.582784    0.738967
      2          6           0       -7.498236   -1.067994    0.934310
      3          6           0       -3.940713   -1.803555    0.744232
      4          7           0       -4.443474   -2.935551    0.119301
      5          6           0       -5.741707   -2.757242    0.141150
      6          1           0       -6.470626   -3.457121   -0.268479
      7          7           0       -2.474399   -0.204350    1.669118
      8          6           0       -3.565104    0.503014    1.981505
      9          1           0       -3.376879    1.447565    2.490084
     10          7           0       -4.847384    0.220104    1.761001
     11          6           0       -4.967713   -0.960542    1.131696
     12          6           0       -2.628913   -1.387923    1.036364
     13          7           0       -1.541357   -2.095476    0.723707
     14          1           0       -1.608444   -2.977019    0.255088
     15          1           0       -0.622955   -1.768694    0.947109
     16          1           0       -8.023224   -1.714829    1.487627
     17          1           0       -7.459742   -0.185379    1.401902
     18          1           0       -7.943449   -0.953660    0.046210
     19          7           0       -3.611808    2.425599   -1.366459
     20          6           0       -2.246843    2.296628   -1.275500
     21          6           0       -4.374912    3.654325   -1.068783
     22          7           0        0.863427    3.669423   -0.566017
     23          1           0        1.817895    3.372374   -0.564738
     24          1           0        0.682499    4.616066   -0.297968
     25          7           0       -1.380391    3.262930   -0.901912
     26          6           0       -0.129924    2.836483   -0.911490
     27          7           0        0.245412    1.561641   -1.259936
     28          1           0        1.225124    1.323598   -1.238488
     29          6           0       -0.628984    0.551187   -1.647581
     30          8           0       -0.186975   -0.566192   -1.942245
     31          6           0       -1.976017    0.994323   -1.642176
     32          7           0       -3.147391    0.319286   -1.956991
     33          6           0       -4.089188    1.205694   -1.779464
     34          1           0       -5.152624    1.021675   -1.936063
     35          1           0       -5.021996    3.475663   -0.328396
     36          1           0       -3.743569    4.377142   -0.790935
     37          1           0       -4.873993    3.944586   -1.884557
     38          1           0        6.169660    0.587734   -0.309621
     39          1           0        6.318106    0.818444   -2.050135
     40          1           0        5.051971    1.659078   -1.154810
     41          1           0        4.729226   -3.720064   -1.895347
     42          6           0        4.341488   -2.706347   -1.794041
     43          8           0        2.074871   -3.348265   -2.072435
     44          6           0        2.930776   -2.483946   -1.884875
     45          1           0        1.557254   -0.969099   -1.801225
     46          7           0        2.546514   -1.165828   -1.742932
     47          8           0        2.929068    1.048775   -1.416758
     48          6           0        3.363615   -0.083943   -1.529844
     49          1           0        6.244107   -1.787037   -1.509924
     50          6           0        5.163811   -1.671256   -1.586712
     51          6           0        5.622688    0.745209   -1.227273
     52          7           0        4.710569   -0.379219   -1.454102
     53          1           0        4.506915    2.820395    3.858747
     54          1           0        3.271222    3.197307    2.862213
     55          1           0        4.809900    3.291301    2.325819
     56          1           0        1.922305   -3.320068    0.590706
     57          1           0        3.568857   -3.105142    0.981592
     58          7           0        2.648818   -2.716656    0.919666
     59          6           0        2.402774   -1.450081    1.260878
     60          6           0        2.979712    0.721820    2.042991
     61          7           0        1.734373    1.216631    1.949614
     62          1           0       -0.140759    0.605649    1.391772
     63          6           0        0.895225    0.286710    1.497965
     64          7           0        1.139728   -0.982394    1.155672
     65          1           0        6.151700    0.719824    2.668002
     66          6           0        5.129790    0.463082    2.387446
     67          7           0        4.749976   -0.712794    1.950704
     68          6           0        3.388820   -0.562410    1.728508
     69          6           0        4.180001    2.784358    2.914383
     70          7           0        4.109681    1.379380    2.468197
 ---------------------------------------------------------------------

 SCF Done:  E(RwB97XD) =  -2048.75076176     A.U. after   15 cycles

 The electronic state is 1-A.
 Alpha  occ. eigenvalues --  -19.25951 -19.22211 -19.20670 -14.52438 -14.52049
 Alpha  occ. eigenvalues --  -14.48716 -14.48704 -14.47853 -14.47192 -14.46966
 Alpha  occ. eigenvalues --  -14.46681 -14.45139 -14.43715 -14.43632 -14.42094
 Alpha  occ. eigenvalues --  -14.42035 -14.41254 -14.40912 -14.40839 -14.40159
 Alpha  occ. eigenvalues --  -10.45551 -10.41239 -10.40376 -10.39264 -10.38257
 Alpha  occ. eigenvalues --  -10.37862 -10.37646 -10.36698 -10.35314 -10.35225
 Alpha  occ. eigenvalues --  -10.35203 -10.34309 -10.33946 -10.33693 -10.33300
 Alpha  occ. eigenvalues --  -10.33246 -10.33059 -10.32134 -10.31124 -10.31059
 Alpha  occ. eigenvalues --  -10.30752 -10.28379 -10.28076  -1.19507  -1.14761
 Alpha  occ. eigenvalues --   -1.13285  -1.13225  -1.11246  -1.10563  -1.09347
 Alpha  occ. eigenvalues --   -1.08618  -1.08581  -1.04929  -1.04158  -1.02578
 Alpha  occ. eigenvalues --   -1.00540  -1.00336  -0.99760  -0.98556  -0.96877
 Alpha  occ. eigenvalues --   -0.96542  -0.96173  -0.92590  -0.91104  -0.87173
 Alpha  occ. eigenvalues --   -0.85545  -0.84067  -0.83880  -0.83655  -0.82422
 Alpha  occ. eigenvalues --   -0.82274  -0.78913  -0.76492  -0.74613  -0.74256
 Alpha  occ. eigenvalues --   -0.73669  -0.73430  -0.72813  -0.70980  -0.69859
 Alpha  occ. eigenvalues --   -0.67390  -0.66599  -0.66219  -0.66193  -0.64508
 Alpha  occ. eigenvalues --   -0.63796  -0.63652  -0.62689  -0.62626  -0.61753
 Alpha  occ. eigenvalues --   -0.60369  -0.60235  -0.59939  -0.59502  -0.58997
 Alpha  occ. eigenvalues --   -0.58924  -0.58379  -0.56643  -0.56487  -0.56325
 Alpha  occ. eigenvalues --   -0.56033  -0.55363  -0.54888  -0.54555  -0.54401
 Alpha  occ. eigenvalues --   -0.53681  -0.53618  -0.53085  -0.53045  -0.52953
 Alpha  occ. eigenvalues --   -0.52496  -0.52315  -0.51752  -0.50741  -0.50194
 Alpha  occ. eigenvalues --   -0.50174  -0.49535  -0.49494  -0.49125  -0.48910
 Alpha  occ. eigenvalues --   -0.48739  -0.48368  -0.48037  -0.47575  -0.47440
 Alpha  occ. eigenvalues --   -0.46898  -0.45630  -0.44879  -0.44177  -0.43936
 Alpha  occ. eigenvalues --   -0.41066  -0.40255  -0.39505  -0.37282  -0.37276
 Alpha  occ. eigenvalues --   -0.37187  -0.37080  -0.37000  -0.36113  -0.34390
 Alpha  occ. eigenvalues --   -0.34056  -0.33806  -0.33444  -0.33340  -0.33291
 Alpha  occ. eigenvalues --   -0.32670  -0.32398  -0.32111  -0.31884  -0.30866
 Alpha  occ. eigenvalues --   -0.30372  -0.29369  -0.25620  -0.25379
 Alpha virt. eigenvalues --    0.02815   0.04636   0.07328   0.08066   0.08627
 Alpha virt. eigenvalues --    0.09143   0.09767   0.10828   0.11128   0.11754
 Alpha virt. eigenvalues --    0.13013   0.14309   0.14562   0.14628   0.15359

 Mulliken charges:
               1
     1  N   -0.312354
     2  C    0.180332
     3  C    0.057822
     4  N   -0.256993
     5  C    0.132903
     6  H    0.025748
     7  N   -0.291638
     8  C    0.133976
     9  H    0.011042
    10  N   -0.292074
    11  C    0.235822
    12  C    0.107302
    13  N   -0.048211
    14  H    0.111870
    15  H    0.089461
    16  H    0.026086
    17  H    0.032398
    18  H    0.023712
    19  N   -0.308490
    20  C    0.253954
    21  C    0.180130
    22  N   -0.116130
    23  H    0.113084
    24  H    0.116513
    25  N   -0.309071
    26  C    0.240024
    27  N   -0.145538
    28  H    0.121068
    29  C    0.179723
    30  O   -0.323814
    31  C   -0.007234
    32  N   -0.224880
    33  C    0.131558
    34  H    0.022056
    35  H    0.031502
    36  H    0.028048
    37  H    0.023008
    38  H    0.058577
    39  H    0.060108
    40  H    0.070938
    41  H    0.026946
    42  C   -0.118760
    43  O   -0.274069
    44  C    0.157311
    45  H    0.134871
    46  N   -0.116218
    47  O   -0.343564
    48  C    0.341257
    49  H    0.048208
    50  C    0.183624
    51  C    0.040195
    52  N   -0.281656
    53  H    0.033825
    54  H    0.040615
    55  H    0.024291
    56  H    0.127963
    57  H    0.115742
    58  N   -0.053191
    59  C    0.092317
    60  C    0.251807
    61  N   -0.273790
    62  H    0.038120
    63  C    0.160566
    64  N   -0.301146
    65  H    0.034603
    66  C    0.126671
    67  N   -0.261709
    68  C    0.012358
    69  C    0.179954
    70  N   -0.309478
 Sum of Mulliken charges =  -0.00000

 Dipole moment (field-independent basis, Debye):
    X=              7.3404    Y=              6.4869    Z=              2.4588  Tot=             10.0998
 Quadrupole moment (field-independent basis, Debye-Ang):
   XX=           -147.6306   YY=           -222.8787   ZZ=           -254.4662
   XY=              5.4009   XZ=              5.8663   YZ=             -4.2468

 Normal termination of Gaussian 16 at Mon Jan 22 01:35:50 2018.
