 Gaussian 16, Revision A.03,
 Gaussian 16:  EM64L-G16RevA.03 25-Dec-2016

 ---------------------------------------
 #p wb97xd/cc-pvdz sp scf=(maxcycles=20)
 ---------------------------------------

 ------------------
 Base pair stacking
 ------------------
 Symbolic Z-matrix:
 Charge =  0 Multiplicity = 1

                         Standard orientation:
 ---------------------------------------------------------------------
 Center     Atomic      Atomic             Coordinates (Angstroms)
 Number     Number       Type             X           Y           Z
 ---------------------------------------------------------------------
      1          7           0       -7.200079   -1.231059    0.102700
      2          6           0       -8.555370   -0.647608    0.130452
      3          6           0       -5.033515   -1.537437    0.325094
      4          7           0       -5.532442   -2.697161   -0.250080
      5          6           0       -6.817747   -2.466166   -0.361044
      6          1           0       -7.540182   -3.168531   -0.777834
      7          7           0       -3.580045    0.074418    1.248301
      8          6           0       -4.659344    0.848389    1.402136
      9          1           0       -4.472046    1.824188    1.848222
     10          7           0       -5.929303    0.599121    1.089130
     11          6           0       -6.049603   -0.624616    0.548367
     12          6           0       -3.734197   -1.151164    0.701235
     13          7           0       -2.658016   -1.925221    0.546851
     14          1           0       -2.725296   -2.839731    0.146408
     15          1           0       -1.748316   -1.617559    0.826036
     16          1           0       -9.156693   -1.224149    0.683799
     17          1           0       -8.516394    0.269026    0.527184
     18          1           0       -8.915238   -0.590877   -0.800819
     19          7           0       -2.372464    2.403642   -1.675753
     20          6           0       -1.028306    2.228619   -1.450709
     21          6           0       -3.099919    3.682442   -1.548538
     22          7           0        2.069165    3.531543   -0.573304
     23          1           0        3.004787    3.197942   -0.461185
     24          1           0        1.910296    4.503843   -0.399778
     25          7           0       -0.153298    3.187737   -1.078550
     26          6           0        1.071704    2.712616   -0.939826
     27          7           0        1.415593    1.399047   -1.149079
     28          1           0        2.377347    1.124876   -1.019379
     29          6           0        0.531822    0.395096   -1.532368
     30          8           0        0.944767   -0.759815   -1.694801
     31          6           0       -0.788112    0.890313   -1.685356
     32          7           0       -1.957950    0.238278   -2.050375
     33          6           0       -2.868827    1.173225   -2.031204
     34          1           0       -3.921957    1.019114   -2.268768
     35          1           0       -3.817029    3.592658   -0.858255
     36          1           0       -2.461953    4.400418   -1.273267
     37          1           0       -3.511416    3.922577   -2.427072
     38          1           0        7.181370    0.273862    0.412361
     39          1           0        7.492325    0.351052   -1.320266
     40          1           0        6.193722    1.313797   -0.614506
     41          1           0        5.683804   -4.091509   -0.946840
     42          6           0        5.336918   -3.058243   -0.963058
     43          8           0        3.075643   -3.630694   -1.394393
     44          6           0        3.951634   -2.788367   -1.199653
     45          1           0        2.649012   -1.218446   -1.363496
     46          7           0        3.618991   -1.448745   -1.199673
     47          8           0        4.075500    0.768494   -1.018959
     48          6           0        4.464391   -0.386103   -1.000598
     49          1           0        7.248574   -2.194649   -0.581500
     50          6           0        6.185812   -2.042885   -0.765465
     51          6           0        6.724863    0.375099   -0.561005
     52          7           0        5.784120   -0.727274   -0.778949
     53          1           0        3.317578    2.992861    3.814973
     54          1           0        2.193021    3.333327    2.682913
     55          1           0        3.775463    3.320549    2.283182
     56          1           0        0.742394   -3.293415    0.828868
     57          1           0        2.356696   -3.111968    1.349665
     58          7           0        1.464954   -2.693804    1.173139
     59          6           0        1.249970   -1.394211    1.387640
     60          6           0        1.857970    0.811188    2.042060
     61          7           0        0.650304    1.345499    1.796139
     62          1           0       -1.195502    0.764744    1.120608
     63          6           0       -0.188985    0.414943    1.346053
     64          7           0        0.024442   -0.887198    1.130532
     65          1           0        4.959427    0.735722    2.951696
     66          6           0        3.955040    0.497097    2.600700
     67          7           0        3.559907   -0.695353    2.227042
     68          6           0        2.232038   -0.510216    1.870360
     69          6           0        3.073259    2.890433    2.850705
     70          7           0        2.976115    1.456775    2.514274
 ---------------------------------------------------------------------

 SCF Done:  E(RwB97XD) =  -2048.74765330     A.U. after   15 cycles

 The electronic state is 1-A.
 Alpha  occ. eigenvalues --  -19.26041 -19.22284 -19.20796 -14.52554 -14.51118
 Alpha  occ. eigenvalues --  -14.49325 -14.48791 -14.48007 -14.47240 -14.47055
 Alpha  occ. eigenvalues --  -14.45973 -14.44124 -14.42474 -14.42457 -14.42398
 Alpha  occ. eigenvalues --  -14.42213 -14.42001 -14.41434 -14.40859 -14.40640
 Alpha  occ. eigenvalues --  -10.45649 -10.41467 -10.40349 -10.38427 -10.38038
 Alpha  occ. eigenvalues --  -10.37868 -10.36703 -10.35864 -10.35614 -10.35588
 Alpha  occ. eigenvalues --  -10.34649 -10.34469 -10.34050 -10.33943 -10.33601
 Alpha  occ. eigenvalues --  -10.33329 -10.33043 -10.31408 -10.31151 -10.31038
 Alpha  occ. eigenvalues --  -10.30769 -10.29115 -10.28268  -1.19575  -1.13782
 Alpha  occ. eigenvalues --   -1.13386  -1.13283  -1.11923  -1.10686  -1.09458
 Alpha  occ. eigenvalues --   -1.08832  -1.07362  -1.05476  -1.02931  -1.02649
 Alpha  occ. eigenvalues --   -1.00866  -1.00145  -0.99516  -0.98676  -0.97468
 Alpha  occ. eigenvalues --   -0.96626  -0.94982  -0.93099  -0.91142  -0.86187
 Alpha  occ. eigenvalues --   -0.84661  -0.84465  -0.84211  -0.83895  -0.82816
 Alpha  occ. eigenvalues --   -0.82514  -0.78994  -0.75408  -0.74746  -0.73921
 Alpha  occ. eigenvalues --   -0.73511  -0.73389  -0.73113  -0.71568  -0.68783
 Alpha  occ. eigenvalues --   -0.67622  -0.66769  -0.66690  -0.65113  -0.64601
 Alpha  occ. eigenvalues --   -0.63893  -0.63196  -0.62842  -0.62562  -0.62006
 Alpha  occ. eigenvalues --   -0.60602  -0.59800  -0.59642  -0.58979  -0.58863
 Alpha  occ. eigenvalues --   -0.58556  -0.58060  -0.56908  -0.56889  -0.56667
 Alpha  occ. eigenvalues --   -0.56149  -0.55757  -0.54568  -0.54532  -0.53982
 Alpha  occ. eigenvalues --   -0.53777  -0.53552  -0.53056  -0.52707  -0.52502
 Alpha  occ. eigenvalues --   -0.52193  -0.52039  -0.51380  -0.51271  -0.50645
 Alpha  occ. eigenvalues --   -0.50297  -0.49609  -0.49521  -0.49013  -0.48767
 Alpha  occ. eigenvalues --   -0.48475  -0.48383  -0.47855  -0.47651  -0.47468
 Alpha  occ. eigenvalues --   -0.47419  -0.45575  -0.45146  -0.44161  -0.43023
 Alpha  occ. eigenvalues --   -0.41694  -0.39619  -0.39230  -0.37697  -0.37478
 Alpha  occ. eigenvalues --   -0.37382  -0.36365  -0.36032  -0.35756  -0.34790
 Alpha  occ. eigenvalues --   -0.34051  -0.34016  -0.33452  -0.32940  -0.32904
 Alpha  occ. eigenvalues --   -0.32523  -0.32225  -0.32109  -0.31965  -0.31503
 Alpha  occ. eigenvalues --   -0.30812  -0.28223  -0.26261  -0.25597
 Alpha virt. eigenvalues --    0.02998   0.05452   0.07453   0.08318   0.08500
 Alpha virt. eigenvalues --    0.09274   0.09560   0.10415   0.11225   0.12242
 Alpha virt. eigenvalues --    0.12659   0.13550   0.14471   0.14584   0.15777

 Mulliken charges:
               1
     1  N   -0.310806
     2  C    0.180742
     3  C    0.031240
     4  N   -0.257215
     5  C    0.132837
     6  H    0.028108
     7  N   -0.286153
     8  C    0.125355
     9  H    0.014315
    10  N   -0.288300
    11  C    0.236372
    12  C    0.112946
    13  N   -0.045547
    14  H    0.107921
    15  H    0.089217
    16  H    0.026967
    17  H    0.035433
    18  H    0.025769
    19  N   -0.307301
    20  C    0.242136
    21  C    0.180922
    22  N   -0.122292
    23  H    0.114101
    24  H    0.117656
    25  N   -0.299282
    26  C    0.238333
    27  N   -0.126217
    28  H    0.117941
    29  C    0.157244
    30  O   -0.322692
    31  C   -0.005231
    32  N   -0.222817
    33  C    0.131487
    34  H    0.030118
    35  H    0.032009
    36  H    0.027841
    37  H    0.024019
    38  H    0.058385
    39  H    0.061881
    40  H    0.071564
    41  H    0.031081
    42  C   -0.106241
    43  O   -0.276473
    44  C    0.168997
    45  H    0.136087
    46  N   -0.132024
    47  O   -0.354291
    48  C    0.365024
    49  H    0.048000
    50  C    0.179034
    51  C    0.040624
    52  N   -0.294330
    53  H    0.031683
    54  H    0.041232
    55  H    0.015192
    56  H    0.121038
    57  H    0.118372
    58  N   -0.044335
    59  C    0.111732
    60  C    0.237450
    61  N   -0.262825
    62  H    0.043257
    63  C    0.150019
    64  N   -0.300117
    65  H    0.025221
    66  C    0.128169
    67  N   -0.263725
    68  C    0.014991
    69  C    0.176680
    70  N   -0.308529
 Sum of Mulliken charges =  -0.00000

 Dipole moment (field-independent basis, Debye):
    X=              7.0408    Y=              6.0060    Z=              2.2961  Tot=              9.5350
 Quadrupole moment (field-independent basis, Debye-Ang):
   XX=           -139.8001   YY=           -224.4578   ZZ=           -251.2872
   XY=             10.1757   XZ=             17.0283   YZ=             -5.6452

 Normal termination of Gaussian 16 at Mon Jan 22 04:42:59 2018.
