 Gaussian 16, Revision A.03,
 Gaussian 16:  EM64L-G16RevA.03 25-Dec-2016

 ---------------------------------------
 #p wb97xd/cc-pvdz sp scf=(maxcycles=20)
 ---------------------------------------

 ------------------
 Base pair stacking
 ------------------
 Symbolic Z-matrix:
 Charge =  0 Multiplicity = 1

                         Standard orientation:
 ---------------------------------------------------------------------
 Center     Atomic      Atomic             Coordinates (Angstroms)
 Number     Number       Type             X           Y           Z
 ---------------------------------------------------------------------
      1          7           0       -5.813481   -1.574785    1.012510
      2          6           0       -7.183037   -1.039926    1.139871
      3          6           0       -3.624035   -1.783436    1.022582
      4          7           0       -4.128356   -3.005025    0.600556
      5          6           0       -5.427231   -2.830425    0.611384
      6          1           0       -6.157384   -3.591115    0.333569
      7          7           0       -2.155016   -0.047881    1.649316
      8          6           0       -3.245649    0.697285    1.856271
      9          1           0       -3.056263    1.713598    2.199057
     10          7           0       -4.529072    0.377016    1.704072
     11          6           0       -4.650761   -0.891836    1.280242
     12          6           0       -2.310925   -1.320316    1.223077
     13          7           0       -1.223437   -2.065724    1.015925
     14          1           0       -1.291530   -3.012836    0.700394
     15          1           0       -0.304090   -1.703079    1.168992
     16          1           0       -7.696501   -1.588388    1.799960
     17          1           0       -7.143559   -0.092037    1.454632
     18          1           0       -7.640997   -1.075605    0.251607
     19          7           0       -3.972334    2.206241   -1.328494
     20          6           0       -2.603825    2.105128   -1.257823
     21          6           0       -4.755809    3.419276   -1.019601
     22          7           0        0.488035    3.541254   -0.594740
     23          1           0        1.448269    3.263711   -0.607636
     24          1           0        0.291860    4.484122   -0.324107
     25          7           0       -1.751783    3.089026   -0.897223
     26          6           0       -0.493165    2.688122   -0.925342
     27          7           0       -0.097153    1.421068   -1.279243
     28          1           0        0.887414    1.203025   -1.272336
     29          6           0       -0.956452    0.392865   -1.653769
     30          8           0       -0.496192   -0.715394   -1.954893
     31          6           0       -2.312006    0.808463   -1.628374
     32          7           0       -3.473926    0.109596   -1.925703
     33          6           0       -4.430846    0.976704   -1.734261
     34          1           0       -5.492521    0.771014   -1.875018
     35          1           0       -5.388040    3.227761   -0.269666
     36          1           0       -4.135261    4.154906   -0.751216
     37          1           0       -5.272759    3.699004   -1.827881
     38          1           0        5.859169    0.568394   -0.417004
     39          1           0        5.977003    0.801409   -2.159553
     40          1           0        4.707450    1.616426   -1.245572
     41          1           0        4.483384   -3.768462   -1.980818
     42          6           0        4.076629   -2.762809   -1.873842
     43          8           0        1.819677   -3.450864   -2.118469
     44          6           0        2.660480   -2.569224   -1.943718
     45          1           0        1.257779   -1.082634   -1.839770
     46          7           0        2.251592   -1.259149   -1.796173
     47          8           0        2.593771    0.962909   -1.475888
     48          6           0        3.049569   -0.160768   -1.595338
     49          1           0        5.964137   -1.804827   -1.618102
     50          6           0        4.880682   -1.711113   -1.678832
     51          6           0        5.295525    0.714340   -1.326437
     52          7           0        4.403239   -0.428517   -1.539602
     53          1           0        4.836927    3.323307    3.208193
     54          1           0        3.585513    3.525706    2.181030
     55          1           0        5.116135    3.535541    1.614329
     56          1           0        2.245482   -3.282459    1.037058
     57          1           0        3.895860   -2.999717    1.363268
     58          7           0        2.972720   -2.630258    1.251304
     59          6           0        2.723630   -1.325644    1.382111
     60          6           0        3.297942    0.947799    1.786281
     61          7           0        2.048458    1.415699    1.630445
     62          1           0        0.169659    0.713897    1.208315
     63          6           0        1.208917    0.420778    1.350769
     64          7           0        1.456448   -0.886516    1.219334
     65          1           0        6.478101    1.061019    2.357186
     66          6           0        5.454046    0.757608    2.137675
     67          7           0        5.075484   -0.475684    1.906710
     68          6           0        3.710541   -0.369206    1.682396
     69          6           0        4.497410    3.130477    2.287579
     70          7           0        4.429571    1.670818    2.080673
 ---------------------------------------------------------------------

 SCF Done:  E(RwB97XD) =  -2048.75352046     A.U. after   15 cycles

 The electronic state is 1-A.
 Alpha  occ. eigenvalues --  -19.25708 -19.21938 -19.20512 -14.52437 -14.52206
 Alpha  occ. eigenvalues --  -14.48729 -14.48538 -14.47956 -14.47638 -14.46770
 Alpha  occ. eigenvalues --  -14.46393 -14.45483 -14.44145 -14.44121 -14.42336
 Alpha  occ. eigenvalues --  -14.41856 -14.41277 -14.41063 -14.40744 -14.40302
 Alpha  occ. eigenvalues --  -10.45276 -10.41048 -10.40032 -10.39789 -10.38100
 Alpha  occ. eigenvalues --  -10.37993 -10.37568 -10.37104 -10.35588 -10.35460
 Alpha  occ. eigenvalues --  -10.34896 -10.34129 -10.34010 -10.33979 -10.33318
 Alpha  occ. eigenvalues --  -10.33194 -10.33160 -10.32582 -10.31116 -10.30912
 Alpha  occ. eigenvalues --  -10.30598 -10.28447 -10.27914  -1.19278  -1.15162
 Alpha  occ. eigenvalues --   -1.13056  -1.12946  -1.11274  -1.10404  -1.09120
 Alpha  occ. eigenvalues --   -1.09109  -1.08392  -1.05067  -1.04634  -1.02315
 Alpha  occ. eigenvalues --   -1.00950  -1.00494  -0.99516  -0.98395  -0.96966
 Alpha  occ. eigenvalues --   -0.96617  -0.96392  -0.92745  -0.90849  -0.87580
 Alpha  occ. eigenvalues --   -0.85919  -0.83955  -0.83885  -0.83418  -0.82348
 Alpha  occ. eigenvalues --   -0.82263  -0.78661  -0.76940  -0.74741  -0.74416
 Alpha  occ. eigenvalues --   -0.73466  -0.73178  -0.72914  -0.71081  -0.70309
 Alpha  occ. eigenvalues --   -0.67188  -0.66678  -0.66354  -0.66309  -0.64294
 Alpha  occ. eigenvalues --   -0.64146  -0.63578  -0.62758  -0.62529  -0.61566
 Alpha  occ. eigenvalues --   -0.60681  -0.60471  -0.60346  -0.59402  -0.59277
 Alpha  occ. eigenvalues --   -0.58883  -0.58137  -0.56719  -0.56581  -0.56207
 Alpha  occ. eigenvalues --   -0.55816  -0.55564  -0.55239  -0.54311  -0.54119
 Alpha  occ. eigenvalues --   -0.53821  -0.53500  -0.53427  -0.53191  -0.52775
 Alpha  occ. eigenvalues --   -0.52669  -0.52269  -0.51839  -0.50800  -0.50278
 Alpha  occ. eigenvalues --   -0.50003  -0.49791  -0.49293  -0.48914  -0.48676
 Alpha  occ. eigenvalues --   -0.48612  -0.48488  -0.48200  -0.47386  -0.47241
 Alpha  occ. eigenvalues --   -0.46972  -0.45678  -0.44821  -0.44723  -0.43604
 Alpha  occ. eigenvalues --   -0.41109  -0.40673  -0.39303  -0.37694  -0.37473
 Alpha  occ. eigenvalues --   -0.37244  -0.37122  -0.37076  -0.36031  -0.34607
 Alpha  occ. eigenvalues --   -0.34275  -0.33849  -0.33468  -0.33317  -0.33115
 Alpha  occ. eigenvalues --   -0.32551  -0.32301  -0.32050  -0.31768  -0.30927
 Alpha  occ. eigenvalues --   -0.30521  -0.29568  -0.25740  -0.25151
 Alpha virt. eigenvalues --    0.03214   0.04011   0.07226   0.07769   0.08578
 Alpha virt. eigenvalues --    0.09289   0.09936   0.10528   0.11119   0.11842
 Alpha virt. eigenvalues --    0.12940   0.14272   0.14432   0.14549   0.15060

 Mulliken charges:
               1
     1  N   -0.312869
     2  C    0.179832
     3  C    0.064798
     4  N   -0.258271
     5  C    0.136024
     6  H    0.026226
     7  N   -0.291489
     8  C    0.135205
     9  H    0.011830
    10  N   -0.289618
    11  C    0.241035
    12  C    0.102387
    13  N   -0.051209
    14  H    0.111160
    15  H    0.085034
    16  H    0.026218
    17  H    0.030898
    18  H    0.024717
    19  N   -0.301075
    20  C    0.248339
    21  C    0.180769
    22  N   -0.110994
    23  H    0.113014
    24  H    0.115294
    25  N   -0.306776
    26  C    0.230013
    27  N   -0.145596
    28  H    0.124841
    29  C    0.180679
    30  O   -0.323733
    31  C   -0.010125
    32  N   -0.223752
    33  C    0.129036
    34  H    0.018276
    35  H    0.029365
    36  H    0.027470
    37  H    0.022114
    38  H    0.060401
    39  H    0.059543
    40  H    0.071077
    41  H    0.025563
    42  C   -0.111301
    43  O   -0.269115
    44  C    0.163870
    45  H    0.132148
    46  N   -0.116578
    47  O   -0.339211
    48  C    0.334089
    49  H    0.047168
    50  C    0.172062
    51  C    0.035903
    52  N   -0.279083
    53  H    0.034877
    54  H    0.038707
    55  H    0.025966
    56  H    0.127461
    57  H    0.116772
    58  N   -0.056237
    59  C    0.087331
    60  C    0.245464
    61  N   -0.272107
    62  H    0.042481
    63  C    0.152112
    64  N   -0.299682
    65  H    0.036992
    66  C    0.121906
    67  N   -0.259513
    68  C    0.025029
    69  C    0.181065
    70  N   -0.304230
 Sum of Mulliken charges =  -0.00000

 Dipole moment (field-independent basis, Debye):
    X=              7.1915    Y=              6.5004    Z=              2.7474  Tot=             10.0757
 Quadrupole moment (field-independent basis, Debye-Ang):
   XX=           -149.1673   YY=           -223.2904   ZZ=           -256.1686
   XY=              5.2375   XZ=              1.3502   YZ=             -7.7784

 Normal termination of Gaussian 16 at Sun Jan 21 22:39:55 2018.
