 Gaussian 16, Revision A.03,
 Gaussian 16:  EM64L-G16RevA.03 25-Dec-2016

 ---------------------------------------
 #p wb97xd/cc-pvdz sp scf=(maxcycles=20)
 ---------------------------------------

 ------------------
 Base pair stacking
 ------------------
 Symbolic Z-matrix:
 Charge =  0 Multiplicity = 1

                         Standard orientation:
 ---------------------------------------------------------------------
 Center     Atomic      Atomic             Coordinates (Angstroms)
 Number     Number       Type             X           Y           Z
 ---------------------------------------------------------------------
      1          7           0       -6.684647   -1.382367    0.392900
      2          6           0       -8.047673   -0.825847    0.495033
      3          6           0       -4.506426   -1.657649    0.522895
      4          7           0       -5.006623   -2.801032   -0.083078
      5          6           0       -6.298899   -2.589425   -0.137143
      6          1           0       -7.024302   -3.286783   -0.557172
      7          7           0       -3.047225   -0.059650    1.461020
      8          6           0       -4.133046    0.686960    1.687180
      9          1           0       -3.945892    1.646301    2.167697
     10          7           0       -5.409345    0.427658    1.410195
     11          6           0       -5.528857   -0.774098    0.822043
     12          6           0       -3.200764   -1.263610    0.867737
     13          7           0       -2.118078   -2.010341    0.641139
     14          1           0       -2.184666   -2.908171    0.204458
     15          1           0       -1.203994   -1.697964    0.900002
     16          1           0       -8.618149   -1.436361    1.044591
     17          1           0       -8.009554    0.073725    0.929119
     18          1           0       -8.442811   -0.736417   -0.419229
     19          7           0       -2.971028    2.443146   -1.566688
     20          6           0       -1.616652    2.283704   -1.398460
     21          6           0       -3.714858    3.701699   -1.358207
     22          7           0        1.488719    3.605534   -0.579176
     23          1           0        2.433376    3.284898   -0.515650
     24          1           0        1.319916    4.566494   -0.358336
     25          7           0       -0.744834    3.242275   -1.017506
     26          6           0        0.492374    2.784501   -0.944026
     27          7           0        0.850486    1.487578   -1.221947
     28          1           0        1.820919    1.226053   -1.139253
     29          6           0       -0.029740    0.484543   -1.615622
     30          8           0        0.396437   -0.654603   -1.842488
     31          6           0       -1.362665    0.961227   -1.699023
     32          7           0       -2.534015    0.303640   -2.048911
     33          6           0       -3.459297    1.219889   -1.956411
     34          1           0       -4.517760    1.056468   -2.161885
     35          1           0       -4.404200    3.569474   -0.646776
     36          1           0       -3.079385    4.419084   -1.075727
     37          1           0       -4.162738    3.971144   -2.210030
     38          1           0        6.688586    0.404428    0.078736
     39          1           0        6.933582    0.560669   -1.659141
     40          1           0        5.645938    1.468407   -0.865821
     41          1           0        5.215875   -3.926507   -1.411480
     42          6           0        4.851134   -2.900093   -1.370627
     43          8           0        2.585437   -3.495610   -1.743571
     44          6           0        3.453625   -2.646187   -1.544813
     45          1           0        2.119351   -1.095154   -1.593461
     46          7           0        3.098510   -1.314159   -1.475112
     47          8           0        3.523726    0.901522   -1.215967
     48          6           0        3.932576   -0.245404   -1.261447
     49          1           0        6.760713   -2.018123   -1.022124
     50          6           0        5.689417   -1.878449   -1.160593
     51          6           0        6.194568    0.538305   -0.872103
     52          7           0        5.265224   -0.571123   -1.102864
     53          1           0        3.890476    2.874927    3.898000
     54          1           0        2.719007    3.242106    2.823327
     55          1           0        4.285484    3.275627    2.366063
     56          1           0        1.313201   -3.325943    0.740090
     57          1           0        2.942422   -3.136807    1.209094
     58          7           0        2.037772   -2.728149    1.083292
     59          6           0        1.808868   -1.443022    1.361167
     60          6           0        2.403247    0.743591    2.087233
     61          7           0        1.178372    1.265339    1.908640
     62          1           0       -0.681130    0.679579    1.276406
     63          6           0        0.338863    0.339275    1.449810
     64          7           0        0.566201   -0.948396    1.170883
     65          1           0        5.537200    0.687214    2.879274
     66          6           0        4.524651    0.445072    2.555138
     67          7           0        4.136214   -0.737604    2.145195
     68          6           0        2.793048   -0.562197    1.845370
     69          6           0        3.612266    2.808907    2.939754
     70          7           0        3.527039    1.389226    2.545749
 ---------------------------------------------------------------------

 SCF Done:  E(RwB97XD) =  -2048.74856361     A.U. after   15 cycles

 The electronic state is 1-A.
 Alpha  occ. eigenvalues --  -19.26038 -19.22250 -19.20724 -14.52540 -14.51553
 Alpha  occ. eigenvalues --  -14.49027 -14.48733 -14.48033 -14.46991 -14.46874
 Alpha  occ. eigenvalues --  -14.46488 -14.44626 -14.43033 -14.42953 -14.42225
 Alpha  occ. eigenvalues --  -14.42126 -14.41642 -14.41161 -14.40818 -14.40334
 Alpha  occ. eigenvalues --  -10.45648 -10.41320 -10.40374 -10.38577 -10.38312
 Alpha  occ. eigenvalues --  -10.37937 -10.37161 -10.36100 -10.35557 -10.35496
 Alpha  occ. eigenvalues --  -10.34611 -10.34398 -10.34305 -10.33596 -10.33394
 Alpha  occ. eigenvalues --  -10.33309 -10.33263 -10.31525 -10.31236 -10.31172
 Alpha  occ. eigenvalues --  -10.30730 -10.28738 -10.28160  -1.19589  -1.14227
 Alpha  occ. eigenvalues --   -1.13312  -1.13295  -1.11595  -1.10599  -1.09434
 Alpha  occ. eigenvalues --   -1.08664  -1.07936  -1.05160  -1.03495  -1.02682
 Alpha  occ. eigenvalues --   -1.00574  -1.00019  -0.99888  -0.98607  -0.97170
 Alpha  occ. eigenvalues --   -0.96557  -0.95531  -0.92802  -0.91169  -0.86647
 Alpha  occ. eigenvalues --   -0.85095  -0.84178  -0.84112  -0.83833  -0.82541
 Alpha  occ. eigenvalues --   -0.82441  -0.79005  -0.75913  -0.74657  -0.73769
 Alpha  occ. eigenvalues --   -0.73659  -0.73525  -0.73080  -0.71255  -0.69286
 Alpha  occ. eigenvalues --   -0.67475  -0.66698  -0.66477  -0.65632  -0.64590
 Alpha  occ. eigenvalues --   -0.63834  -0.63155  -0.62823  -0.62746  -0.61828
 Alpha  occ. eigenvalues --   -0.60376  -0.60027  -0.59645  -0.59421  -0.58813
 Alpha  occ. eigenvalues --   -0.58512  -0.58497  -0.56735  -0.56689  -0.56519
 Alpha  occ. eigenvalues --   -0.56118  -0.55520  -0.54631  -0.54526  -0.54383
 Alpha  occ. eigenvalues --   -0.53719  -0.53576  -0.52989  -0.52814  -0.52651
 Alpha  occ. eigenvalues --   -0.52500  -0.51964  -0.51811  -0.51004  -0.50395
 Alpha  occ. eigenvalues --   -0.50235  -0.49610  -0.49346  -0.49141  -0.48937
 Alpha  occ. eigenvalues --   -0.48622  -0.48340  -0.47896  -0.47625  -0.47496
 Alpha  occ. eigenvalues --   -0.47161  -0.45478  -0.45205  -0.44194  -0.43406
 Alpha  occ. eigenvalues --   -0.41383  -0.39738  -0.39595  -0.37387  -0.37346
 Alpha  occ. eigenvalues --   -0.37281  -0.36580  -0.36491  -0.36035  -0.34330
 Alpha  occ. eigenvalues --   -0.33862  -0.33682  -0.33487  -0.33435  -0.32999
 Alpha  occ. eigenvalues --   -0.32769  -0.32353  -0.32176  -0.31886  -0.31167
 Alpha  occ. eigenvalues --   -0.30562  -0.28680  -0.25961  -0.25500
 Alpha virt. eigenvalues --    0.02847   0.05072   0.07753   0.07843   0.08797
 Alpha virt. eigenvalues --    0.09111   0.09617   0.10754   0.11060   0.11677
 Alpha virt. eigenvalues --    0.12825   0.13863   0.14497   0.14646   0.15495

 Mulliken charges:
               1
     1  N   -0.311363
     2  C    0.180525
     3  C    0.043773
     4  N   -0.256818
     5  C    0.131950
     6  H    0.026842
     7  N   -0.287780
     8  C    0.129395
     9  H    0.012265
    10  N   -0.290945
    11  C    0.232788
    12  C    0.113740
    13  N   -0.047752
    14  H    0.109715
    15  H    0.090169
    16  H    0.026553
    17  H    0.034021
    18  H    0.024804
    19  N   -0.309258
    20  C    0.250140
    21  C    0.180183
    22  N   -0.117308
    23  H    0.112139
    24  H    0.116682
    25  N   -0.305241
    26  C    0.239977
    27  N   -0.133346
    28  H    0.115910
    29  C    0.160570
    30  O   -0.321484
    31  C    0.003678
    32  N   -0.224357
    33  C    0.128451
    34  H    0.027083
    35  H    0.032253
    36  H    0.027733
    37  H    0.023417
    38  H    0.057674
    39  H    0.061740
    40  H    0.071425
    41  H    0.029573
    42  C   -0.113221
    43  O   -0.276541
    44  C    0.158952
    45  H    0.137811
    46  N   -0.126206
    47  O   -0.350376
    48  C    0.355569
    49  H    0.048295
    50  C    0.186034
    51  C    0.040634
    52  N   -0.287050
    53  H    0.033124
    54  H    0.040098
    55  H    0.021226
    56  H    0.126648
    57  H    0.115621
    58  N   -0.046430
    59  C    0.102647
    60  C    0.241730
    61  N   -0.270163
    62  H    0.040366
    63  C    0.164666
    64  N   -0.300544
    65  H    0.029940
    66  C    0.126305
    67  N   -0.261505
    68  C    0.005586
    69  C    0.178245
    70  N   -0.310979
 Sum of Mulliken charges =  -0.00000

 Dipole moment (field-independent basis, Debye):
    X=              7.2521    Y=              6.1939    Z=              2.3933  Tot=              9.8329
 Quadrupole moment (field-independent basis, Debye-Ang):
   XX=           -143.8961   YY=           -223.5793   ZZ=           -253.1548
   XY=              7.3558   XZ=             11.9788   YZ=             -5.0170

 Normal termination of Gaussian 16 at Mon Jan 22 03:09:59 2018.
