 Gaussian 16, Revision A.03,
 Gaussian 16:  EM64L-G16RevA.03 25-Dec-2016

 ---------------------------------------
 #p wb97xd/cc-pvdz sp scf=(maxcycles=20)
 ---------------------------------------

 ------------------
 Base pair stacking
 ------------------
 Symbolic Z-matrix:
 Charge =  0 Multiplicity = 1

                         Standard orientation:
 ---------------------------------------------------------------------
 Center     Atomic      Atomic             Coordinates (Angstroms)
 Number     Number       Type             X           Y           Z
 ---------------------------------------------------------------------
      1          7           0       -5.523189   -1.786132    1.126728
      2          6           0       -6.892506   -1.320221    1.419784
      3          6           0       -3.333294   -1.934510    0.986470
      4          7           0       -3.839351   -3.071874    0.374080
      5          6           0       -5.138426   -2.936963    0.483089
      6          1           0       -5.869796   -3.653591    0.108275
      7          7           0       -1.861576   -0.303438    1.844733
      8          6           0       -2.951610    0.362154    2.240200
      9          1           0       -2.760864    1.303754    2.753292
     10          7           0       -4.235858    0.040751    2.097683
     11          6           0       -4.359217   -1.132509    1.455299
     12          6           0       -2.019162   -1.480694    1.201061
     13          7           0       -0.932281   -2.146574    0.805514
     14          1           0       -1.001614   -3.021875    0.325656
     15          1           0       -0.012171   -1.793410    0.975244
     16          1           0       -7.359425   -1.993245    1.993562
     17          1           0       -6.851800   -0.444782    1.900484
     18          1           0       -7.398070   -1.205798    0.564622
     19          7           0       -4.272646    2.316641   -1.108339
     20          6           0       -2.901223    2.231348   -1.108188
     21          6           0       -5.053530    3.514310   -0.738863
     22          7           0        0.203301    3.694114   -0.575297
     23          1           0        1.164804    3.428804   -0.641286
     24          1           0        0.010125    4.629634   -0.278317
     25          7           0       -2.043534    3.219373   -0.773177
     26          6           0       -0.783393    2.834703   -0.871540
     27          7           0       -0.391086    1.578990   -1.267505
     28          1           0        0.595040    1.373126   -1.313881
     29          6           0       -1.256212    0.546825   -1.616859
     30          8           0       -0.798926   -0.550245   -1.960491
     31          6           0       -2.613476    0.945027   -1.516089
     32          7           0       -3.780742    0.237021   -1.767276
     33          6           0       -4.736768    1.088708   -1.512593
     34          1           0       -5.801735    0.872304   -1.603609
     35          1           0       -5.644950    3.301981    0.038271
     36          1           0       -4.428797    4.252841   -0.488775
     37          1           0       -5.613711    3.801554   -1.515074
     38          1           0        5.610544    0.785640   -0.720370
     39          1           0        5.637802    1.050262   -2.462174
     40          1           0        4.406547    1.833470   -1.471244
     41          1           0        4.207962   -3.540247   -2.290757
     42          6           0        3.795522   -2.541734   -2.145509
     43          8           0        1.537211   -3.253464   -2.288978
     44          6           0        2.375509   -2.364584   -2.140818
     45          1           0        0.962743   -0.897580   -1.940046
     46          7           0        1.959468   -1.062453   -1.949495
     47          8           0        2.291641    1.157800   -1.606993
     48          6           0        2.753802    0.042119   -1.769254
     49          1           0        5.682321   -1.564930   -1.967573
     50          6           0        4.596175   -1.483649   -1.972224
     51          6           0        5.000187    0.940307   -1.597641
     52          7           0        4.111559   -0.209703   -1.786268
     53          1           0        5.147561    2.913287    3.635537
     54          1           0        3.838157    3.265799    2.728179
     55          1           0        5.334824    3.419575    2.095398
     56          1           0        2.552643   -3.253611    0.425972
     57          1           0        4.213467   -2.990967    0.713684
     58          7           0        3.279434   -2.632113    0.718656
     59          6           0        3.015869   -1.380265    1.098876
     60          6           0        3.572991    0.796113    1.882933
     61          7           0        2.309060    1.250979    1.879554
     62          1           0        0.422009    0.587794    1.432555
     63          6           0        1.472356    0.301537    1.465573
     64          7           0        1.734378   -0.952884    1.084317
     65          1           0        6.777408    0.888480    2.301614
     66          6           0        5.748096    0.602840    2.082847
     67          7           0        5.378333   -0.577456    1.649440
     68          6           0        4.001479   -0.468449    1.518506
     69          6           0        4.761112    2.882296    2.713749
     70          7           0        4.706712    1.483437    2.246596
 ---------------------------------------------------------------------

 SCF Done:  E(RwB97XD) =  -2048.74865613     A.U. after   15 cycles

 The electronic state is 1-A.
 Alpha  occ. eigenvalues --  -19.25806 -19.22275 -19.20655 -14.52360 -14.52328
 Alpha  occ. eigenvalues --  -14.48803 -14.48392 -14.47907 -14.47779 -14.46952
 Alpha  occ. eigenvalues --  -14.46687 -14.45443 -14.44119 -14.44088 -14.42046
 Alpha  occ. eigenvalues --  -14.42004 -14.40986 -14.40915 -14.40746 -14.40084
 Alpha  occ. eigenvalues --  -10.45375 -10.41279 -10.40274 -10.39752 -10.38274
 Alpha  occ. eigenvalues --  -10.37931 -10.37543 -10.37045 -10.35586 -10.35172
 Alpha  occ. eigenvalues --  -10.34949 -10.34383 -10.33831 -10.33657 -10.33428
 Alpha  occ. eigenvalues --  -10.33020 -10.32898 -10.32556 -10.31056 -10.30892
 Alpha  occ. eigenvalues --  -10.30860 -10.28154 -10.28151  -1.19365  -1.15100
 Alpha  occ. eigenvalues --   -1.13249  -1.13225  -1.10942  -1.10623  -1.09274
 Alpha  occ. eigenvalues --   -1.09085  -1.08597  -1.04796  -1.04637  -1.02473
 Alpha  occ. eigenvalues --   -1.00894  -1.00180  -0.99767  -0.98584  -0.96754
 Alpha  occ. eigenvalues --   -0.96630  -0.96505  -0.92467  -0.90971  -0.87505
 Alpha  occ. eigenvalues --   -0.85807  -0.84148  -0.83641  -0.83491  -0.82518
 Alpha  occ. eigenvalues --   -0.82060  -0.78795  -0.76902  -0.74708  -0.74628
 Alpha  occ. eigenvalues --   -0.73677  -0.73326  -0.72620  -0.70788  -0.70267
 Alpha  occ. eigenvalues --   -0.67422  -0.66698  -0.66429  -0.66020  -0.64488
 Alpha  occ. eigenvalues --   -0.64121  -0.63747  -0.62684  -0.62452  -0.61804
 Alpha  occ. eigenvalues --   -0.60591  -0.60348  -0.60191  -0.59367  -0.59296
 Alpha  occ. eigenvalues --   -0.59016  -0.58393  -0.56686  -0.56337  -0.56100
 Alpha  occ. eigenvalues --   -0.55954  -0.55319  -0.55075  -0.54350  -0.54090
 Alpha  occ. eigenvalues --   -0.53686  -0.53658  -0.53522  -0.53338  -0.53003
 Alpha  occ. eigenvalues --   -0.52671  -0.52349  -0.51558  -0.50514  -0.50220
 Alpha  occ. eigenvalues --   -0.50058  -0.49715  -0.49458  -0.48925  -0.48898
 Alpha  occ. eigenvalues --   -0.48691  -0.48444  -0.48403  -0.47653  -0.47400
 Alpha  occ. eigenvalues --   -0.46698  -0.45852  -0.45017  -0.44569  -0.43450
 Alpha  occ. eigenvalues --   -0.40822  -0.40595  -0.39389  -0.37729  -0.37420
 Alpha  occ. eigenvalues --   -0.37327  -0.37306  -0.36858  -0.36151  -0.34559
 Alpha  occ. eigenvalues --   -0.34232  -0.33985  -0.33406  -0.33188  -0.33101
 Alpha  occ. eigenvalues --   -0.32721  -0.32526  -0.32367  -0.31939  -0.30635
 Alpha  occ. eigenvalues --   -0.30236  -0.29250  -0.25652  -0.25262
 Alpha virt. eigenvalues --    0.03052   0.04104   0.07234   0.08056   0.08455
 Alpha virt. eigenvalues --    0.09268   0.09738   0.10557   0.11301   0.12221
 Alpha virt. eigenvalues --    0.12894   0.14213   0.14620   0.14660   0.15005

 Mulliken charges:
               1
     1  N   -0.311826
     2  C    0.180138
     3  C    0.062899
     4  N   -0.256580
     5  C    0.138204
     6  H    0.025339
     7  N   -0.296315
     8  C    0.134361
     9  H    0.010480
    10  N   -0.291077
    11  C    0.243665
    12  C    0.098104
    13  N   -0.049385
    14  H    0.113533
    15  H    0.083592
    16  H    0.025325
    17  H    0.030888
    18  H    0.023234
    19  N   -0.307460
    20  C    0.255765
    21  C    0.181166
    22  N   -0.120353
    23  H    0.115982
    24  H    0.117527
    25  N   -0.310633
    26  C    0.243961
    27  N   -0.148235
    28  H    0.120960
    29  C    0.191406
    30  O   -0.323163
    31  C   -0.015763
    32  N   -0.223484
    33  C    0.127510
    34  H    0.019476
    35  H    0.029790
    36  H    0.028974
    37  H    0.023298
    38  H    0.060725
    39  H    0.059732
    40  H    0.072822
    41  H    0.023582
    42  C   -0.108833
    43  O   -0.269782
    44  C    0.154233
    45  H    0.131076
    46  N   -0.109284
    47  O   -0.342100
    48  C    0.333954
    49  H    0.046884
    50  C    0.169705
    51  C    0.037423
    52  N   -0.276380
    53  H    0.034195
    54  H    0.040805
    55  H    0.026598
    56  H    0.127416
    57  H    0.114712
    58  N   -0.048223
    59  C    0.078382
    60  C    0.243555
    61  N   -0.272574
    62  H    0.035020
    63  C    0.164620
    64  N   -0.303603
    65  H    0.036513
    66  C    0.127390
    67  N   -0.261675
    68  C    0.027526
    69  C    0.181261
    70  N   -0.306977
 Sum of Mulliken charges =  -0.00000

 Dipole moment (field-independent basis, Debye):
    X=              7.3148    Y=              6.7915    Z=              2.1811  Tot=             10.2170
 Quadrupole moment (field-independent basis, Debye-Ang):
   XX=           -150.9288   YY=           -222.0859   ZZ=           -255.0381
   XY=              3.7557   XZ=             -1.6414   YZ=             -4.0777

 Normal termination of Gaussian 16 at Mon Jan 22 01:47:19 2018.
