 Gaussian 16, Revision A.03,
 Gaussian 16:  EM64L-G16RevA.03 25-Dec-2016

 ---------------------------------------
 #p wb97xd/cc-pvdz sp scf=(maxcycles=20)
 ---------------------------------------

 ------------------
 Base pair stacking
 ------------------
 Symbolic Z-matrix:
 Charge =  0 Multiplicity = 1

                         Standard orientation:
 ---------------------------------------------------------------------
 Center     Atomic      Atomic             Coordinates (Angstroms)
 Number     Number       Type             X           Y           Z
 ---------------------------------------------------------------------
      1          7           0       -6.359857   -1.375669    0.658342
      2          6           0       -7.715051   -0.794814    0.594616
      3          6           0       -4.185737   -1.632327    0.869628
      4          7           0       -4.701542   -2.892957    0.606060
      5          6           0       -5.990725   -2.687876    0.489306
      6          1           0       -6.725581   -3.465312    0.278314
      7          7           0       -2.704835    0.145025    1.328857
      8          6           0       -3.780250    0.939412    1.332151
      9          1           0       -3.579959    1.992387    1.525513
     10          7           0       -5.059915    0.629820    1.133378
     11          6           0       -5.195901   -0.686883    0.904907
     12          6           0       -2.874868   -1.174788    1.095920
     13          7           0       -1.802584   -1.969377    1.092235
     14          1           0       -1.881479   -2.952624    0.924253
     15          1           0       -0.884344   -1.609119    1.257172
     16          1           0       -8.294205   -1.219314    1.290729
     17          1           0       -7.664595    0.189761    0.759509
     18          1           0       -8.108516   -0.959872   -0.309782
     19          7           0       -3.376964    2.140063   -1.518665
     20          6           0       -2.018807    2.018909   -1.349067
     21          6           0       -4.164190    3.361977   -1.258044
     22          7           0        1.035729    3.406011   -0.450427
     23          1           0        1.990426    3.114874   -0.395402
     24          1           0        0.833257    4.349658   -0.187256
     25          7           0       -1.181974    2.987968   -0.919301
     26          6           0        0.069693    2.569340   -0.858667
     27          7           0        0.473086    1.299265   -1.192893
     28          1           0        1.451422    1.067142   -1.115871
     29          6           0       -0.370566    0.286107   -1.637439
     30          8           0        0.095206   -0.826466   -1.913059
     31          6           0       -1.718504    0.720848   -1.707750
     32          7           0       -2.865071    0.040761   -2.094751
     33          6           0       -3.821425    0.920088   -1.966726
     34          1           0       -4.872688    0.730579   -2.186282
     35          1           0       -4.852143    3.174237   -0.557847
     36          1           0       -3.554883    4.086754   -0.939151
     37          1           0       -4.616752    3.654735   -2.099651
     38          1           0        6.338127    0.355515    0.095105
     39          1           0        6.586259    0.599071   -1.632250
     40          1           0        5.264589    1.425702   -0.806892
     41          1           0        5.020934   -3.950139   -1.599891
     42          6           0        4.621299   -2.939549   -1.514803
     43          8           0        2.379035   -3.593542   -1.929117
     44          6           0        3.216846   -2.725256   -1.686336
     45          1           0        1.830858   -1.219541   -1.673129
     46          7           0        2.816303   -1.410545   -1.558500
     47          8           0        3.164637    0.804088   -1.196198
     48          6           0        3.612474   -0.325118   -1.291085
     49          1           0        6.498036   -2.010466   -1.114199
     50          6           0        5.423311   -1.900843   -1.253126
     51          6           0        5.844557    0.515895   -0.851860
     52          7           0        4.954625   -0.612571   -1.138811
     53          1           0        4.272011    3.552648    2.876148
     54          1           0        3.106226    3.619538    1.736597
     55          1           0        4.673216    3.502866    1.295017
     56          1           0        1.609996   -3.249895    1.570551
     57          1           0        3.241496   -2.958534    1.974808
     58          7           0        2.342670   -2.589545    1.735674
     59          6           0        2.131566   -1.275117    1.641446
     60          6           0        2.756022    1.019275    1.728509
     61          7           0        1.538613    1.486275    1.405625
     62          1           0       -0.328601    0.771522    0.954777
     63          6           0        0.686478    0.479956    1.220957
     64          7           0        0.895989   -0.837188    1.314870
     65          1           0        5.888550    1.145530    2.518129
     66          6           0        4.872864    0.835726    2.270437
     67          7           0        4.468172   -0.409190    2.206515
     68          6           0        3.127713   -0.307024    1.863778
     69          6           0        3.993315    3.224515    1.973571
     70          7           0        3.888502    1.752562    1.992653
 ---------------------------------------------------------------------

 SCF Done:  E(RwB97XD) =  -2048.73636907     A.U. after   15 cycles

 The electronic state is 1-A.
 Alpha  occ. eigenvalues --  -19.25835 -19.21912 -19.20481 -14.52363 -14.52089
 Alpha  occ. eigenvalues --  -14.49169 -14.48426 -14.47802 -14.47569 -14.46523
 Alpha  occ. eigenvalues --  -14.46009 -14.45099 -14.43688 -14.43300 -14.42698
 Alpha  occ. eigenvalues --  -14.41840 -14.41768 -14.41466 -14.40610 -14.40607
 Alpha  occ. eigenvalues --  -10.45448 -10.40781 -10.40041 -10.39389 -10.37975
 Alpha  occ. eigenvalues --  -10.37691 -10.37639 -10.36705 -10.35859 -10.35313
 Alpha  occ. eigenvalues --  -10.35271 -10.34426 -10.34155 -10.34052 -10.33763
 Alpha  occ. eigenvalues --  -10.33572 -10.33069 -10.31998 -10.31391 -10.30984
 Alpha  occ. eigenvalues --  -10.30363 -10.28899 -10.27818  -1.19443  -1.14790
 Alpha  occ. eigenvalues --   -1.13048  -1.12943  -1.11736  -1.10347  -1.09249
 Alpha  occ. eigenvalues --   -1.08739  -1.08265  -1.05440  -1.04255  -1.02434
 Alpha  occ. eigenvalues --   -1.00904  -1.00641  -0.99368  -0.98352  -0.97361
 Alpha  occ. eigenvalues --   -0.96333  -0.96213  -0.93116  -0.90958  -0.87305
 Alpha  occ. eigenvalues --   -0.85796  -0.84350  -0.83786  -0.83641  -0.82721
 Alpha  occ. eigenvalues --   -0.82120  -0.78781  -0.76618  -0.74446  -0.74344
 Alpha  occ. eigenvalues --   -0.73406  -0.73313  -0.73269  -0.71509  -0.70041
 Alpha  occ. eigenvalues --   -0.67093  -0.66734  -0.66494  -0.66355  -0.64354
 Alpha  occ. eigenvalues --   -0.63931  -0.63544  -0.63142  -0.62615  -0.61412
 Alpha  occ. eigenvalues --   -0.60706  -0.60603  -0.60189  -0.59429  -0.59201
 Alpha  occ. eigenvalues --   -0.58884  -0.58030  -0.57119  -0.56864  -0.56421
 Alpha  occ. eigenvalues --   -0.55912  -0.55787  -0.55190  -0.54757  -0.54256
 Alpha  occ. eigenvalues --   -0.54047  -0.53418  -0.53138  -0.52775  -0.52663
 Alpha  occ. eigenvalues --   -0.52450  -0.52273  -0.52165  -0.51195  -0.50607
 Alpha  occ. eigenvalues --   -0.49924  -0.49598  -0.49359  -0.48953  -0.48772
 Alpha  occ. eigenvalues --   -0.48598  -0.48256  -0.48016  -0.47465  -0.47339
 Alpha  occ. eigenvalues --   -0.47237  -0.45574  -0.45176  -0.44037  -0.43815
 Alpha  occ. eigenvalues --   -0.41602  -0.40582  -0.39432  -0.37669  -0.37527
 Alpha  occ. eigenvalues --   -0.37338  -0.37077  -0.36686  -0.35829  -0.34405
 Alpha  occ. eigenvalues --   -0.34021  -0.33980  -0.33793  -0.33092  -0.32762
 Alpha  occ. eigenvalues --   -0.32511  -0.32157  -0.31855  -0.31677  -0.31364
 Alpha  occ. eigenvalues --   -0.30841  -0.29196  -0.26143  -0.25006
 Alpha virt. eigenvalues --    0.03124   0.04562   0.07279   0.07597   0.08732
 Alpha virt. eigenvalues --    0.09410   0.09944   0.10517   0.10866   0.11333
 Alpha virt. eigenvalues --    0.13042   0.13847   0.14245   0.14713   0.14882

 Mulliken charges:
               1
     1  N   -0.312611
     2  C    0.180237
     3  C    0.055469
     4  N   -0.259346
     5  C    0.134309
     6  H    0.027568
     7  N   -0.280500
     8  C    0.134176
     9  H    0.012179
    10  N   -0.290153
    11  C    0.233896
    12  C    0.109721
    13  N   -0.050992
    14  H    0.108773
    15  H    0.088195
    16  H    0.026918
    17  H    0.032116
    18  H    0.026213
    19  N   -0.295938
    20  C    0.241696
    21  C    0.177561
    22  N   -0.081893
    23  H    0.110134
    24  H    0.111366
    25  N   -0.298732
    26  C    0.206330
    27  N   -0.134864
    28  H    0.123039
    29  C    0.151020
    30  O   -0.321907
    31  C    0.016719
    32  N   -0.222598
    33  C    0.122666
    34  H    0.020603
    35  H    0.028937
    36  H    0.026126
    37  H    0.022382
    38  H    0.057562
    39  H    0.061178
    40  H    0.067643
    41  H    0.029418
    42  C   -0.115871
    43  O   -0.266882
    44  C    0.174976
    45  H    0.133447
    46  N   -0.128717
    47  O   -0.343370
    48  C    0.349679
    49  H    0.047091
    50  C    0.178589
    51  C    0.043175
    52  N   -0.285431
    53  H    0.036461
    54  H    0.030303
    55  H    0.024316
    56  H    0.123962
    57  H    0.117493
    58  N   -0.063080
    59  C    0.109313
    60  C    0.250761
    61  N   -0.286816
    62  H    0.035383
    63  C    0.173907
    64  N   -0.302709
    65  H    0.034754
    66  C    0.113487
    67  N   -0.255401
    68  C    0.001690
    69  C    0.178342
    70  N   -0.303468
 Sum of Mulliken charges =  -0.00000

 Dipole moment (field-independent basis, Debye):
    X=              6.8163    Y=              6.1016    Z=              3.3516  Tot=              9.7429
 Quadrupole moment (field-independent basis, Debye-Ang):
   XX=           -146.0228   YY=           -225.2321   ZZ=           -256.4687
   XY=              8.1086   XZ=              7.1403   YZ=            -10.2492

 Normal termination of Gaussian 16 at Mon Jan 22 01:59:29 2018.
