 Gaussian 16, Revision A.03,
 Gaussian 16:  EM64L-G16RevA.03 25-Dec-2016

 ---------------------------------------
 #p wb97xd/cc-pvdz sp scf=(maxcycles=20)
 ---------------------------------------

 ------------------
 Base pair stacking
 ------------------
 Symbolic Z-matrix:
 Charge =  0 Multiplicity = 1

                         Standard orientation:
 ---------------------------------------------------------------------
 Center     Atomic      Atomic             Coordinates (Angstroms)
 Number     Number       Type             X           Y           Z
 ---------------------------------------------------------------------
      1          7           0        5.196244   -1.548473   -1.434920
      2          6           0        6.569580   -1.016830   -1.531407
      3          6           0        3.004592   -1.725278   -1.382801
      4          7           0        3.501899   -3.006623   -1.194204
      5          6           0        4.802385   -2.848820   -1.233141
      6          1           0        5.528362   -3.654391   -1.119344
      7          7           0        1.545194    0.109065   -1.644175
      8          6           0        2.640727    0.864838   -1.771454
      9          1           0        2.457273    1.926604   -1.930382
     10          7           0        3.922815    0.507645   -1.732074
     11          6           0        4.037056   -0.815842   -1.532661
     12          6           0        1.693640   -1.218785   -1.444489
     13          7           0        0.601259   -1.974868   -1.317206
     14          1           0        0.663778   -2.962336   -1.168156
     15          1           0       -0.316346   -1.580266   -1.366465
     16          1           0        7.044246   -1.452751   -2.296160
     17          1           0        6.535688   -0.029089   -1.680830
     18          1           0        7.063287   -1.207131   -0.682859
     19          7           0        4.620429    1.955482    1.112987
     20          6           0        3.248199    1.884651    1.108541
     21          6           0        5.414621    3.151932    0.768817
     22          7           0        0.160323    3.390317    0.598860
     23          1           0       -0.804055    3.133883    0.657742
     24          1           0        0.363933    4.329439    0.320836
     25          7           0        2.401638    2.888093    0.791555
     26          6           0        1.137310    2.514856    0.879879
     27          7           0        0.731018    1.255738    1.250128
     28          1           0       -0.257308    1.059408    1.290537
     29          6           0        1.584529    0.207801    1.580593
     30          8           0        1.115029   -0.890964    1.901537
     31          6           0        2.946103    0.593606    1.490319
     32          7           0        4.105344   -0.131491    1.729634
     33          6           0        5.070785    0.714961    1.493703
     34          1           0        6.133227    0.485580    1.582435
     35          1           0        6.005412    2.948811   -0.011249
     36          1           0        4.798195    3.901808    0.532229
     37          1           0        5.976141    3.417826    1.551627
     38          1           0       -5.277439    0.536649    0.675970
     39          1           0       -5.305594    0.767010    2.422628
     40          1           0       -4.064099    1.556669    1.449751
     41          1           0       -3.923645   -3.834009    2.162955
     42          6           0       -3.500448   -2.837220    2.038314
     43          8           0       -1.250038   -3.575396    2.171943
     44          6           0       -2.078649   -2.674988    2.039830
     45          1           0       -0.650147   -1.219255    1.870877
     46          7           0       -1.648561   -1.373775    1.875164
     47          8           0       -1.956690    0.856210    1.576091
     48          6           0       -2.430875   -0.257535    1.715333
     49          1           0       -5.376514   -1.837265    1.876194
     50          6           0       -4.289583   -1.767535    1.884524
     51          6           0       -4.667347    0.667478    1.557296
     52          7           0       -3.791231   -0.495334    1.724768
     53          1           0       -5.437868    3.780925   -2.304844
     54          1           0       -4.141080    3.792090   -1.314745
     55          1           0       -5.646331    3.725414   -0.687165
     56          1           0       -2.888789   -3.127588   -1.388213
     57          1           0       -4.545426   -2.773543   -1.588989
     58          7           0       -3.611346   -2.439664   -1.457717
     59          6           0       -3.342309   -1.134832   -1.378981
     60          6           0       -3.888105    1.181147   -1.370666
     61          7           0       -2.624259    1.600621   -1.194132
     62          1           0       -0.743688    0.814555   -0.979220
     63          6           0       -1.793535    0.562501   -1.122588
     64          7           0       -2.061060   -0.745099   -1.201228
     65          1           0       -7.086409    1.428240   -1.773072
     66          6           0       -6.060272    1.079546   -1.653083
     67          7           0       -5.696766   -0.179630   -1.649032
     68          6           0       -4.321841   -0.129344   -1.470748
     69          6           0       -5.064212    3.431752   -1.445515
     70          7           0       -5.016558    1.957362   -1.489312
 ---------------------------------------------------------------------

 SCF Done:  E(RwB97XD) =  -2048.74935317     A.U. after   15 cycles

 The electronic state is 1-A.
 Alpha  occ. eigenvalues --  -19.25320 -19.21604 -19.20435 -14.52799 -14.51999
 Alpha  occ. eigenvalues --  -14.48583 -14.48553 -14.48516 -14.47368 -14.46610
 Alpha  occ. eigenvalues --  -14.46395 -14.45814 -14.44612 -14.44526 -14.42650
 Alpha  occ. eigenvalues --  -14.41862 -14.41169 -14.41021 -14.40905 -14.40450
 Alpha  occ. eigenvalues --  -10.44971 -10.41047 -10.40316 -10.39707 -10.38301
 Alpha  occ. eigenvalues --  -10.38052 -10.37500 -10.37384 -10.36183 -10.35625
 Alpha  occ. eigenvalues --  -10.34478 -10.34213 -10.34187 -10.33907 -10.33340
 Alpha  occ. eigenvalues --  -10.33306 -10.33107 -10.32921 -10.30997 -10.30727
 Alpha  occ. eigenvalues --  -10.30720 -10.28474 -10.27964  -1.19046  -1.15585
 Alpha  occ. eigenvalues --   -1.13004  -1.12620  -1.11158  -1.10413  -1.09624
 Alpha  occ. eigenvalues --   -1.08904  -1.08361  -1.05194  -1.05100  -1.02028
 Alpha  occ. eigenvalues --   -1.01327  -1.00613  -0.99494  -0.98380  -0.97209
 Alpha  occ. eigenvalues --   -0.96824  -0.96449  -0.92878  -0.90648  -0.87968
 Alpha  occ. eigenvalues --   -0.86226  -0.83980  -0.83866  -0.83175  -0.82331
 Alpha  occ. eigenvalues --   -0.82310  -0.78465  -0.77368  -0.75187  -0.74457
 Alpha  occ. eigenvalues --   -0.73424  -0.72961  -0.72920  -0.71105  -0.70722
 Alpha  occ. eigenvalues --   -0.67202  -0.67118  -0.66378  -0.66124  -0.64583
 Alpha  occ. eigenvalues --   -0.64198  -0.63550  -0.62822  -0.62499  -0.61597
 Alpha  occ. eigenvalues --   -0.61190  -0.60801  -0.60595  -0.59735  -0.59172
 Alpha  occ. eigenvalues --   -0.58803  -0.58123  -0.56924  -0.56617  -0.55998
 Alpha  occ. eigenvalues --   -0.55807  -0.55652  -0.55501  -0.54392  -0.54041
 Alpha  occ. eigenvalues --   -0.53890  -0.53610  -0.53361  -0.53078  -0.53025
 Alpha  occ. eigenvalues --   -0.52781  -0.52074  -0.51805  -0.50650  -0.50317
 Alpha  occ. eigenvalues --   -0.50144  -0.49933  -0.49200  -0.49101  -0.48927
 Alpha  occ. eigenvalues --   -0.48608  -0.48362  -0.48133  -0.47508  -0.47105
 Alpha  occ. eigenvalues --   -0.46949  -0.45831  -0.44935  -0.44608  -0.43036
 Alpha  occ. eigenvalues --   -0.41108  -0.41015  -0.39058  -0.38032  -0.37944
 Alpha  occ. eigenvalues --   -0.37411  -0.37152  -0.36976  -0.35826  -0.35039
 Alpha  occ. eigenvalues --   -0.34624  -0.34007  -0.33515  -0.33254  -0.32852
 Alpha  occ. eigenvalues --   -0.32518  -0.32230  -0.31995  -0.31746  -0.30841
 Alpha  occ. eigenvalues --   -0.30542  -0.29752  -0.25841  -0.25353
 Alpha virt. eigenvalues --    0.03306   0.03784   0.06446   0.07891   0.09169
 Alpha virt. eigenvalues --    0.09380   0.09809   0.10093   0.10957   0.12434
 Alpha virt. eigenvalues --    0.12640   0.14060   0.14283   0.14450   0.14810

 Mulliken charges:
               1
     1  N   -0.309766
     2  C    0.178222
     3  C    0.064698
     4  N   -0.260394
     5  C    0.142316
     6  H    0.026812
     7  N   -0.288480
     8  C    0.131344
     9  H    0.013957
    10  N   -0.283735
    11  C    0.247367
    12  C    0.084894
    13  N   -0.052901
    14  H    0.110805
    15  H    0.082385
    16  H    0.026358
    17  H    0.028806
    18  H    0.026216
    19  N   -0.294517
    20  C    0.247557
    21  C    0.183156
    22  N   -0.114943
    23  H    0.116894
    24  H    0.115992
    25  N   -0.301801
    26  C    0.232219
    27  N   -0.130452
    28  H    0.112228
    29  C    0.180794
    30  O   -0.322450
    31  C   -0.016143
    32  N   -0.221635
    33  C    0.114916
    34  H    0.017374
    35  H    0.025889
    36  H    0.028578
    37  H    0.022090
    38  H    0.057690
    39  H    0.056690
    40  H    0.074694
    41  H    0.025592
    42  C   -0.105831
    43  O   -0.266416
    44  C    0.171122
    45  H    0.130243
    46  N   -0.118899
    47  O   -0.337708
    48  C    0.335081
    49  H    0.045614
    50  C    0.162568
    51  C    0.048511
    52  N   -0.277982
    53  H    0.035844
    54  H    0.038226
    55  H    0.028375
    56  H    0.122684
    57  H    0.117317
    58  N   -0.056805
    59  C    0.094229
    60  C    0.210893
    61  N   -0.263333
    62  H    0.024643
    63  C    0.171924
    64  N   -0.306241
    65  H    0.037184
    66  C    0.120522
    67  N   -0.251348
    68  C    0.021584
    69  C    0.182547
    70  N   -0.293863
 Sum of Mulliken charges =  -0.00000

 Dipole moment (field-independent basis, Debye):
    X=             -7.1915    Y=              6.7928    Z=             -2.6025  Tot=             10.2290
 Quadrupole moment (field-independent basis, Debye-Ang):
   XX=           -152.7007   YY=           -224.5758   ZZ=           -256.3790
   XY=             -2.0770   XZ=             -7.3845   YZ=             11.7911

 Normal termination of Gaussian 16 at Mon Jan 22 02:11:29 2018.
