 Gaussian 16, Revision A.03,
 Gaussian 16:  EM64L-G16RevA.03 25-Dec-2016

 ---------------------------------------
 #p wb97xd/cc-pvdz sp scf=(maxcycles=20)
 ---------------------------------------

 ------------------
 Base pair stacking
 ------------------
 Symbolic Z-matrix:
 Charge =  0 Multiplicity = 1

                         Standard orientation:
 ---------------------------------------------------------------------
 Center     Atomic      Atomic             Coordinates (Angstroms)
 Number     Number       Type             X           Y           Z
 ---------------------------------------------------------------------
      1          7           0        5.776062   -1.409346   -1.049883
      2          6           0        7.139025   -0.850534   -0.960034
      3          6           0        3.592858   -1.622098   -1.210005
      4          7           0        4.104231   -2.909896   -1.140708
      5          6           0        5.399062   -2.730179   -1.047011
      6          1           0        6.132691   -3.533404   -0.972417
      7          7           0        2.115482    0.209896   -1.365332
      8          6           0        3.198718    0.991020   -1.301927
      9          1           0        3.002958    2.061679   -1.342183
     10          7           0        4.481446    0.649746   -1.196770
     11          6           0        4.611356   -0.686599   -1.155183
     12          6           0        2.279549   -1.130329   -1.321065
     13          7           0        1.199456   -1.911727   -1.384215
     14          1           0        1.273733   -2.909144   -1.354893
     15          1           0        0.279718   -1.526984   -1.462946
     16          1           0        7.686956   -1.179388   -1.729325
     17          1           0        7.093293    0.147608   -0.987218
     18          1           0        7.564253   -1.139804   -0.102427
     19          7           0        4.026860    1.959153    1.326596
     20          6           0        2.660459    1.864911    1.216556
     21          6           0        4.829334    3.154513    0.998190
     22          7           0       -0.397509    3.296766    0.403920
     23          1           0       -1.359879    3.026496    0.396717
     24          1           0       -0.185395    4.227594    0.105134
     25          7           0        1.828047    2.840630    0.793331
     26          6           0        0.565990    2.449713    0.796454
     27          7           0        0.148932    1.199371    1.184028
     28          1           0       -0.836662    0.988007    1.154084
     29          6           0        0.987808    0.179840    1.623027
     30          8           0        0.509461   -0.913324    1.950018
     31          6           0        2.346784    0.584889    1.625138
     32          7           0        3.493191   -0.110483    1.984463
     33          6           0        4.462557    0.742344    1.791558
     34          1           0        5.517632    0.534709    1.973200
     35          1           0        5.483151    2.931035    0.276115
     36          1           0        4.223416    3.883961    0.683494
     37          1           0        5.322991    3.460391    1.811549
     38          1           0       -5.784178    0.356361    0.166253
     39          1           0       -5.954564    0.654507    1.894467
     40          1           0       -4.650548    1.426400    0.991652
     41          1           0       -4.492870   -3.929013    1.931072
     42          6           0       -4.074904   -2.930824    1.800082
     43          8           0       -1.832306   -3.624875    2.140907
     44          6           0       -2.660119   -2.744536    1.907426
     45          1           0       -1.242952   -1.272491    1.793200
     46          7           0       -2.236304   -1.443661    1.724795
     47          8           0       -2.550423    0.767328    1.312403
     48          6           0       -3.018754   -0.347996    1.458638
     49          1           0       -5.945724   -1.970013    1.449878
     50          6           0       -4.863983   -1.881560    1.541264
     51          6           0       -5.248096    0.531985    1.087029
     52          7           0       -4.372129   -0.608314    1.370115
     53          1           0       -4.876407    3.837413   -2.163381
     54          1           0       -3.668068    3.741309   -1.071239
     55          1           0       -5.218606    3.574565   -0.589452
     56          1           0       -2.242584   -3.095065   -1.900278
     57          1           0       -3.884765   -2.741753   -2.197762
     58          7           0       -2.973596   -2.414102   -1.945502
     59          6           0       -2.744614   -1.126100   -1.681350
     60          6           0       -3.346529    1.162293   -1.430910
     61          7           0       -2.112793    1.573742   -1.094708
     62          1           0       -0.238003    0.793276   -0.817878
     63          6           0       -1.265507    0.546688   -1.081882
     64          7           0       -1.492905   -0.744057   -1.346152
     65          1           0       -6.504866    1.413399   -2.074368
     66          6           0       -5.484096    1.066767   -1.910613
     67          7           0       -5.091055   -0.177553   -2.032527
     68          6           0       -3.737647   -0.130940   -1.731102
     69          6           0       -4.567723    3.387508   -1.325353
     70          7           0       -4.479952    1.931357   -1.548770
 ---------------------------------------------------------------------

 SCF Done:  E(RwB97XD) =  -2048.72392586     A.U. after   15 cycles

 The electronic state is 1-A.
 Alpha  occ. eigenvalues --  -19.25360 -19.21513 -19.20422 -14.52821 -14.51954
 Alpha  occ. eigenvalues --  -14.48971 -14.48460 -14.48010 -14.47382 -14.46467
 Alpha  occ. eigenvalues --  -14.45840 -14.45574 -14.44529 -14.44439 -14.42784
 Alpha  occ. eigenvalues --  -14.41579 -14.41567 -14.41289 -14.40548 -14.40441
 Alpha  occ. eigenvalues --  -10.44927 -10.40732 -10.40245 -10.39642 -10.38333
 Alpha  occ. eigenvalues --  -10.37925 -10.37505 -10.37348 -10.35752 -10.35714
 Alpha  occ. eigenvalues --  -10.34558 -10.34480 -10.34223 -10.33739 -10.33588
 Alpha  occ. eigenvalues --  -10.33258 -10.32988 -10.32912 -10.31354 -10.30643
 Alpha  occ. eigenvalues --  -10.30137 -10.28672 -10.27646  -1.19156  -1.15631
 Alpha  occ. eigenvalues --   -1.12919  -1.12570  -1.11535  -1.10169  -1.09579
 Alpha  occ. eigenvalues --   -1.08884  -1.08144  -1.05361  -1.05084  -1.02040
 Alpha  occ. eigenvalues --   -1.01420  -1.00862  -0.99097  -0.98264  -0.97285
 Alpha  occ. eigenvalues --   -0.97026  -0.96121  -0.93066  -0.90609  -0.88087
 Alpha  occ. eigenvalues --   -0.86422  -0.84230  -0.83599  -0.83250  -0.82606
 Alpha  occ. eigenvalues --   -0.81925  -0.78437  -0.77400  -0.75358  -0.74181
 Alpha  occ. eigenvalues --   -0.73269  -0.73152  -0.72927  -0.71385  -0.70800
 Alpha  occ. eigenvalues --   -0.67223  -0.66849  -0.66667  -0.66103  -0.64690
 Alpha  occ. eigenvalues --   -0.64127  -0.63418  -0.63088  -0.62555  -0.61304
 Alpha  occ. eigenvalues --   -0.61216  -0.60933  -0.60755  -0.59856  -0.59186
 Alpha  occ. eigenvalues --   -0.58650  -0.57793  -0.57304  -0.56801  -0.56283
 Alpha  occ. eigenvalues --   -0.55949  -0.55804  -0.55591  -0.54544  -0.54230
 Alpha  occ. eigenvalues --   -0.53962  -0.53683  -0.53472  -0.53152  -0.52804
 Alpha  occ. eigenvalues --   -0.52463  -0.52137  -0.52115  -0.51180  -0.50435
 Alpha  occ. eigenvalues --   -0.49854  -0.49672  -0.49214  -0.49120  -0.48720
 Alpha  occ. eigenvalues --   -0.48368  -0.48310  -0.47944  -0.47262  -0.47042
 Alpha  occ. eigenvalues --   -0.46994  -0.45561  -0.44827  -0.44422  -0.43262
 Alpha  occ. eigenvalues --   -0.41353  -0.40874  -0.39316  -0.38017  -0.37989
 Alpha  occ. eigenvalues --   -0.37860  -0.36971  -0.36733  -0.36048  -0.34824
 Alpha  occ. eigenvalues --   -0.34531  -0.33815  -0.33710  -0.33020  -0.32763
 Alpha  occ. eigenvalues --   -0.32373  -0.32309  -0.31951  -0.31577  -0.31016
 Alpha  occ. eigenvalues --   -0.30688  -0.29576  -0.25880  -0.24728
 Alpha virt. eigenvalues --    0.03399   0.03589   0.06748   0.07201   0.08789
 Alpha virt. eigenvalues --    0.09148   0.09766   0.10467   0.11384   0.12044
 Alpha virt. eigenvalues --    0.12918   0.13944   0.14130   0.14567   0.15058

 Mulliken charges:
               1
     1  N   -0.314181
     2  C    0.178870
     3  C    0.066410
     4  N   -0.260831
     5  C    0.136284
     6  H    0.026782
     7  N   -0.285590
     8  C    0.148376
     9  H    0.011160
    10  N   -0.285328
    11  C    0.245544
    12  C    0.094972
    13  N   -0.055461
    14  H    0.107839
    15  H    0.083904
    16  H    0.027054
    17  H    0.029579
    18  H    0.027500
    19  N   -0.267951
    20  C    0.182980
    21  C    0.181881
    22  N   -0.090029
    23  H    0.111680
    24  H    0.109676
    25  N   -0.290328
    26  C    0.202375
    27  N   -0.146061
    28  H    0.125117
    29  C    0.174066
    30  O   -0.322627
    31  C    0.013656
    32  N   -0.219580
    33  C    0.122907
    34  H    0.013558
    35  H    0.021798
    36  H    0.026066
    37  H    0.021516
    38  H    0.061858
    39  H    0.056231
    40  H    0.067897
    41  H    0.027524
    42  C   -0.112269
    43  O   -0.266336
    44  C    0.175112
    45  H    0.130660
    46  N   -0.123051
    47  O   -0.331693
    48  C    0.333849
    49  H    0.046135
    50  C    0.169762
    51  C    0.037464
    52  N   -0.280610
    53  H    0.037560
    54  H    0.034868
    55  H    0.028034
    56  H    0.123432
    57  H    0.119082
    58  N   -0.062737
    59  C    0.098044
    60  C    0.229820
    61  N   -0.272513
    62  H    0.059391
    63  C    0.136548
    64  N   -0.295822
    65  H    0.038220
    66  C    0.110534
    67  N   -0.252252
    68  C    0.029609
    69  C    0.182550
    70  N   -0.290487
 Sum of Mulliken charges =  -0.00000

 Dipole moment (field-independent basis, Debye):
    X=             -7.0485    Y=              6.3981    Z=             -3.7978  Tot=             10.2489
 Quadrupole moment (field-independent basis, Debye-Ang):
   XX=           -149.3257   YY=           -226.8572   ZZ=           -257.7194
   XY=             -5.9481   XZ=              0.0083   YZ=             13.4359

 Normal termination of Gaussian 16 at Mon Jan 22 09:25:21 2018.
