 Gaussian 16, Revision A.03,
 Gaussian 16:  EM64L-G16RevA.03 25-Dec-2016

 ---------------------------------------
 #p wb97xd/cc-pvdz sp scf=(maxcycles=20)
 ---------------------------------------

 ------------------
 Base pair stacking
 ------------------
 Symbolic Z-matrix:
 Charge =  0 Multiplicity = 1

                         Standard orientation:
 ---------------------------------------------------------------------
 Center     Atomic      Atomic             Coordinates (Angstroms)
 Number     Number       Type             X           Y           Z
 ---------------------------------------------------------------------
      1          7           0       -6.139421   -1.631411    0.677591
      2          6           0       -7.509726   -1.146142    0.932099
      3          6           0       -3.950072   -1.838903    0.645641
      4          7           0       -4.451835   -2.907302   -0.083395
      5          6           0       -5.750756   -2.739526   -0.034967
      6          1           0       -6.479213   -3.400237   -0.505868
      7          7           0       -2.484875   -0.329277    1.712030
      8          6           0       -3.576739    0.337800    2.099858
      9          1           0       -3.389428    1.229185    2.697023
     10          7           0       -4.859213    0.070357    1.861885
     11          6           0       -4.978345   -1.043788    1.121008
     12          6           0       -2.638198   -1.446194    0.967675
     13          7           0       -1.549477   -2.113463    0.579574
     14          1           0       -1.615668   -2.945348    0.027472
     15          1           0       -0.631077   -1.804755    0.827305
     16          1           0       -8.027162   -1.847022    1.423229
     17          1           0       -7.472153   -0.313268    1.483476
     18          1           0       -7.962311   -0.948130    0.062636
     19          7           0       -3.592875    2.531576   -1.293314
     20          6           0       -2.227713    2.395861   -1.216072
     21          6           0       -4.348392    3.758649   -0.970546
     22          7           0        0.894079    3.745491   -0.512778
     23          1           0        1.847303    3.444696   -0.524216
     24          1           0        0.719309    4.688670   -0.228914
     25          7           0       -1.354171    3.352970   -0.835421
     26          6           0       -0.105578    2.921788   -0.862212
     27          7           0        0.261568    1.650898   -1.233094
     28          1           0        1.240459    1.408696   -1.223687
     29          6           0       -0.620221    0.649884   -1.628408
     30          8           0       -0.185302   -0.464635   -1.943708
     31          6           0       -1.965342    1.098182   -1.604690
     32          7           0       -3.142106    0.432625   -1.919564
     33          6           0       -4.078735    1.319937   -1.720564
     34          1           0       -5.144209    1.142515   -1.870739
     35          1           0       -4.989842    3.571356   -0.227392
     36          1           0       -3.711762    4.474681   -0.687260
     37          1           0       -4.853245    4.063189   -1.777506
     38          1           0        6.189718    0.639383   -0.348691
     39          1           0        6.324197    0.895817   -2.086733
     40          1           0        5.069206    1.727797   -1.167942
     41          1           0        4.718239   -3.638218   -1.986823
     42          6           0        4.335521   -2.624626   -1.866884
     43          8           0        2.064005   -3.253314   -2.135389
     44          6           0        2.924987   -2.395317   -1.942180
     45          1           0        1.558417   -0.876507   -1.823822
     46          7           0        2.547323   -1.077991   -1.777043
     47          8           0        2.941674    1.129893   -1.420771
     48          6           0        3.370628   -0.002689   -1.554680
     49          1           0        6.244220   -1.717229   -1.585318
     50          6           0        5.163792   -1.596041   -1.651034
     51          6           0        5.635555    0.812877   -1.259109
     52          7           0        4.716963   -0.304383   -1.495031
     53          1           0        4.497526    2.507458    4.137176
     54          1           0        3.252329    2.972796    3.191105
     55          1           0        4.786354    3.127729    2.655523
     56          1           0        1.919242   -3.299030    0.302760
     57          1           0        3.567617   -3.113776    0.701045
     58          7           0        2.645176   -2.726455    0.683973
     59          6           0        2.395300   -1.500753    1.149159
     60          6           0        2.967166    0.587606    2.135806
     61          7           0        1.718638    1.081923    2.100152
     62          1           0       -0.157581    0.517513    1.498601
     63          6           0        0.880795    0.195750    1.565703
     64          7           0        1.129132   -1.032375    1.099200
     65          1           0        6.143816    0.542957    2.735007
     66          6           0        5.121096    0.308943    2.437976
     67          7           0        4.743942   -0.820797    1.891039
     68          6           0        3.380371   -0.657335    1.694322
     69          6           0        4.163572    2.562017    3.196160
     70          7           0        4.096991    1.206996    2.615210
 ---------------------------------------------------------------------

 SCF Done:  E(RwB97XD) =  -2048.74688304     A.U. after   15 cycles

 The electronic state is 1-A.
 Alpha  occ. eigenvalues --  -19.26034 -19.22317 -19.20751 -14.52520 -14.51960
 Alpha  occ. eigenvalues --  -14.48799 -14.48620 -14.47922 -14.47070 -14.46895
 Alpha  occ. eigenvalues --  -14.46803 -14.45070 -14.43618 -14.43524 -14.42123
 Alpha  occ. eigenvalues --  -14.41947 -14.41162 -14.40910 -14.40794 -14.40050
 Alpha  occ. eigenvalues --  -10.45640 -10.41344 -10.40555 -10.39115 -10.38343
 Alpha  occ. eigenvalues --  -10.37967 -10.37570 -10.36604 -10.35263 -10.35196
 Alpha  occ. eigenvalues --  -10.35125 -10.34397 -10.33858 -10.33583 -10.33366
 Alpha  occ. eigenvalues --  -10.33151 -10.32957 -10.32049 -10.31209 -10.30990
 Alpha  occ. eigenvalues --  -10.30844 -10.28281 -10.28164  -1.19591  -1.14675
 Alpha  occ. eigenvalues --   -1.13480  -1.13312  -1.11158  -1.10644  -1.09439
 Alpha  occ. eigenvalues --   -1.08678  -1.08498  -1.04821  -1.04046  -1.02685
 Alpha  occ. eigenvalues --   -1.00446  -1.00216  -0.99871  -0.98641  -0.96781
 Alpha  occ. eigenvalues --   -0.96625  -0.96068  -0.92475  -0.91214  -0.87076
 Alpha  occ. eigenvalues --   -0.85442  -0.84154  -0.83794  -0.83730  -0.82509
 Alpha  occ. eigenvalues --   -0.82186  -0.79025  -0.76387  -0.74697  -0.74153
 Alpha  occ. eigenvalues --   -0.73766  -0.73537  -0.72712  -0.70878  -0.69755
 Alpha  occ. eigenvalues --   -0.67488  -0.66700  -0.66113  -0.66084  -0.64610
 Alpha  occ. eigenvalues --   -0.63876  -0.63552  -0.62769  -0.62517  -0.61848
 Alpha  occ. eigenvalues --   -0.60344  -0.60133  -0.59828  -0.59586  -0.58943
 Alpha  occ. eigenvalues --   -0.58871  -0.58488  -0.56657  -0.56392  -0.56301
 Alpha  occ. eigenvalues --   -0.56124  -0.55243  -0.54818  -0.54626  -0.54502
 Alpha  occ. eigenvalues --   -0.53764  -0.53621  -0.53047  -0.53026  -0.53017
 Alpha  occ. eigenvalues --   -0.52576  -0.52222  -0.51666  -0.50651  -0.50288
 Alpha  occ. eigenvalues --   -0.50086  -0.49643  -0.49417  -0.49340  -0.49032
 Alpha  occ. eigenvalues --   -0.48640  -0.48443  -0.47928  -0.47630  -0.47529
 Alpha  occ. eigenvalues --   -0.46804  -0.45681  -0.44817  -0.44114  -0.43874
 Alpha  occ. eigenvalues --   -0.40961  -0.40155  -0.39587  -0.37357  -0.37346
 Alpha  occ. eigenvalues --   -0.37033  -0.36971  -0.36894  -0.36219  -0.34360
 Alpha  occ. eigenvalues --   -0.34131  -0.33733  -0.33554  -0.33260  -0.33234
 Alpha  occ. eigenvalues --   -0.32713  -0.32471  -0.32227  -0.31954  -0.30767
 Alpha  occ. eigenvalues --   -0.30265  -0.29242  -0.25565  -0.25429
 Alpha virt. eigenvalues --    0.02648   0.04761   0.07318   0.08181   0.08629
 Alpha virt. eigenvalues --    0.09068   0.09689   0.10887   0.11222   0.11946
 Alpha virt. eigenvalues --    0.13047   0.14293   0.14585   0.14624   0.15601

 Mulliken charges:
               1
     1  N   -0.312290
     2  C    0.180429
     3  C    0.056696
     4  N   -0.256243
     5  C    0.132197
     6  H    0.025342
     7  N   -0.293062
     8  C    0.133530
     9  H    0.010760
    10  N   -0.292254
    11  C    0.235458
    12  C    0.106849
    13  N   -0.046995
    14  H    0.112479
    15  H    0.090522
    16  H    0.025907
    17  H    0.032675
    18  H    0.023193
    19  N   -0.310079
    20  C    0.254293
    21  C    0.180247
    22  N   -0.119331
    23  H    0.113733
    24  H    0.117315
    25  N   -0.309975
    26  C    0.243868
    27  N   -0.146945
    28  H    0.120241
    29  C    0.183730
    30  O   -0.324195
    31  C   -0.008711
    32  N   -0.224843
    33  C    0.132452
    34  H    0.022884
    35  H    0.031646
    36  H    0.028414
    37  H    0.023439
    38  H    0.058679
    39  H    0.060084
    40  H    0.071532
    41  H    0.027483
    42  C   -0.119269
    43  O   -0.277837
    44  C    0.148338
    45  H    0.135603
    46  N   -0.112243
    47  O   -0.344241
    48  C    0.342011
    49  H    0.048758
    50  C    0.187177
    51  C    0.040713
    52  N   -0.281765
    53  H    0.033421
    54  H    0.041496
    55  H    0.024215
    56  H    0.128429
    57  H    0.114780
    58  N   -0.049884
    59  C    0.090804
    60  C    0.251588
    61  N   -0.273899
    62  H    0.037314
    63  C    0.163330
    64  N   -0.301715
    65  H    0.034019
    66  C    0.128488
    67  N   -0.263015
    68  C    0.012391
    69  C    0.180170
    70  N   -0.310334
 Sum of Mulliken charges =  -0.00000

 Dipole moment (field-independent basis, Debye):
    X=              7.4563    Y=              6.5598    Z=              2.3535  Tot=             10.2062
 Quadrupole moment (field-independent basis, Debye-Ang):
   XX=           -147.6079   YY=           -222.8496   ZZ=           -253.5658
   XY=              4.7981   XZ=              6.3206   YZ=             -2.3297

 Normal termination of Gaussian 16 at Mon Jan 22 05:53:44 2018.
