 Gaussian 16, Revision A.03,
 Gaussian 16:  EM64L-G16RevA.03 25-Dec-2016

 ---------------------------------------
 #p wb97xd/cc-pvdz sp scf=(maxcycles=20)
 ---------------------------------------

 ------------------
 Base pair stacking
 ------------------
 Symbolic Z-matrix:
 Charge =  0 Multiplicity = 1

                         Standard orientation:
 ---------------------------------------------------------------------
 Center     Atomic      Atomic             Coordinates (Angstroms)
 Number     Number       Type             X           Y           Z
 ---------------------------------------------------------------------
      1          7           0        4.886989   -1.622362   -1.615609
      2          6           0        6.258368   -1.111888   -1.807229
      3          6           0        2.698780   -1.773023   -1.453199
      4          7           0        3.194662   -3.045295   -1.207919
      5          6           0        4.493119   -2.903605   -1.315584
      6          1           0        5.217520   -3.708029   -1.184877
      7          7           0        1.242658    0.056562   -1.761832
      8          6           0        2.336789    0.791697   -1.985502
      9          1           0        2.154160    1.843426   -2.201759
     10          7           0        3.616639    0.424430   -1.982161
     11          6           0        3.730038   -0.885289   -1.706099
     12          6           0        1.390196   -1.257836   -1.486772
     13          7           0        0.299204   -1.993321   -1.263213
     14          1           0        0.361129   -2.970266   -1.055945
     15          1           0       -0.616722   -1.593088   -1.295269
     16          1           0        6.694157   -1.599149   -2.564096
     17          1           0        6.225028   -0.134973   -2.016194
     18          1           0        6.789096   -1.254384   -0.971750
     19          7           0        4.920773    1.940977    0.974365
     20          6           0        3.548864    1.883741    1.025781
     21          6           0        5.712721    3.136676    0.622518
     22          7           0        0.458761    3.430223    0.677361
     23          1           0       -0.505016    3.182078    0.771097
     24          1           0        0.660678    4.373059    0.410879
     25          7           0        2.700638    2.902007    0.765621
     26          6           0        1.437164    2.539388    0.898848
     27          7           0        1.033156    1.276682    1.259204
     28          1           0        0.045329    1.089234    1.336750
     29          6           0        1.888405    0.213575    1.531610
     30          8           0        1.420921   -0.887172    1.848741
     31          6           0        3.249103    0.587837    1.392641
     32          7           0        4.409469   -0.153576    1.568004
     33          6           0        5.373264    0.688209    1.309766
     34          1           0        6.435958    0.446567    1.349176
     35          1           0        6.268375    2.944540   -0.185656
     36          1           0        5.095067    3.897475    0.427719
     37          1           0        6.309123    3.380202    1.386596
     38          1           0       -5.001326    0.629102    0.921687
     39          1           0       -4.954372    0.822212    2.672443
     40          1           0       -3.746010    1.620325    1.665345
     41          1           0       -3.633745   -3.785527    2.258601
     42          6           0       -3.205446   -2.790498    2.137359
     43          8           0       -0.959460   -3.553435    2.161263
     44          6           0       -1.783153   -2.642304    2.082865
     45          1           0       -0.347415   -1.197382    1.884980
     46          7           0       -1.346379   -1.342144    1.927741
     47          8           0       -1.642790    0.896656    1.688755
     48          6           0       -2.122676   -0.215115    1.824250
     49          1           0       -5.075816   -1.768922    2.074852
     50          6           0       -3.988791   -1.710065    2.039200
     51          6           0       -4.353750    0.734993    1.779295
     52          7           0       -3.483938   -0.439683    1.885539
     53          1           0       -5.735796    3.752223   -2.332401
     54          1           0       -4.394857    3.811281   -1.404772
     55          1           0       -5.870157    3.799065   -0.706617
     56          1           0       -3.198922   -3.112209   -1.103863
     57          1           0       -4.860346   -2.754225   -1.250944
     58          7           0       -3.918759   -2.422504   -1.183229
     59          6           0       -3.636654   -1.118141   -1.198197
     60          6           0       -4.164207    1.199419   -1.309388
     61          7           0       -2.890487    1.615968   -1.216855
     62          1           0       -1.007961    0.825379   -1.038938
     63          6           0       -2.065138    0.575764   -1.118552
     64          7           0       -2.345733   -0.731376   -1.103376
     65          1           0       -7.375686    1.454056   -1.580879
     66          6           0       -6.347755    1.102905   -1.486097
     67          7           0       -5.993848   -0.157278   -1.420118
     68          6           0       -4.611849   -0.110222   -1.307871
     69          6           0       -5.325691    3.453063   -1.470824
     70          7           0       -5.291096    1.978386   -1.424832
 ---------------------------------------------------------------------

 SCF Done:  E(RwB97XD) =  -2048.75024261     A.U. after   15 cycles

 The electronic state is 1-A.
 Alpha  occ. eigenvalues --  -19.25376 -19.21607 -19.20488 -14.52761 -14.51987
 Alpha  occ. eigenvalues --  -14.48845 -14.48546 -14.48381 -14.47347 -14.46682
 Alpha  occ. eigenvalues --  -14.46553 -14.45718 -14.44671 -14.44583 -14.42655
 Alpha  occ. eigenvalues --  -14.41960 -14.41133 -14.40993 -14.40985 -14.40502
 Alpha  occ. eigenvalues --  -10.44997 -10.41141 -10.40341 -10.39707 -10.38247
 Alpha  occ. eigenvalues --  -10.38132 -10.37502 -10.37407 -10.36213 -10.35605
 Alpha  occ. eigenvalues --  -10.34424 -10.34362 -10.34111 -10.33746 -10.33564
 Alpha  occ. eigenvalues --  -10.33196 -10.33110 -10.32921 -10.30972 -10.30767
 Alpha  occ. eigenvalues --  -10.30697 -10.28406 -10.28117  -1.19010  -1.15533
 Alpha  occ. eigenvalues --   -1.13105  -1.12615  -1.11007  -1.10597  -1.09684
 Alpha  occ. eigenvalues --   -1.08866  -1.08460  -1.05186  -1.05121  -1.02004
 Alpha  occ. eigenvalues --   -1.01263  -1.00574  -0.99624  -0.98490  -0.97238
 Alpha  occ. eigenvalues --   -0.96685  -0.96643  -0.92855  -0.90636  -0.87955
 Alpha  occ. eigenvalues --   -0.86166  -0.84152  -0.83746  -0.83118  -0.82529
 Alpha  occ. eigenvalues --   -0.82161  -0.78459  -0.77361  -0.75163  -0.74615
 Alpha  occ. eigenvalues --   -0.73540  -0.72909  -0.72873  -0.71036  -0.70707
 Alpha  occ. eigenvalues --   -0.67330  -0.67120  -0.66284  -0.66122  -0.64550
 Alpha  occ. eigenvalues --   -0.64288  -0.63586  -0.62738  -0.62559  -0.61738
 Alpha  occ. eigenvalues --   -0.61062  -0.60741  -0.60541  -0.59696  -0.59167
 Alpha  occ. eigenvalues --   -0.58898  -0.58268  -0.56913  -0.56554  -0.55916
 Alpha  occ. eigenvalues --   -0.55760  -0.55654  -0.55453  -0.54513  -0.54061
 Alpha  occ. eigenvalues --   -0.53884  -0.53641  -0.53423  -0.53096  -0.52923
 Alpha  occ. eigenvalues --   -0.52639  -0.51983  -0.51644  -0.50501  -0.50360
 Alpha  occ. eigenvalues --   -0.50111  -0.50005  -0.49387  -0.49124  -0.48871
 Alpha  occ. eigenvalues --   -0.48759  -0.48294  -0.48165  -0.47772  -0.47140
 Alpha  occ. eigenvalues --   -0.46865  -0.45793  -0.45342  -0.44607  -0.42931
 Alpha  occ. eigenvalues --   -0.41145  -0.41020  -0.39063  -0.38058  -0.37936
 Alpha  occ. eigenvalues --   -0.37304  -0.37249  -0.37051  -0.35689  -0.35051
 Alpha  occ. eigenvalues --   -0.34627  -0.34075  -0.33435  -0.33270  -0.32875
 Alpha  occ. eigenvalues --   -0.32598  -0.32470  -0.31844  -0.31811  -0.30711
 Alpha  occ. eigenvalues --   -0.30487  -0.29987  -0.25831  -0.25496
 Alpha virt. eigenvalues --    0.03349   0.03715   0.06416   0.07981   0.09001
 Alpha virt. eigenvalues --    0.09335   0.09766   0.10219   0.10951   0.12194
 Alpha virt. eigenvalues --    0.12940   0.14055   0.14456   0.14503   0.14640

 Mulliken charges:
               1
     1  N   -0.308189
     2  C    0.179532
     3  C    0.061165
     4  N   -0.259227
     5  C    0.145733
     6  H    0.027044
     7  N   -0.289053
     8  C    0.127358
     9  H    0.013061
    10  N   -0.280026
    11  C    0.247764
    12  C    0.083951
    13  N   -0.057994
    14  H    0.113200
    15  H    0.083146
    16  H    0.025597
    17  H    0.028585
    18  H    0.025387
    19  N   -0.303717
    20  C    0.263874
    21  C    0.183183
    22  N   -0.121131
    23  H    0.120422
    24  H    0.117250
    25  N   -0.306309
    26  C    0.236768
    27  N   -0.130609
    28  H    0.114666
    29  C    0.181001
    30  O   -0.321967
    31  C   -0.017223
    32  N   -0.224284
    33  C    0.112914
    34  H    0.020077
    35  H    0.025885
    36  H    0.030036
    37  H    0.023366
    38  H    0.063372
    39  H    0.056703
    40  H    0.075183
    41  H    0.023878
    42  C   -0.108451
    43  O   -0.266851
    44  C    0.171486
    45  H    0.130675
    46  N   -0.121660
    47  O   -0.343603
    48  C    0.343123
    49  H    0.044377
    50  C    0.163060
    51  C    0.045667
    52  N   -0.276713
    53  H    0.035164
    54  H    0.039723
    55  H    0.028827
    56  H    0.122196
    57  H    0.117178
    58  N   -0.056485
    59  C    0.095909
    60  C    0.216515
    61  N   -0.265352
    62  H    0.021956
    63  C    0.177946
    64  N   -0.311695
    65  H    0.037775
    66  C    0.126641
    67  N   -0.251471
    68  C    0.009810
    69  C    0.182135
    70  N   -0.298256
 Sum of Mulliken charges =  -0.00000

 Dipole moment (field-independent basis, Debye):
    X=             -7.2160    Y=              7.0313    Z=             -2.0116  Tot=             10.2740
 Quadrupole moment (field-independent basis, Debye-Ang):
   XX=           -154.4699   YY=           -223.9682   ZZ=           -255.1903
   XY=             -0.5006   XZ=            -10.8565   YZ=             10.8459

 Normal termination of Gaussian 16 at Mon Jan 22 15:53:52 2018.
