 Gaussian 16, Revision A.03,
 Gaussian 16:  EM64L-G16RevA.03 25-Dec-2016

 ---------------------------------------
 #p wb97xd/cc-pvdz sp scf=(maxcycles=20)
 ---------------------------------------

 ------------------
 Base pair stacking
 ------------------
 Symbolic Z-matrix:
 Charge =  0 Multiplicity = 1

                         Standard orientation:
 ---------------------------------------------------------------------
 Center     Atomic      Atomic             Coordinates (Angstroms)
 Number     Number       Type             X           Y           Z
 ---------------------------------------------------------------------
      1          7           0       -6.106529   -1.499817    0.813745
      2          6           0       -7.472649   -0.947605    0.896111
      3          6           0       -3.921192   -1.735163    0.892642
      4          7           0       -4.427310   -2.952607    0.460874
      5          6           0       -5.723631   -2.762090    0.430629
      6          1           0       -6.454210   -3.515175    0.133862
      7          7           0       -2.450896   -0.014578    1.556518
      8          6           0       -3.538099    0.744904    1.726104
      9          1           0       -3.346839    1.760538    2.069862
     10          7           0       -4.820067    0.439594    1.535693
     11          6           0       -4.944288   -0.829793    1.114204
     12          6           0       -2.609287   -1.287140    1.131577
     13          7           0       -1.525223   -2.046826    0.961698
     14          1           0       -1.595244   -2.994611    0.648618
     15          1           0       -0.606632   -1.694687    1.141495
     16          1           0       -8.013030   -1.486424    1.542513
     17          1           0       -7.431194    0.001303    1.207531
     18          1           0       -7.903312   -0.982145   -0.005742
     19          7           0       -3.649803    2.249342   -1.435126
     20          6           0       -2.285486    2.131849   -1.321607
     21          6           0       -4.427375    3.473401   -1.156311
     22          7           0        0.801928    3.533386   -0.569706
     23          1           0        1.758592    3.244058   -0.551545
     24          1           0        0.609162    4.479920   -0.309676
     25          7           0       -1.432890    3.107055   -0.939356
     26          6           0       -0.179070    2.690659   -0.926588
     27          7           0        0.211988    1.417083   -1.262147
     28          1           0        1.193089    1.187060   -1.223714
     29          6           0       -0.647979    0.397594   -1.658337
     30          8           0       -0.192386   -0.717705   -1.939891
     31          6           0       -1.998413    0.829869   -1.676897
     32          7           0       -3.159157    0.143778   -2.006840
     33          6           0       -4.110726    1.023470   -1.849184
     34          1           0       -5.170004    0.830075   -2.021818
     35          1           0       -5.084823    3.293410   -0.425447
     36          1           0       -3.806364    4.202741   -0.872245
     37          1           0       -4.915578    3.755365   -1.981516
     38          1           0        6.127775    0.495975   -0.211767
     39          1           0        6.302324    0.718765   -1.950890
     40          1           0        5.015294    1.553839   -1.080497
     41          1           0        4.747435   -3.831546   -1.797272
     42          6           0        4.350047   -2.820468   -1.707633
     43          8           0        2.093390   -3.482084   -2.018885
     44          6           0        2.939250   -2.609926   -1.822264
     45          1           0        1.552517   -1.105787   -1.768755
     46          7           0        2.542245   -1.294222   -1.693558
     47          8           0        2.901822    0.925070   -1.373166
     48          6           0        3.347158   -0.204678   -1.473201
     49          1           0        6.240457   -1.884368   -1.397979
     50          6           0        5.160643   -1.777703   -1.492691
     51          6           0        5.594376    0.644233   -1.138900
     52          7           0        4.695036   -0.488693   -1.374297
     53          1           0        4.530689    3.278641    3.315637
     54          1           0        3.314242    3.491165    2.249254
     55          1           0        4.861679    3.479424    1.730223
     56          1           0        1.926053   -3.305774    1.095990
     57          1           0        3.568924   -3.041600    1.471873
     58          7           0        2.654334   -2.661446    1.329635
     59          6           0        2.417495   -1.353235    1.446590
     60          6           0        3.007133    0.915019    1.857783
     61          7           0        1.768955    1.397362    1.661119
     62          1           0       -0.104439    0.716482    1.184235
     63          6           0        0.926214    0.411402    1.360194
     64          7           0        1.161489   -0.899467    1.242578
     65          1           0        6.169268    0.992209    2.526440
     66          6           0        5.148808    0.700237    2.276709
     67          7           0        4.762332   -0.529479    2.039863
     68          6           0        3.406403   -0.407445    1.772862
     69          6           0        4.217450    3.085346    2.385849
     70          7           0        4.137977    1.625602    2.183735
 ---------------------------------------------------------------------

 SCF Done:  E(RwB97XD) =  -2048.75236847     A.U. after   15 cycles

 The electronic state is 1-A.
 Alpha  occ. eigenvalues --  -19.25808 -19.21996 -19.20524 -14.52312 -14.52223
 Alpha  occ. eigenvalues --  -14.48878 -14.48532 -14.47738 -14.47624 -14.46752
 Alpha  occ. eigenvalues --  -14.46383 -14.45267 -14.43866 -14.43839 -14.42389
 Alpha  occ. eigenvalues --  -14.41868 -14.41441 -14.41157 -14.40698 -14.40372
 Alpha  occ. eigenvalues --  -10.45405 -10.41015 -10.40118 -10.39520 -10.38087
 Alpha  occ. eigenvalues --  -10.37787 -10.37700 -10.36875 -10.35549 -10.35392
 Alpha  occ. eigenvalues --  -10.35099 -10.34122 -10.34122 -10.33933 -10.33440
 Alpha  occ. eigenvalues --  -10.33266 -10.33164 -10.32288 -10.31199 -10.30988
 Alpha  occ. eigenvalues --  -10.30546 -10.28576 -10.27895  -1.19381  -1.14931
 Alpha  occ. eigenvalues --   -1.13069  -1.13014  -1.11426  -1.10403  -1.09212
 Alpha  occ. eigenvalues --   -1.08837  -1.08388  -1.05151  -1.04375  -1.02415
 Alpha  occ. eigenvalues --   -1.00729  -1.00582  -0.99518  -0.98396  -0.97070
 Alpha  occ. eigenvalues --   -0.96382  -0.96372  -0.92823  -0.90947  -0.87369
 Alpha  occ. eigenvalues --   -0.85758  -0.84064  -0.83878  -0.83546  -0.82453
 Alpha  occ. eigenvalues --   -0.82237  -0.78758  -0.76703  -0.74531  -0.74378
 Alpha  occ. eigenvalues --   -0.73479  -0.73267  -0.73019  -0.71190  -0.70080
 Alpha  occ. eigenvalues --   -0.67187  -0.66489  -0.66432  -0.66377  -0.64348
 Alpha  occ. eigenvalues --   -0.63926  -0.63598  -0.62848  -0.62558  -0.61549
 Alpha  occ. eigenvalues --   -0.60535  -0.60445  -0.60177  -0.59380  -0.59214
 Alpha  occ. eigenvalues --   -0.58878  -0.58142  -0.56776  -0.56651  -0.56284
 Alpha  occ. eigenvalues --   -0.55884  -0.55598  -0.55106  -0.54485  -0.54241
 Alpha  occ. eigenvalues --   -0.53814  -0.53486  -0.53213  -0.53015  -0.52767
 Alpha  occ. eigenvalues --   -0.52458  -0.52380  -0.51928  -0.50923  -0.50364
 Alpha  occ. eigenvalues --   -0.50007  -0.49622  -0.49367  -0.48938  -0.48769
 Alpha  occ. eigenvalues --   -0.48694  -0.48333  -0.48140  -0.47421  -0.47278
 Alpha  occ. eigenvalues --   -0.47080  -0.45551  -0.44977  -0.44428  -0.43792
 Alpha  occ. eigenvalues --   -0.41272  -0.40479  -0.39382  -0.37446  -0.37359
 Alpha  occ. eigenvalues --   -0.37293  -0.37132  -0.37000  -0.35963  -0.34488
 Alpha  occ. eigenvalues --   -0.34045  -0.33843  -0.33551  -0.33365  -0.33167
 Alpha  occ. eigenvalues --   -0.32553  -0.32276  -0.31940  -0.31749  -0.31059
 Alpha  occ. eigenvalues --   -0.30589  -0.29537  -0.25827  -0.25151
 Alpha virt. eigenvalues --    0.03059   0.04392   0.07276   0.07800   0.08657
 Alpha virt. eigenvalues --    0.09266   0.09916   0.10713   0.10963   0.11493
 Alpha virt. eigenvalues --    0.13015   0.14178   0.14457   0.14663   0.15044

 Mulliken charges:
               1
     1  N   -0.312792
     2  C    0.180146
     3  C    0.060083
     4  N   -0.258352
     5  C    0.134154
     6  H    0.026537
     7  N   -0.287905
     8  C    0.134670
     9  H    0.011773
    10  N   -0.290403
    11  C    0.236484
    12  C    0.107356
    13  N   -0.050353
    14  H    0.110620
    15  H    0.087695
    16  H    0.026463
    17  H    0.031772
    18  H    0.024867
    19  N   -0.302482
    20  C    0.249296
    21  C    0.179824
    22  N   -0.106640
    23  H    0.112157
    24  H    0.114383
    25  N   -0.305942
    26  C    0.227840
    27  N   -0.143855
    28  H    0.124295
    29  C    0.171427
    30  O   -0.323385
    31  C   -0.002195
    32  N   -0.224503
    33  C    0.129677
    34  H    0.020059
    35  H    0.030167
    36  H    0.027070
    37  H    0.022250
    38  H    0.058876
    39  H    0.060009
    40  H    0.069593
    41  H    0.027208
    42  C   -0.116628
    43  O   -0.269593
    44  C    0.167385
    45  H    0.133624
    46  N   -0.121399
    47  O   -0.341677
    48  C    0.340875
    49  H    0.047388
    50  C    0.178489
    51  C    0.039534
    52  N   -0.282060
    53  H    0.034832
    54  H    0.038039
    55  H    0.024560
    56  H    0.126962
    57  H    0.116838
    58  N   -0.058070
    59  C    0.097783
    60  C    0.251098
    61  N   -0.275799
    62  H    0.039896
    63  C    0.157385
    64  N   -0.300579
    65  H    0.035666
    66  C    0.121191
    67  N   -0.258877
    68  C    0.011475
    69  C    0.179685
    70  N   -0.305966
 Sum of Mulliken charges =  -0.00000

 Dipole moment (field-independent basis, Debye):
    X=              7.1261    Y=              6.3423    Z=              2.8456  Tot=              9.9551
 Quadrupole moment (field-independent basis, Debye-Ang):
   XX=           -147.6055   YY=           -223.6108   ZZ=           -255.8431
   XY=              6.3233   XZ=              4.8897   YZ=             -7.6407

 Normal termination of Gaussian 16 at Sun Jan 21 22:51:52 2018.
