 Gaussian 16, Revision A.03,
 Gaussian 16:  EM64L-G16RevA.03 25-Dec-2016

 ---------------------------------------
 #p wb97xd/cc-pvdz sp scf=(maxcycles=20)
 ---------------------------------------

 ------------------
 Base pair stacking
 ------------------
 Symbolic Z-matrix:
 Charge =  0 Multiplicity = 1

                         Standard orientation:
 ---------------------------------------------------------------------
 Center     Atomic      Atomic             Coordinates (Angstroms)
 Number     Number       Type             X           Y           Z
 ---------------------------------------------------------------------
      1          7           0        4.607903   -1.421465   -1.720133
      2          6           0        5.984978   -0.893086   -1.769906
      3          6           0        2.416553   -1.585530   -1.628407
      4          7           0        2.901446   -2.884596   -1.673397
      5          6           0        4.202237   -2.733761   -1.726856
      6          1           0        4.920033   -3.553262   -1.773049
      7          7           0        0.975626    0.279227   -1.531617
      8          6           0        2.077238    1.036122   -1.565255
      9          1           0        1.903872    2.111046   -1.537887
     10          7           0        3.354839    0.666296   -1.627340
     11          6           0        3.456607   -0.672820   -1.656498
     12          6           0        1.111520   -1.064530   -1.562347
     13          7           0        0.013044   -1.821765   -1.528845
     14          1           0        0.066273   -2.820740   -1.549621
     15          1           0       -0.900056   -1.416568   -1.481874
     16          1           0        6.430353   -1.198349   -2.611713
     17          1           0        5.960355    0.105983   -1.750362
     18          1           0        6.501261   -1.227586   -0.981513
     19          7           0        5.195157    1.771123    0.851102
     20          6           0        3.823443    1.707739    0.900366
     21          6           0        5.981814    2.964243    0.479167
     22          7           0        0.726291    3.231534    0.516340
     23          1           0       -0.236425    2.980160    0.612377
     24          1           0        0.924018    4.170342    0.233028
     25          7           0        2.970633    2.716650    0.619526
     26          6           0        1.708717    2.350002    0.756453
     27          7           0        1.310329    1.092061    1.139044
     28          1           0        0.323285    0.900945    1.217721
     29          6           0        2.170362    0.038575    1.432961
     30          8           0        1.707767   -1.058556    1.769197
     31          6           0        3.529444    0.417263    1.290299
     32          7           0        4.693179   -0.314781    1.481981
     33          6           0        5.653266    0.527099    1.210556
     34          1           0        6.717088    0.291724    1.256876
     35          1           0        6.540403    2.760162   -0.324040
     36          1           0        5.360729    3.718119    0.268957
     37          1           0        6.575106    3.224854    1.240020
     38          1           0       -4.719916    0.407132    0.799422
     39          1           0       -4.678204    0.632638    2.546436
     40          1           0       -3.471519    1.418355    1.527636
     41          1           0       -3.332936   -3.975026    2.220518
     42          6           0       -2.909452   -2.980192    2.081988
     43          8           0       -0.659637   -3.730915    2.125169
     44          6           0       -1.487822   -2.825658    2.028095
     45          1           0       -0.059041   -1.377198    1.807009
     46          7           0       -1.057356   -1.526325    1.850098
     47          8           0       -1.364671    0.706130    1.569265
     48          6           0       -1.839169   -0.405421    1.724073
     49          1           0       -4.784884   -1.969631    1.996327
     50          6           0       -3.698101   -1.905810    1.962132
     51          6           0       -4.074976    0.532138    1.656441
     52          7           0       -3.199393   -0.635874    1.786312
     53          1           0       -5.972413    4.070240   -1.343544
     54          1           0       -4.646422    3.903585   -0.407548
     55          1           0       -6.132917    3.745409    0.247729
     56          1           0       -3.493252   -2.915866   -1.680646
     57          1           0       -5.150098   -2.518778   -1.766167
     58          7           0       -4.207939   -2.219822   -1.610660
     59          6           0       -3.918532   -0.949168   -1.322806
     60          6           0       -4.431574    1.337096   -0.908684
     61          7           0       -3.157290    1.709966   -0.704772
     62          1           0       -1.282230    0.882701   -0.684954
     63          6           0       -2.339308    0.667434   -0.834954
     64          7           0       -2.627232   -0.605975   -1.123220
     65          1           0       -7.636788    1.676013   -1.161547
     66          6           0       -6.612451    1.303239   -1.134594
     67          7           0       -6.266531    0.058198   -1.353430
     68          6           0       -4.886308    0.065889   -1.213256
     69          6           0       -5.577990    3.578367   -0.567334
     70          7           0       -5.552182    2.131969   -0.859335
 ---------------------------------------------------------------------

 SCF Done:  E(RwB97XD) =  -2048.70961535     A.U. after   15 cycles

 The electronic state is 1-A.
 Alpha  occ. eigenvalues --  -19.25125 -19.21193 -19.20436 -14.53041 -14.51491
 Alpha  occ. eigenvalues --  -14.48974 -14.48862 -14.48577 -14.47113 -14.46639
 Alpha  occ. eigenvalues --  -14.46467 -14.45931 -14.45027 -14.44732 -14.43142
 Alpha  occ. eigenvalues --  -14.41818 -14.41240 -14.41225 -14.41218 -14.40682
 Alpha  occ. eigenvalues --  -10.44658 -10.41035 -10.40733 -10.39325 -10.38425
 Alpha  occ. eigenvalues --  -10.38033 -10.37748 -10.37035 -10.36427 -10.35931
 Alpha  occ. eigenvalues --  -10.34312 -10.34276 -10.33944 -10.33638 -10.33409
 Alpha  occ. eigenvalues --  -10.33112 -10.33103 -10.33031 -10.31077 -10.30735
 Alpha  occ. eigenvalues --  -10.30369 -10.28667 -10.28029  -1.18847  -1.15886
 Alpha  occ. eigenvalues --   -1.13144  -1.12256  -1.11212  -1.10611  -1.10088
 Alpha  occ. eigenvalues --   -1.08564  -1.08426  -1.05592  -1.05485  -1.01691
 Alpha  occ. eigenvalues --   -1.01515  -1.01009  -0.99644  -0.98481  -0.97664
 Alpha  occ. eigenvalues --   -0.96915  -0.96682  -0.93205  -0.90256  -0.88422
 Alpha  occ. eigenvalues --   -0.86435  -0.84231  -0.83953  -0.82688  -0.82502
 Alpha  occ. eigenvalues --   -0.82326  -0.78117  -0.77682  -0.75555  -0.74616
 Alpha  occ. eigenvalues --   -0.73624  -0.73150  -0.72644  -0.71399  -0.71090
 Alpha  occ. eigenvalues --   -0.67457  -0.67347  -0.66614  -0.65871  -0.64907
 Alpha  occ. eigenvalues --   -0.64233  -0.63554  -0.63071  -0.62530  -0.61791
 Alpha  occ. eigenvalues --   -0.61504  -0.61019  -0.60867  -0.60102  -0.59007
 Alpha  occ. eigenvalues --   -0.58727  -0.58296  -0.57544  -0.56823  -0.56201
 Alpha  occ. eigenvalues --   -0.55895  -0.55825  -0.55594  -0.55028  -0.54250
 Alpha  occ. eigenvalues --   -0.54212  -0.53891  -0.53414  -0.53055  -0.52862
 Alpha  occ. eigenvalues --   -0.51848  -0.51782  -0.51192  -0.50820  -0.50624
 Alpha  occ. eigenvalues --   -0.50076  -0.49833  -0.49678  -0.49166  -0.48998
 Alpha  occ. eigenvalues --   -0.48724  -0.48143  -0.47987  -0.47573  -0.47111
 Alpha  occ. eigenvalues --   -0.46973  -0.45284  -0.45088  -0.44629  -0.42519
 Alpha  occ. eigenvalues --   -0.41497  -0.41233  -0.39035  -0.38329  -0.38241
 Alpha  occ. eigenvalues --   -0.37864  -0.37218  -0.36848  -0.35352  -0.35230
 Alpha  occ. eigenvalues --   -0.34953  -0.34570  -0.33739  -0.33380  -0.32845
 Alpha  occ. eigenvalues --   -0.32418  -0.32336  -0.31792  -0.30871  -0.30791
 Alpha  occ. eigenvalues --   -0.30431  -0.30263  -0.26162  -0.25296
 Alpha virt. eigenvalues --    0.03199   0.03984   0.06071   0.07400   0.08863
 Alpha virt. eigenvalues --    0.09229   0.09696   0.09971   0.10818   0.12275
 Alpha virt. eigenvalues --    0.13125   0.14031   0.14410   0.14495   0.14553

 Mulliken charges:
               1
     1  N   -0.308125
     2  C    0.186484
     3  C    0.068215
     4  N   -0.261902
     5  C    0.146975
     6  H    0.028119
     7  N   -0.279944
     8  C    0.118789
     9  H    0.016912
    10  N   -0.265731
    11  C    0.245624
    12  C    0.075867
    13  N   -0.063889
    14  H    0.110692
    15  H    0.081705
    16  H    0.025145
    17  H    0.025135
    18  H    0.027651
    19  N   -0.299026
    20  C    0.267987
    21  C    0.184476
    22  N   -0.099249
    23  H    0.123705
    24  H    0.117337
    25  N   -0.277145
    26  C    0.152690
    27  N   -0.094043
    28  H    0.117603
    29  C    0.157170
    30  O   -0.319645
    31  C   -0.005359
    32  N   -0.222380
    33  C    0.097239
    34  H    0.021358
    35  H    0.021107
    36  H    0.030784
    37  H    0.024063
    38  H    0.064186
    39  H    0.045683
    40  H    0.081999
    41  H    0.025012
    42  C   -0.111282
    43  O   -0.265849
    44  C    0.176181
    45  H    0.132213
    46  N   -0.125212
    47  O   -0.345185
    48  C    0.340018
    49  H    0.044096
    50  C    0.164427
    51  C    0.049369
    52  N   -0.274833
    53  H    0.035949
    54  H    0.040184
    55  H    0.030881
    56  H    0.120397
    57  H    0.120700
    58  N   -0.062380
    59  C    0.094527
    60  C    0.191064
    61  N   -0.257958
    62  H    0.008623
    63  C    0.187552
    64  N   -0.306008
    65  H    0.039838
    66  C    0.130194
    67  N   -0.246694
    68  C    0.014529
    69  C    0.181296
    70  N   -0.299911
 Sum of Mulliken charges =  -0.00000

 Dipole moment (field-independent basis, Debye):
    X=             -7.1870    Y=              7.1478    Z=             -2.5998  Tot=             10.4644
 Quadrupole moment (field-independent basis, Debye-Ang):
   XX=           -156.4263   YY=           -227.1078   ZZ=           -255.0154
   XY=              2.8082   XZ=            -14.4065   YZ=             15.2801

 Normal termination of Gaussian 16 at Mon Jan 22 12:23:40 2018.
