 Gaussian 16, Revision A.03,
 Gaussian 16:  EM64L-G16RevA.03 25-Dec-2016

 ---------------------------------------
 #p wb97xd/cc-pvdz sp scf=(maxcycles=20)
 ---------------------------------------

 ------------------
 Base pair stacking
 ------------------
 Symbolic Z-matrix:
 Charge =  0 Multiplicity = 1

                         Standard orientation:
 ---------------------------------------------------------------------
 Center     Atomic      Atomic             Coordinates (Angstroms)
 Number     Number       Type             X           Y           Z
 ---------------------------------------------------------------------
      1          7           0        5.197241   -1.611316   -1.431822
      2          6           0        6.569645   -1.091097   -1.586380
      3          6           0        3.006306   -1.779688   -1.338250
      4          7           0        3.504981   -3.043670   -1.058273
      5          6           0        4.804981   -2.891650   -1.125851
      6          1           0        5.531721   -3.687414   -0.959882
      7          7           0        1.545134    0.031812   -1.720893
      8          6           0        2.639538    0.773638   -1.919781
      9          1           0        2.454896    1.820416   -2.157337
     10          7           0        3.921740    0.418222   -1.869524
     11          6           0        4.037480   -0.886271   -1.570633
     12          6           0        1.695076   -1.277069   -1.421835
     13          7           0        0.603816   -2.019215   -1.222942
     14          1           0        0.667465   -2.992457   -0.999386
     15          1           0       -0.314028   -1.627910   -1.290592
     16          1           0        7.034069   -1.585242   -2.321434
     17          1           0        6.534630   -0.117666   -1.810697
     18          1           0        7.074103   -1.216630   -0.732116
     19          7           0        4.616568    2.010878    1.104321
     20          6           0        3.244263    1.941806    1.112059
     21          6           0        5.409126    3.208588    0.760741
     22          7           0        0.153804    3.454673    0.640845
     23          1           0       -0.810319    3.199080    0.706937
     24          1           0        0.356081    4.395371    0.367174
     25          7           0        2.396130    2.948379    0.809540
     26          6           0        1.132191    2.576147    0.907058
     27          7           0        0.727666    1.315130    1.272708
     28          1           0       -0.260495    1.119768    1.320936
     29          6           0        1.582809    0.263965    1.588356
     30          8           0        1.114841   -0.836325    1.906360
     31          6           0        2.944002    0.648647    1.488080
     32          7           0        4.104450   -0.079476    1.711895
     33          6           0        5.068788    0.767302    1.472658
     34          1           0        6.131697    0.536016    1.550068
     35          1           0        5.992443    3.009885   -0.026065
     36          1           0        4.791540    3.960785    0.534817
     37          1           0        5.978187    3.468590    1.540085
     38          1           0       -5.286765    0.607399    0.749269
     39          1           0       -5.298521    0.826225    2.497588
     40          1           0       -4.064999    1.620747    1.518543
     41          1           0       -3.925081   -3.774705    2.194795
     42          6           0       -3.501735   -2.777645    2.072843
     43          8           0       -1.251165   -3.519518    2.180818
     44          6           0       -2.079765   -2.617212    2.062320
     45          1           0       -0.650971   -1.162190    1.889808
     46          7           0       -1.649501   -1.315477    1.902282
     47          8           0       -1.957440    0.916819    1.620816
     48          6           0       -2.431786   -0.197225    1.757059
     49          1           0       -5.377895   -1.774283    1.934656
     50          6           0       -4.290840   -1.705977    1.933408
     51          6           0       -4.668402    0.731616    1.625771
     52          7           0       -3.792316   -0.433364    1.777477
     53          1           0       -5.442932    3.654657   -2.571898
     54          1           0       -4.133462    3.739413   -1.602252
     55          1           0       -5.630550    3.723761   -0.952191
     56          1           0       -2.887777   -3.167732   -1.160638
     57          1           0       -4.546590   -2.827175   -1.366771
     58          7           0       -3.610613   -2.485887   -1.273468
     59          6           0       -3.339537   -1.179337   -1.298518
     60          6           0       -3.883326    1.131429   -1.460926
     61          7           0       -2.616974    1.560950   -1.333283
     62          1           0       -0.734432    0.790319   -1.082781
     63          6           0       -1.786237    0.529884   -1.192943
     64          7           0       -2.055787   -0.779412   -1.167599
     65          1           0       -7.086364    1.352645   -1.840145
     66          6           0       -6.059048    1.012350   -1.706900
     67          7           0       -5.696519   -0.243456   -1.610907
     68          6           0       -4.319376   -0.182099   -1.454612
     69          6           0       -5.058508    3.371759   -1.693165
     70          7           0       -5.012593    1.898274   -1.624328
 ---------------------------------------------------------------------

 SCF Done:  E(RwB97XD) =  -2048.75234576     A.U. after   15 cycles

 The electronic state is 1-A.
 Alpha  occ. eigenvalues --  -19.25421 -19.21706 -19.20474 -14.52720 -14.52068
 Alpha  occ. eigenvalues --  -14.48670 -14.48488 -14.48416 -14.47424 -14.46685
 Alpha  occ. eigenvalues --  -14.46462 -14.45726 -14.44536 -14.44468 -14.42518
 Alpha  occ. eigenvalues --  -14.41904 -14.41083 -14.40982 -14.40951 -14.40400
 Alpha  occ. eigenvalues --  -10.45049 -10.41101 -10.40221 -10.39793 -10.38224
 Alpha  occ. eigenvalues --  -10.38100 -10.37426 -10.37424 -10.36071 -10.35532
 Alpha  occ. eigenvalues --  -10.34616 -10.34258 -10.34125 -10.33828 -10.33389
 Alpha  occ. eigenvalues --  -10.33234 -10.33094 -10.32865 -10.30934 -10.30790
 Alpha  occ. eigenvalues --  -10.30775 -10.28399 -10.28026  -1.19081  -1.15481
 Alpha  occ. eigenvalues --   -1.13051  -1.12709  -1.11086  -1.10478  -1.09545
 Alpha  occ. eigenvalues --   -1.08955  -1.08410  -1.05110  -1.05014  -1.02093
 Alpha  occ. eigenvalues --   -1.01235  -1.00518  -0.99554  -0.98425  -0.97122
 Alpha  occ. eigenvalues --   -0.96741  -0.96509  -0.92794  -0.90702  -0.87872
 Alpha  occ. eigenvalues --   -0.86137  -0.84027  -0.83804  -0.83232  -0.82393
 Alpha  occ. eigenvalues --   -0.82236  -0.78522  -0.77278  -0.75081  -0.74514
 Alpha  occ. eigenvalues --   -0.73480  -0.72980  -0.72875  -0.71028  -0.70631
 Alpha  occ. eigenvalues --   -0.67248  -0.67036  -0.66292  -0.66174  -0.64485
 Alpha  occ. eigenvalues --   -0.64247  -0.63585  -0.62732  -0.62524  -0.61649
 Alpha  occ. eigenvalues --   -0.61021  -0.60713  -0.60505  -0.59641  -0.59197
 Alpha  occ. eigenvalues --   -0.58872  -0.58186  -0.56818  -0.56556  -0.56017
 Alpha  occ. eigenvalues --   -0.55735  -0.55644  -0.55415  -0.54310  -0.53993
 Alpha  occ. eigenvalues --   -0.53872  -0.53585  -0.53418  -0.53159  -0.52997
 Alpha  occ. eigenvalues --   -0.52834  -0.52102  -0.51729  -0.50594  -0.50298
 Alpha  occ. eigenvalues --   -0.50085  -0.49973  -0.49186  -0.49117  -0.48843
 Alpha  occ. eigenvalues --   -0.48670  -0.48414  -0.48201  -0.47553  -0.47154
 Alpha  occ. eigenvalues --   -0.46882  -0.45848  -0.45072  -0.44595  -0.43110
 Alpha  occ. eigenvalues --   -0.41033  -0.40963  -0.39102  -0.37959  -0.37849
 Alpha  occ. eigenvalues --   -0.37321  -0.37183  -0.37003  -0.35868  -0.34942
 Alpha  occ. eigenvalues --   -0.34532  -0.33965  -0.33451  -0.33229  -0.32923
 Alpha  occ. eigenvalues --   -0.32578  -0.32341  -0.32096  -0.31790  -0.30798
 Alpha  occ. eigenvalues --   -0.30487  -0.29694  -0.25754  -0.25411
 Alpha virt. eigenvalues --    0.03273   0.03823   0.06547   0.07947   0.09147
 Alpha virt. eigenvalues --    0.09277   0.09808   0.10204   0.11007   0.12359
 Alpha virt. eigenvalues --    0.12683   0.14072   0.14374   0.14497   0.14816

 Mulliken charges:
               1
     1  N   -0.309655
     2  C    0.178800
     3  C    0.063958
     4  N   -0.259416
     5  C    0.142446
     6  H    0.026611
     7  N   -0.290922
     8  C    0.132367
     9  H    0.012563
    10  N   -0.285078
    11  C    0.246752
    12  C    0.087060
    13  N   -0.052452
    14  H    0.111835
    15  H    0.082678
    16  H    0.025894
    17  H    0.029151
    18  H    0.025462
    19  N   -0.299431
    20  C    0.253696
    21  C    0.182802
    22  N   -0.117852
    23  H    0.117504
    24  H    0.116510
    25  N   -0.305882
    26  C    0.238237
    27  N   -0.136050
    28  H    0.113626
    29  C    0.184348
    30  O   -0.322491
    31  C   -0.017426
    32  N   -0.222617
    33  C    0.117150
    34  H    0.018117
    35  H    0.026974
    36  H    0.028883
    37  H    0.022460
    38  H    0.058997
    39  H    0.058329
    40  H    0.074739
    41  H    0.024769
    42  C   -0.105636
    43  O   -0.267111
    44  C    0.168640
    45  H    0.130314
    46  N   -0.117788
    47  O   -0.339860
    48  C    0.336329
    49  H    0.045471
    50  C    0.162824
    51  C    0.043728
    52  N   -0.276987
    53  H    0.035312
    54  H    0.038835
    55  H    0.028115
    56  H    0.123625
    57  H    0.116487
    58  N   -0.054859
    59  C    0.091502
    60  C    0.220836
    61  N   -0.266006
    62  H    0.027818
    63  C    0.170138
    64  N   -0.306810
    65  H    0.037141
    66  C    0.122171
    67  N   -0.253399
    68  C    0.020464
    69  C    0.182394
    70  N   -0.297133
 Sum of Mulliken charges =  -0.00000

 Dipole moment (field-independent basis, Debye):
    X=             -7.2146    Y=              6.8323    Z=             -2.3634  Tot=             10.2136
 Quadrupole moment (field-independent basis, Debye-Ang):
   XX=           -152.6012   YY=           -223.7282   ZZ=           -256.0752
   XY=             -2.3061   XZ=             -7.0898   YZ=             10.2622

 Normal termination of Gaussian 16 at Mon Jan 22 15:06:48 2018.
