 Gaussian 16, Revision A.03,
 Gaussian 16:  EM64L-G16RevA.03 25-Dec-2016

 ---------------------------------------
 #p wb97xd/cc-pvdz sp scf=(maxcycles=20)
 ---------------------------------------

 ------------------
 Base pair stacking
 ------------------
 Symbolic Z-matrix:
 Charge =  0 Multiplicity = 1

                         Standard orientation:
 ---------------------------------------------------------------------
 Center     Atomic      Atomic             Coordinates (Angstroms)
 Number     Number       Type             X           Y           Z
 ---------------------------------------------------------------------
      1          7           0       -6.934841   -1.290250    0.266625
      2          6           0       -8.289879   -0.705670    0.278540
      3          6           0       -4.765812   -1.585058    0.480413
      4          7           0       -5.270950   -2.773715   -0.026192
      5          6           0       -6.557498   -2.548532   -0.134720
      6          1           0       -7.284453   -3.271925   -0.505099
      7          7           0       -3.302339    0.073357    1.299476
      8          6           0       -4.380016    0.854828    1.423969
      9          1           0       -4.187898    1.853026    1.815070
     10          7           0       -5.653391    0.589624    1.139222
     11          6           0       -5.779521   -0.661243    0.666084
     12          6           0       -3.462390   -1.179681    0.820545
     13          7           0       -2.387839   -1.961264    0.695544
     14          1           0       -2.459438   -2.895864    0.345390
     15          1           0       -1.475101   -1.639439    0.947509
     16          1           0       -8.884716   -1.251575    0.868735
     17          1           0       -8.246624    0.230858    0.625201
     18          1           0       -8.660335   -0.698700   -0.650280
     19          7           0       -2.691259    2.351357   -1.643346
     20          6           0       -1.342558    2.191620   -1.434671
     21          6           0       -3.437674    3.614206   -1.473710
     22          7           0        1.741577    3.518733   -0.546618
     23          1           0        2.683307    3.197159   -0.451907
     24          1           0        1.568901    4.483059   -0.344185
     25          7           0       -0.479558    3.153751   -1.042753
     26          6           0        0.753978    2.694606   -0.927901
     27          7           0        1.116710    1.393179   -1.177307
     28          1           0        2.083794    1.130921   -1.063536
     29          6           0        0.245558    0.386425   -1.581557
     30          8           0        0.675250   -0.756658   -1.780227
     31          6           0       -1.083344    0.864527   -1.709300
     32          7           0       -2.245910    0.204392   -2.082873
     33          6           0       -3.171244    1.123690   -2.029467
     34          1           0       -4.223872    0.959481   -2.262457
     35          1           0       -4.147145    3.493412   -0.780264
     36          1           0       -2.808727    4.334243   -1.183502
     37          1           0       -3.860685    3.872463   -2.341572
     38          1           0        6.913158    0.316925    0.302997
     39          1           0        7.207490    0.448107   -1.429283
     40          1           0        5.900138    1.369529   -0.685537
     41          1           0        5.472794   -4.031701   -1.167170
     42          6           0        5.109490   -3.004088   -1.151080
     43          8           0        2.853807   -3.600315   -1.579506
     44          6           0        3.718071   -2.749893   -1.368254
     45          1           0        2.389395   -1.197067   -1.476428
     46          7           0        3.364306   -1.416318   -1.327375
     47          8           0        3.787302    0.801961   -1.087524
     48          6           0        4.194543   -0.346307   -1.105281
     49          1           0        7.010554   -2.121077   -0.761185
     50          6           0        5.943940   -1.981241   -0.931828
     51          6           0        6.446506    0.438337   -0.663214
     52          7           0        5.521406   -0.672396   -0.904518
     53          1           0        3.623303    3.122472    3.627728
     54          1           0        2.485842    3.402294    2.491946
     55          1           0        4.063643    3.367603    2.075488
     56          1           0        1.015910   -3.313613    1.011634
     57          1           0        2.635984   -3.105150    1.503581
     58          7           0        1.742183   -2.696703    1.315102
     59          6           0        1.529324   -1.387423    1.462221
     60          6           0        2.144171    0.849604    1.990774
     61          7           0        0.933647    1.370421    1.730378
     62          1           0       -0.919580    0.755023    1.107929
     63          6           0        0.089531    0.417426    1.340289
     64          7           0        0.300817   -0.894451    1.192319
     65          1           0        5.255805    0.821805    2.867787
     66          6           0        4.247540    0.565109    2.541514
     67          7           0        3.848491   -0.645481    2.236696
     68          6           0        2.516602   -0.479224    1.885755
     69          6           0        3.368045    2.968697    2.673154
     70          7           0        3.267450    1.519128    2.415021
 ---------------------------------------------------------------------

 SCF Done:  E(RwB97XD) =  -2048.74644839     A.U. after   15 cycles

 The electronic state is 1-A.
 Alpha  occ. eigenvalues --  -19.26006 -19.22163 -19.20664 -14.52487 -14.51444
 Alpha  occ. eigenvalues --  -14.49263 -14.48696 -14.47976 -14.46963 -14.46858
 Alpha  occ. eigenvalues --  -14.46477 -14.44470 -14.42824 -14.42781 -14.42460
 Alpha  occ. eigenvalues --  -14.42115 -14.41911 -14.41417 -14.40771 -14.40580
 Alpha  occ. eigenvalues --  -10.45605 -10.41302 -10.40258 -10.38454 -10.38283
 Alpha  occ. eigenvalues --  -10.37828 -10.37053 -10.35942 -10.35818 -10.35553
 Alpha  occ. eigenvalues --  -10.34566 -10.34383 -10.34383 -10.33872 -10.33564
 Alpha  occ. eigenvalues --  -10.33379 -10.33221 -10.31410 -10.31386 -10.31101
 Alpha  occ. eigenvalues --  -10.30678 -10.29030 -10.28155  -1.19539  -1.14107
 Alpha  occ. eigenvalues --   -1.13276  -1.13177  -1.11851  -1.10569  -1.09388
 Alpha  occ. eigenvalues --   -1.08657  -1.07789  -1.05419  -1.03353  -1.02604
 Alpha  occ. eigenvalues --   -1.00830  -0.99995  -0.99841  -0.98567  -0.97410
 Alpha  occ. eigenvalues --   -0.96521  -0.95392  -0.93055  -0.91095  -0.86545
 Alpha  occ. eigenvalues --   -0.85022  -0.84413  -0.84103  -0.83832  -0.82764
 Alpha  occ. eigenvalues --   -0.82412  -0.78937  -0.75799  -0.74641  -0.73774
 Alpha  occ. eigenvalues --   -0.73508  -0.73452  -0.73329  -0.71516  -0.69186
 Alpha  occ. eigenvalues --   -0.67475  -0.66725  -0.66632  -0.65520  -0.64535
 Alpha  occ. eigenvalues --   -0.63802  -0.63216  -0.62918  -0.62730  -0.61845
 Alpha  occ. eigenvalues --   -0.60588  -0.59918  -0.59590  -0.59347  -0.58908
 Alpha  occ. eigenvalues --   -0.58488  -0.58419  -0.56909  -0.56875  -0.56596
 Alpha  occ. eigenvalues --   -0.56080  -0.55741  -0.54720  -0.54469  -0.54312
 Alpha  occ. eigenvalues --   -0.53680  -0.53535  -0.52957  -0.52770  -0.52650
 Alpha  occ. eigenvalues --   -0.52323  -0.52140  -0.51718  -0.51227  -0.50612
 Alpha  occ. eigenvalues --   -0.50185  -0.49554  -0.49501  -0.48958  -0.48803
 Alpha  occ. eigenvalues --   -0.48630  -0.48286  -0.47804  -0.47707  -0.47456
 Alpha  occ. eigenvalues --   -0.47403  -0.45474  -0.45365  -0.44095  -0.43228
 Alpha  occ. eigenvalues --   -0.41646  -0.39602  -0.39564  -0.37645  -0.37351
 Alpha  occ. eigenvalues --   -0.37271  -0.36530  -0.36345  -0.35898  -0.34519
 Alpha  occ. eigenvalues --   -0.34006  -0.33946  -0.33348  -0.33213  -0.32839
 Alpha  occ. eigenvalues --   -0.32688  -0.32322  -0.32068  -0.31870  -0.31422
 Alpha  occ. eigenvalues --   -0.30789  -0.28531  -0.26233  -0.25497
 Alpha virt. eigenvalues --    0.03031   0.05030   0.07515   0.08061   0.08559
 Alpha virt. eigenvalues --    0.09265   0.09592   0.10466   0.11074   0.11857
 Alpha virt. eigenvalues --    0.12754   0.13649   0.14436   0.14661   0.15313

 Mulliken charges:
               1
     1  N   -0.311291
     2  C    0.180621
     3  C    0.037636
     4  N   -0.257226
     5  C    0.132783
     6  H    0.027886
     7  N   -0.284318
     8  C    0.125459
     9  H    0.014009
    10  N   -0.289806
    11  C    0.234591
    12  C    0.114853
    13  N   -0.048151
    14  H    0.108564
    15  H    0.088874
    16  H    0.026901
    17  H    0.034699
    18  H    0.025712
    19  N   -0.306838
    20  C    0.240031
    21  C    0.180499
    22  N   -0.114851
    23  H    0.112224
    24  H    0.116834
    25  N   -0.299184
    26  C    0.232828
    27  N   -0.124214
    28  H    0.118490
    29  C    0.148146
    30  O   -0.320639
    31  C    0.006475
    32  N   -0.223116
    33  C    0.128137
    34  H    0.028636
    35  H    0.031423
    36  H    0.027431
    37  H    0.023567
    38  H    0.057968
    39  H    0.062152
    40  H    0.070935
    41  H    0.030370
    42  C   -0.110266
    43  O   -0.273645
    44  C    0.167470
    45  H    0.137872
    46  N   -0.131679
    47  O   -0.352451
    48  C    0.358925
    49  H    0.047771
    50  C    0.181304
    51  C    0.039929
    52  N   -0.290485
    53  H    0.033478
    54  H    0.038165
    55  H    0.020017
    56  H    0.123634
    57  H    0.117728
    58  N   -0.051435
    59  C    0.112265
    60  C    0.234672
    61  N   -0.263298
    62  H    0.049627
    63  C    0.152728
    64  N   -0.299863
    65  H    0.027775
    66  C    0.126247
    67  N   -0.262458
    68  C    0.011597
    69  C    0.174057
    70  N   -0.308780
 Sum of Mulliken charges =  -0.00000

 Dipole moment (field-independent basis, Debye):
    X=              6.9645    Y=              6.0325    Z=              2.6328  Tot=              9.5827
 Quadrupole moment (field-independent basis, Debye-Ang):
   XX=           -141.9209   YY=           -224.3295   ZZ=           -253.0313
   XY=              9.4307   XZ=             14.4078   YZ=             -6.6933

 Normal termination of Gaussian 16 at Mon Jan 22 16:51:58 2018.
