 Gaussian 16, Revision A.03,
 Gaussian 16:  EM64L-G16RevA.03 25-Dec-2016

 ---------------------------------------
 #p wb97xd/cc-pvdz sp scf=(maxcycles=20)
 ---------------------------------------

 ------------------
 Base pair stacking
 ------------------
 Symbolic Z-matrix:
 Charge =  0 Multiplicity = 1

                         Standard orientation:
 ---------------------------------------------------------------------
 Center     Atomic      Atomic             Coordinates (Angstroms)
 Number     Number       Type             X           Y           Z
 ---------------------------------------------------------------------
      1          7           0       -6.433200   -1.545134    0.441990
      2          6           0       -7.803914   -1.064797    0.703539
      3          6           0       -4.245816   -1.774636    0.440532
      4          7           0       -4.741987   -2.779288   -0.377526
      5          6           0       -6.039948   -2.600808   -0.343906
      6          1           0       -6.764392   -3.215818   -0.878594
      7          7           0       -2.789530   -0.366439    1.648492
      8          6           0       -3.883004    0.281973    2.062541
      9          1           0       -3.700054    1.123660    2.729144
     10          7           0       -5.162541    0.047866    1.778125
     11          6           0       -5.276384   -1.005879    0.952848
     12          6           0       -2.937496   -1.422308    0.818827
     13          7           0       -1.847166   -2.070840    0.404426
     14          1           0       -1.909429   -2.857973   -0.210205
     15          1           0       -0.931403   -1.792183    0.694037
     16          1           0       -8.338799   -1.794716    1.129327
     17          1           0       -7.770221   -0.276286    1.316924
     18          1           0       -8.235429   -0.796707   -0.157808
     19          7           0       -3.244409    2.660047   -1.331635
     20          6           0       -1.884200    2.495378   -1.227846
     21          6           0       -3.978973    3.905341   -1.031061
     22          7           0        1.252508    3.781984   -0.474585
     23          1           0        2.199019    3.460581   -0.466132
     24          1           0        1.093010    4.730643   -0.200138
     25          7           0       -0.997326    3.435964   -0.836972
     26          6           0        0.241879    2.977717   -0.837474
     27          7           0        0.588181    1.696685   -1.193195
     28          1           0        1.561219    1.433447   -1.163797
     29          6           0       -0.307631    0.712281   -1.598587
     30          8           0        0.108774   -0.413516   -1.898466
     31          6           0       -1.642886    1.189711   -1.603086
     32          7           0       -2.827760    0.547600   -1.935768
     33          6           0       -3.748429    1.456296   -1.760151
     34          1           0       -4.814521    1.300926   -1.929227
     35          1           0       -4.638108    3.737044   -0.298927
     36          1           0       -3.332323    4.609366   -0.740451
     37          1           0       -4.461917    4.215194   -1.849333
     38          1           0        6.475378    0.563321   -0.190826
     39          1           0        6.647848    0.804890   -1.927655
     40          1           0        5.394294    1.670066   -1.038017
     41          1           0        4.942095   -3.692577   -1.828809
     42          6           0        4.579334   -2.670147   -1.722630
     43          8           0        2.300101   -3.251412   -2.029809
     44          6           0        3.175778   -2.410930   -1.825949
     45          1           0        1.840583   -0.862147   -1.743116
     46          7           0        2.823825   -1.084643   -1.676425
     47          8           0        3.259358    1.116588   -1.327009
     48          6           0        3.666009   -0.025895   -1.445538
     49          1           0        6.501721   -1.802321   -1.411019
     50          6           0        5.425593   -1.658262   -1.497842
     51          6           0        5.942224    0.742525   -1.112619
     52          7           0        5.004119   -0.356209   -1.358601
     53          1           0        4.165719    2.199657    4.427347
     54          1           0        2.946102    2.749113    3.493141
     55          1           0        4.492908    2.926402    3.003187
     56          1           0        1.614990   -3.271738    0.111888
     57          1           0        3.256020   -3.135853    0.557627
     58          7           0        2.338008   -2.737830    0.550459
     59          6           0        2.090064   -1.547870    1.101537
     60          6           0        2.660684    0.453585    2.254923
     61          7           0        1.418139    0.963410    2.230452
     62          1           0       -0.449935    0.467380    1.548646
     63          6           0        0.583524    0.129639    1.613080
     64          7           0        0.829930   -1.062626    1.060473
     65          1           0        5.822896    0.327653    2.915742
     66          6           0        4.804668    0.128370    2.580425
     67          7           0        4.428487   -0.952594    1.941905
     68          6           0        3.071210   -0.759211    1.729456
     69          6           0        3.852948    2.328736    3.486327
     70          7           0        3.785788    1.022166    2.803419
 ---------------------------------------------------------------------

 SCF Done:  E(RwB97XD) =  -2048.73954629     A.U. after   15 cycles

 The electronic state is 1-A.
 Alpha  occ. eigenvalues --  -19.26154 -19.22396 -19.20865 -14.52710 -14.51595
 Alpha  occ. eigenvalues --  -14.48866 -14.48705 -14.48120 -14.47185 -14.46958
 Alpha  occ. eigenvalues --  -14.46090 -14.44716 -14.43145 -14.42995 -14.42230
 Alpha  occ. eigenvalues --  -14.41871 -14.41278 -14.40955 -14.40801 -14.40021
 Alpha  occ. eigenvalues --  -10.45793 -10.41461 -10.40736 -10.38534 -10.38445
 Alpha  occ. eigenvalues --  -10.38215 -10.37206 -10.36169 -10.35479 -10.35199
 Alpha  occ. eigenvalues --  -10.34684 -10.34499 -10.33957 -10.33400 -10.33301
 Alpha  occ. eigenvalues --  -10.33230 -10.32971 -10.31593 -10.31352 -10.31019
 Alpha  occ. eigenvalues --  -10.30897 -10.28359 -10.28263  -1.19736  -1.14289
 Alpha  occ. eigenvalues --   -1.13749  -1.13419  -1.11251  -1.10726  -1.09612
 Alpha  occ. eigenvalues --   -1.08796  -1.07963  -1.04823  -1.03536  -1.02881
 Alpha  occ. eigenvalues --   -1.00217  -1.00043  -1.00005  -0.98736  -0.96837
 Alpha  occ. eigenvalues --   -0.96693  -0.95580  -0.92463  -0.91398  -0.86674
 Alpha  occ. eigenvalues --   -0.85081  -0.84238  -0.83921  -0.83857  -0.82581
 Alpha  occ. eigenvalues --   -0.82234  -0.79233  -0.75948  -0.74786  -0.73899
 Alpha  occ. eigenvalues --   -0.73728  -0.73689  -0.72744  -0.70910  -0.69324
 Alpha  occ. eigenvalues --   -0.67603  -0.66906  -0.66136  -0.65652  -0.64772
 Alpha  occ. eigenvalues --   -0.63979  -0.63129  -0.62874  -0.62515  -0.61948
 Alpha  occ. eigenvalues --   -0.60222  -0.60075  -0.59800  -0.59402  -0.58790
 Alpha  occ. eigenvalues --   -0.58617  -0.58489  -0.56698  -0.56402  -0.56373
 Alpha  occ. eigenvalues --   -0.56255  -0.55200  -0.54801  -0.54721  -0.54381
 Alpha  occ. eigenvalues --   -0.53870  -0.53657  -0.53134  -0.52790  -0.52755
 Alpha  occ. eigenvalues --   -0.52615  -0.51836  -0.51692  -0.50696  -0.50405
 Alpha  occ. eigenvalues --   -0.50097  -0.49803  -0.49591  -0.49199  -0.49169
 Alpha  occ. eigenvalues --   -0.48515  -0.48496  -0.47887  -0.47694  -0.47479
 Alpha  occ. eigenvalues --   -0.46840  -0.45615  -0.44911  -0.44391  -0.43204
 Alpha  occ. eigenvalues --   -0.41014  -0.39757  -0.39722  -0.37450  -0.37409
 Alpha  occ. eigenvalues --   -0.37033  -0.36524  -0.36397  -0.36283  -0.34414
 Alpha  occ. eigenvalues --   -0.33864  -0.33827  -0.33372  -0.33320  -0.33048
 Alpha  occ. eigenvalues --   -0.32847  -0.32506  -0.32402  -0.31999  -0.30821
 Alpha  occ. eigenvalues --   -0.30250  -0.28683  -0.25664  -0.25512
 Alpha virt. eigenvalues --    0.02452   0.05157   0.07446   0.08166   0.08850
 Alpha virt. eigenvalues --    0.08940   0.09583   0.11091   0.11208   0.12009
 Alpha virt. eigenvalues --    0.13004   0.14075   0.14588   0.14646   0.15890

 Mulliken charges:
               1
     1  N   -0.311575
     2  C    0.180555
     3  C    0.049139
     4  N   -0.255677
     5  C    0.130697
     6  H    0.025457
     7  N   -0.292305
     8  C    0.131868
     9  H    0.011216
    10  N   -0.291785
    11  C    0.232893
    12  C    0.110034
    13  N   -0.045816
    14  H    0.111623
    15  H    0.093005
    16  H    0.026021
    17  H    0.033611
    18  H    0.023360
    19  N   -0.311262
    20  C    0.254049
    21  C    0.180283
    22  N   -0.121734
    23  H    0.113500
    24  H    0.117894
    25  N   -0.309783
    26  C    0.246678
    27  N   -0.144321
    28  H    0.117131
    29  C    0.180360
    30  O   -0.324142
    31  C   -0.005256
    32  N   -0.224846
    33  C    0.131954
    34  H    0.025888
    35  H    0.032115
    36  H    0.028489
    37  H    0.023892
    38  H    0.058765
    39  H    0.060810
    40  H    0.072486
    41  H    0.029950
    42  C   -0.114818
    43  O   -0.285043
    44  C    0.133483
    45  H    0.138461
    46  N   -0.112027
    47  O   -0.347721
    48  C    0.351465
    49  H    0.049722
    50  C    0.194016
    51  C    0.041495
    52  N   -0.284475
    53  H    0.032455
    54  H    0.042054
    55  H    0.022705
    56  H    0.131469
    57  H    0.111033
    58  N   -0.037469
    59  C    0.093331
    60  C    0.248438
    61  N   -0.274368
    62  H    0.035620
    63  C    0.166903
    64  N   -0.301221
    65  H    0.031012
    66  C    0.128271
    67  N   -0.263369
    68  C    0.004298
    69  C    0.180131
    70  N   -0.311070
 Sum of Mulliken charges =  -0.00000

 Dipole moment (field-independent basis, Debye):
    X=              7.6127    Y=              6.4538    Z=              2.1696  Tot=             10.2134
 Quadrupole moment (field-independent basis, Debye-Ang):
   XX=           -145.5624   YY=           -223.2887   ZZ=           -252.0070
   XY=              4.5886   XZ=              9.6437   YZ=             -1.0652

 Normal termination of Gaussian 16 at Mon Jan 22 11:00:34 2018.
