 Gaussian 16, Revision A.03,
 Gaussian 16:  EM64L-G16RevA.03 25-Dec-2016

 ---------------------------------------
 #p wb97xd/cc-pvdz sp scf=(maxcycles=20)
 ---------------------------------------

 ------------------
 Base pair stacking
 ------------------
 Symbolic Z-matrix:
 Charge =  0 Multiplicity = 1

                         Standard orientation:
 ---------------------------------------------------------------------
 Center     Atomic      Atomic             Coordinates (Angstroms)
 Number     Number       Type             X           Y           Z
 ---------------------------------------------------------------------
      1          7           0        4.570265   -1.694639   -1.778173
      2          6           0        5.934562   -1.209168   -2.062805
      3          6           0        2.390944   -1.815311   -1.507351
      4          7           0        2.889560   -3.074854   -1.207922
      5          6           0        4.182566   -2.951742   -1.383071
      6          1           0        4.907134   -3.753324   -1.236793
      7          7           0        0.933715    0.005395   -1.860094
      8          6           0        2.021002    0.715674   -2.177733
      9          1           0        1.835240    1.754008   -2.449055
     10          7           0        3.297309    0.337670   -2.210371
     11          6           0        3.415041   -0.953905   -1.860542
     12          6           0        1.085482   -1.291240   -1.512557
     13          7           0        0.001324   -2.001894   -1.195150
     14          1           0        0.066575   -2.965021   -0.931839
     15          1           0       -0.912572   -1.596036   -1.209738
     16          1           0        6.331968   -1.745283   -2.807670
     17          1           0        5.897794   -0.246434   -2.329108
     18          1           0        6.502267   -1.305665   -1.245249
     19          7           0        5.217689    1.918892    0.821707
     20          6           0        3.848457    1.875795    0.928477
     21          6           0        6.008871    3.113249    0.463588
     22          7           0        0.765501    3.463969    0.741727
     23          1           0       -0.196542    3.224538    0.869762
     24          1           0        0.967651    4.410185    0.487740
     25          7           0        3.002588    2.908989    0.725802
     26          6           0        1.741369    2.557583    0.903154
     27          7           0        1.337324    1.291746    1.252296
     28          1           0        0.351323    1.113619    1.366461
     29          6           0        2.190164    0.213367    1.465926
     30          8           0        1.722877   -0.888887    1.778033
     31          6           0        3.548415    0.575467    1.279069
     32          7           0        4.705997   -0.182537    1.390175
     33          6           0        5.668446    0.654012    1.110760
     34          1           0        6.728881    0.399734    1.100983
     35          1           0        6.528529    2.932973   -0.370831
     36          1           0        5.392939    3.885022    0.311083
     37          1           0        6.639016    3.333042    1.207502
     38          1           0       -4.713293    0.719051    1.150235
     39          1           0       -4.592197    0.872597    2.901352
     40          1           0       -3.416667    1.679438    1.862836
     41          1           0       -3.345242   -3.739206    2.333027
     42          6           0       -2.910329   -2.746550    2.215911
     43          8           0       -0.674597   -3.534778    2.130423
     44          6           0       -1.489795   -2.613011    2.105972
     45          1           0       -0.046096   -1.180120    1.880492
     46          7           0       -1.044139   -1.314669    1.961306
     47          8           0       -1.323127    0.932060    1.783594
     48          6           0       -1.810393   -0.177032    1.914546
     49          1           0       -4.769255   -1.703074    2.252963
     50          6           0       -3.683985   -1.655540    2.173744
     51          6           0       -4.029829    0.798614    1.982471
     52          7           0       -3.170597   -0.387756    2.027079
     53          1           0       -6.040179    3.723005   -2.335972
     54          1           0       -4.657611    3.825900   -1.475740
     55          1           0       -6.099254    3.869369   -0.711629
     56          1           0       -3.492743   -3.077265   -0.808757
     57          1           0       -5.156885   -2.713761   -0.901489
     58          7           0       -4.211101   -2.387117   -0.897070
     59          6           0       -3.921785   -1.088667   -1.004252
     60          6           0       -4.439279    1.222609   -1.232147
     61          7           0       -3.160051    1.632409   -1.223281
     62          1           0       -1.276343    0.836967   -1.083542
     63          6           0       -2.337615    0.592611   -1.099560
     64          7           0       -2.625448   -0.708614   -0.992073
     65          1           0       -7.658185    1.489522   -1.372013
     66          6           0       -6.629208    1.135433   -1.302968
     67          7           0       -6.280584   -0.121624   -1.176604
     68          6           0       -4.894611   -0.080411   -1.130521
     69          6           0       -5.592739    3.472821   -1.477374
     70          7           0       -5.565351    2.003365   -1.343330
 ---------------------------------------------------------------------

 SCF Done:  E(RwB97XD) =  -2048.75007945     A.U. after   15 cycles

 The electronic state is 1-A.
 Alpha  occ. eigenvalues --  -19.25385 -19.21537 -19.20589 -14.52721 -14.51884
 Alpha  occ. eigenvalues --  -14.49069 -14.48644 -14.48228 -14.47296 -14.46805
 Alpha  occ. eigenvalues --  -14.46672 -14.45646 -14.44822 -14.44702 -14.42686
 Alpha  occ. eigenvalues --  -14.42059 -14.41360 -14.40972 -14.40822 -14.40513
 Alpha  occ. eigenvalues --  -10.44952 -10.41255 -10.40422 -10.39651 -10.38247
 Alpha  occ. eigenvalues --  -10.38205 -10.37551 -10.37397 -10.36252 -10.35591
 Alpha  occ. eigenvalues --  -10.34528 -10.34340 -10.34040 -10.33761 -10.33590
 Alpha  occ. eigenvalues --  -10.33110 -10.33108 -10.33031 -10.31175 -10.30620
 Alpha  occ. eigenvalues --  -10.30500 -10.28342 -10.28289  -1.18936  -1.15504
 Alpha  occ. eigenvalues --   -1.13235  -1.12555  -1.10876  -1.10785  -1.09793
 Alpha  occ. eigenvalues --   -1.08780  -1.08565  -1.05253  -1.05127  -1.01939
 Alpha  occ. eigenvalues --   -1.01232  -1.00563  -0.99747  -0.98630  -0.97324
 Alpha  occ. eigenvalues --   -0.96831  -0.96546  -0.92837  -0.90580  -0.87983
 Alpha  occ. eigenvalues --   -0.86137  -0.84334  -0.83623  -0.83038  -0.82701
 Alpha  occ. eigenvalues --   -0.81998  -0.78405  -0.77389  -0.75208  -0.74772
 Alpha  occ. eigenvalues --   -0.73666  -0.72859  -0.72796  -0.70986  -0.70740
 Alpha  occ. eigenvalues --   -0.67464  -0.67162  -0.66207  -0.66077  -0.64564
 Alpha  occ. eigenvalues --   -0.64401  -0.63565  -0.62669  -0.62656  -0.61870
 Alpha  occ. eigenvalues --   -0.60943  -0.60667  -0.60479  -0.59684  -0.59139
 Alpha  occ. eigenvalues --   -0.58951  -0.58390  -0.56990  -0.56489  -0.55791
 Alpha  occ. eigenvalues --   -0.55748  -0.55648  -0.55426  -0.54651  -0.54138
 Alpha  occ. eigenvalues --   -0.53894  -0.53677  -0.53431  -0.53113  -0.53037
 Alpha  occ. eigenvalues --   -0.52389  -0.51861  -0.51484  -0.50476  -0.50326
 Alpha  occ. eigenvalues --   -0.50208  -0.49955  -0.49560  -0.49159  -0.48873
 Alpha  occ. eigenvalues --   -0.48793  -0.48248  -0.48040  -0.47938  -0.47175
 Alpha  occ. eigenvalues --   -0.46784  -0.45742  -0.45598  -0.44732  -0.42939
 Alpha  occ. eigenvalues --   -0.41201  -0.41001  -0.39069  -0.38150  -0.37944
 Alpha  occ. eigenvalues --   -0.37449  -0.37350  -0.36951  -0.35563  -0.35129
 Alpha  occ. eigenvalues --   -0.34723  -0.34111  -0.33370  -0.33351  -0.32968
 Alpha  occ. eigenvalues --   -0.32623  -0.32575  -0.31942  -0.31549  -0.30628
 Alpha  occ. eigenvalues --   -0.30444  -0.30228  -0.25826  -0.25623
 Alpha virt. eigenvalues --    0.03264   0.03795   0.06410   0.08010   0.08878
 Alpha virt. eigenvalues --    0.09158   0.09720   0.10285   0.10981   0.11978
 Alpha virt. eigenvalues --    0.13244   0.14023   0.14334   0.14677   0.14702

 Mulliken charges:
               1
     1  N   -0.306374
     2  C    0.181422
     3  C    0.059108
     4  N   -0.257413
     5  C    0.149417
     6  H    0.027510
     7  N   -0.292129
     8  C    0.125188
     9  H    0.011483
    10  N   -0.279050
    11  C    0.245869
    12  C    0.083845
    13  N   -0.063771
    14  H    0.115508
    15  H    0.084159
    16  H    0.024007
    17  H    0.028484
    18  H    0.025431
    19  N   -0.308413
    20  C    0.266251
    21  C    0.182818
    22  N   -0.122814
    23  H    0.121011
    24  H    0.118081
    25  N   -0.309600
    26  C    0.240427
    27  N   -0.135918
    28  H    0.119192
    29  C    0.185091
    30  O   -0.320625
    31  C   -0.016293
    32  N   -0.227332
    33  C    0.113760
    34  H    0.022564
    35  H    0.025567
    36  H    0.030999
    37  H    0.024537
    38  H    0.067807
    39  H    0.056880
    40  H    0.075325
    41  H    0.022432
    42  C   -0.115386
    43  O   -0.267317
    44  C    0.171341
    45  H    0.132125
    46  N   -0.124171
    47  O   -0.348774
    48  C    0.348615
    49  H    0.043201
    50  C    0.167888
    51  C    0.039883
    52  N   -0.276338
    53  H    0.034774
    54  H    0.040991
    55  H    0.029436
    56  H    0.122028
    57  H    0.117786
    58  N   -0.057869
    59  C    0.091481
    60  C    0.219435
    61  N   -0.262568
    62  H    0.027226
    63  C    0.173369
    64  N   -0.311555
    65  H    0.039469
    66  C    0.134478
    67  N   -0.254108
    68  C    0.012160
    69  C    0.181088
    70  N   -0.303128
 Sum of Mulliken charges =  -0.00000

 Dipole moment (field-independent basis, Debye):
    X=             -7.2478    Y=              7.2908    Z=             -1.4598  Tot=             10.3835
 Quadrupole moment (field-independent basis, Debye-Ang):
   XX=           -156.0917   YY=           -223.6803   ZZ=           -253.6714
   XY=              0.9279   XZ=            -13.8282   YZ=              9.9337

 Normal termination of Gaussian 16 at Mon Jan 22 00:13:46 2018.
