 Gaussian 16, Revision A.03,
 Gaussian 16:  EM64L-G16RevA.03 25-Dec-2016

 ---------------------------------------
 #p wb97xd/cc-pvdz sp scf=(maxcycles=20)
 ---------------------------------------

 ------------------
 Base pair stacking
 ------------------
 Symbolic Z-matrix:
 Charge =  0 Multiplicity = 1

                         Standard orientation:
 ---------------------------------------------------------------------
 Center     Atomic      Atomic             Coordinates (Angstroms)
 Number     Number       Type             X           Y           Z
 ---------------------------------------------------------------------
      1          7           0       -6.869323   -1.258487    0.329620
      2          6           0       -8.206257   -0.659507    0.151170
      3          6           0       -4.714739   -1.537844    0.671731
      4          7           0       -5.245045   -2.805618    0.481311
      5          6           0       -6.521879   -2.586577    0.282826
      6          1           0       -7.262637   -3.364529    0.095751
      7          7           0       -3.218886    0.242553    1.066142
      8          6           0       -4.274983    1.054488    0.952096
      9          1           0       -4.060912    2.115578    1.072618
     10          7           0       -5.549821    0.753891    0.712649
     11          6           0       -5.703869   -0.574034    0.581076
     12          6           0       -3.406795   -1.088185    0.928621
     13          7           0       -2.353814   -1.900292    1.042117
     14          1           0       -2.446357   -2.892129    0.947649
     15          1           0       -1.437040   -1.545181    1.225352
     16          1           0       -8.828731   -1.016744    0.847645
     17          1           0       -8.141914    0.333938    0.240995
     18          1           0       -8.557850   -0.888327   -0.756585
     19          7           0       -2.805745    2.111280   -1.594044
     20          6           0       -1.458985    1.977175   -1.356759
     21          6           0       -3.594191    3.339352   -1.368498
     22          7           0        1.558603    3.333256   -0.299903
     23          1           0        2.506689    3.033249   -0.198036
     24          1           0        1.351538    4.277755   -0.043463
     25          7           0       -0.636284    2.937050   -0.881511
     26          6           0        0.606960    2.506849   -0.759618
     27          7           0        1.015362    1.234364   -1.078204
     28          1           0        1.986476    0.993076   -0.952941
     29          6           0        0.186201    0.230497   -1.568735
     30          8           0        0.655361   -0.885276   -1.825015
     31          6           0       -1.152556    0.677724   -1.705077
     32          7           0       -2.284173    0.009476   -2.152052
     33          6           0       -3.237895    0.896990   -2.068814
     34          1           0       -4.278407    0.717831   -2.341785
     35          1           0       -4.318201    3.155388   -0.704582
     36          1           0       -2.995310    4.057431   -1.016408
     37          1           0       -4.001159    3.639213   -2.230635
     38          1           0        6.799427    0.232759    0.499683
     39          1           0        7.136449    0.480204   -1.211991
     40          1           0        5.782271    1.315861   -0.450916
     41          1           0        5.531054   -4.054675   -1.276755
     42          6           0        5.136649   -3.040807   -1.207844
     43          8           0        2.912389   -3.672914   -1.737165
     44          6           0        3.744593   -2.813153   -1.449014
     45          1           0        2.373153   -1.294953   -1.499567
     46          7           0        3.349826   -1.495315   -1.336236
     47          8           0        3.699154    0.714758   -0.947962
     48          6           0        4.141138   -0.418126   -1.024709
     49          1           0        6.999006   -2.130249   -0.709529
     50          6           0        5.933673   -2.010371   -0.901946
     51          6           0        6.355646    0.400989   -0.470275
     52          7           0        5.471301   -0.718310   -0.806209
     53          1           0        3.747265    3.632155    2.698796
     54          1           0        2.641429    3.630195    1.499119
     55          1           0        4.225429    3.449914    1.149095
     56          1           0        1.001055   -3.201920    1.793700
     57          1           0        2.616569   -2.909749    2.257245
     58          7           0        1.739288   -2.544262    1.944154
     59          6           0        1.562772   -1.237729    1.736779
     60          6           0        2.233613    1.044388    1.676253
     61          7           0        1.044600    1.506827    1.255760
     62          1           0       -0.813489    0.793334    0.766810
     63          6           0        0.180270    0.505000    1.106759
     64          7           0        0.355146   -0.804224    1.313946
     65          1           0        5.325023    1.174718    2.613473
     66          6           0        4.316205    0.865143    2.338907
     67          7           0        3.887273   -0.373217    2.351749
     68          6           0        2.568161   -0.273695    1.933667
     69          6           0        3.506507    3.238812    1.811493
     70          7           0        3.367765    1.775180    1.940120
 ---------------------------------------------------------------------

 SCF Done:  E(RwB97XD) =  -2048.68426595     A.U. after   15 cycles

 The electronic state is 1-A.
 Alpha  occ. eigenvalues --  -19.25969 -19.21907 -19.20512 -14.52436 -14.51778
 Alpha  occ. eigenvalues --  -14.49560 -14.48519 -14.47882 -14.47113 -14.46199
 Alpha  occ. eigenvalues --  -14.45889 -14.44770 -14.43329 -14.42955 -14.42219
 Alpha  occ. eigenvalues --  -14.42212 -14.42057 -14.41877 -14.40922 -14.40631
 Alpha  occ. eigenvalues --  -10.45550 -10.41041 -10.40036 -10.38888 -10.38059
 Alpha  occ. eigenvalues --  -10.37713 -10.37383 -10.36255 -10.36232 -10.35595
 Alpha  occ. eigenvalues --  -10.34861 -10.34675 -10.34227 -10.34219 -10.33973
 Alpha  occ. eigenvalues --  -10.33885 -10.33048 -10.31680 -10.31612 -10.31007
 Alpha  occ. eigenvalues --  -10.30444 -10.29382 -10.28004  -1.19533  -1.14590
 Alpha  occ. eigenvalues --   -1.13272  -1.12953  -1.12161  -1.10444  -1.09331
 Alpha  occ. eigenvalues --   -1.08801  -1.08112  -1.05814  -1.03830  -1.02492
 Alpha  occ. eigenvalues --   -1.01271  -1.00622  -0.99591  -0.98491  -0.97736
 Alpha  occ. eigenvalues --   -0.96457  -0.95830  -0.93468  -0.91013  -0.87112
 Alpha  occ. eigenvalues --   -0.85719  -0.84748  -0.83970  -0.83816  -0.83070
 Alpha  occ. eigenvalues --   -0.82288  -0.78850  -0.76348  -0.74798  -0.74049
 Alpha  occ. eigenvalues --   -0.73723  -0.73532  -0.73363  -0.71939  -0.69791
 Alpha  occ. eigenvalues --   -0.67455  -0.67110  -0.66568  -0.66165  -0.64440
 Alpha  occ. eigenvalues --   -0.63756  -0.63688  -0.63429  -0.62808  -0.61906
 Alpha  occ. eigenvalues --   -0.61016  -0.60415  -0.59895  -0.59495  -0.59382
 Alpha  occ. eigenvalues --   -0.58957  -0.58043  -0.57587  -0.57135  -0.56959
 Alpha  occ. eigenvalues --   -0.56163  -0.55955  -0.55595  -0.54712  -0.54358
 Alpha  occ. eigenvalues --   -0.53907  -0.53520  -0.53103  -0.52764  -0.52615
 Alpha  occ. eigenvalues --   -0.52500  -0.52371  -0.51872  -0.51530  -0.50897
 Alpha  occ. eigenvalues --   -0.49991  -0.49864  -0.49427  -0.49264  -0.48639
 Alpha  occ. eigenvalues --   -0.48562  -0.48258  -0.48138  -0.47765  -0.47530
 Alpha  occ. eigenvalues --   -0.47308  -0.45858  -0.45645  -0.43939  -0.42867
 Alpha  occ. eigenvalues --   -0.42035  -0.40027  -0.39558  -0.38042  -0.37469
 Alpha  occ. eigenvalues --   -0.37209  -0.36995  -0.36227  -0.35766  -0.34723
 Alpha  occ. eigenvalues --   -0.34355  -0.34249  -0.33351  -0.33105  -0.32587
 Alpha  occ. eigenvalues --   -0.32321  -0.31912  -0.31842  -0.31749  -0.31543
 Alpha  occ. eigenvalues --   -0.31092  -0.28069  -0.26622  -0.25357
 Alpha virt. eigenvalues --    0.03203   0.04420   0.07146   0.07784   0.08710
 Alpha virt. eigenvalues --    0.09123   0.09404   0.10093   0.11301   0.11944
 Alpha virt. eigenvalues --    0.12997   0.13487   0.14402   0.14454   0.14660

 Mulliken charges:
               1
     1  N   -0.312320
     2  C    0.180473
     3  C    0.043199
     4  N   -0.258733
     5  C    0.134521
     6  H    0.029154
     7  N   -0.276361
     8  C    0.117305
     9  H    0.018009
    10  N   -0.287959
    11  C    0.236315
    12  C    0.112815
    13  N   -0.051955
    14  H    0.107557
    15  H    0.087820
    16  H    0.027378
    17  H    0.034219
    18  H    0.027299
    19  N   -0.297451
    20  C    0.225858
    21  C    0.178525
    22  N   -0.079484
    23  H    0.095346
    24  H    0.117421
    25  N   -0.279024
    26  C    0.198231
    27  N   -0.109666
    28  H    0.122004
    29  C    0.126802
    30  O   -0.318735
    31  C    0.023123
    32  N   -0.219932
    33  C    0.118422
    34  H    0.027470
    35  H    0.025976
    36  H    0.026151
    37  H    0.023325
    38  H    0.058446
    39  H    0.063867
    40  H    0.069926
    41  H    0.031064
    42  C   -0.112588
    43  O   -0.266091
    44  C    0.179443
    45  H    0.135895
    46  N   -0.135600
    47  O   -0.350640
    48  C    0.360906
    49  H    0.047163
    50  C    0.176868
    51  C    0.037472
    52  N   -0.291162
    53  H    0.035603
    54  H    0.016890
    55  H    0.029885
    56  H    0.120708
    57  H    0.117724
    58  N   -0.067725
    59  C    0.121873
    60  C    0.230659
    61  N   -0.278159
    62  H    0.066655
    63  C    0.161566
    64  N   -0.301348
    65  H    0.028347
    66  C    0.121342
    67  N   -0.258094
    68  C    0.010763
    69  C    0.170673
    70  N   -0.305425
 Sum of Mulliken charges =  -0.00000

 Dipole moment (field-independent basis, Debye):
    X=              6.2817    Y=              5.7954    Z=              3.7807  Tot=              9.3456
 Quadrupole moment (field-independent basis, Debye-Ang):
   XX=           -142.0569   YY=           -227.0271   ZZ=           -255.7538
   XY=             10.8767   XZ=             12.7452   YZ=            -10.9858

 Normal termination of Gaussian 16 at Mon Jan 22 07:52:15 2018.
