 Gaussian 16, Revision A.03,
 Gaussian 16:  EM64L-G16RevA.03 25-Dec-2016

 ---------------------------------------
 #p wb97xd/cc-pvdz sp scf=(maxcycles=20)
 ---------------------------------------

 ------------------
 Base pair stacking
 ------------------
 Symbolic Z-matrix:
 Charge =  0 Multiplicity = 1

                         Standard orientation:
 ---------------------------------------------------------------------
 Center     Atomic      Atomic             Coordinates (Angstroms)
 Number     Number       Type             X           Y           Z
 ---------------------------------------------------------------------
      1          7           0       -6.694949   -1.401976    0.351602
      2          6           0       -8.061087   -0.866010    0.507817
      3          6           0       -4.514206   -1.671637    0.446435
      4          7           0       -5.010165   -2.762802   -0.252223
      5          6           0       -6.304124   -2.556673   -0.281393
      6          1           0       -7.027212   -3.220902   -0.755606
      7          7           0       -3.060442   -0.148924    1.509850
      8          6           0       -4.149955    0.567859    1.804427
      9          1           0       -3.966508    1.484086    2.364010
     10          7           0       -5.426046    0.323925    1.512918
     11          6           0       -5.540835   -0.824182    0.825082
     12          6           0       -3.209270   -1.299023    0.816886
     13          7           0       -2.122898   -2.015908    0.521879
     14          1           0       -2.185946   -2.873719    0.010601
     15          1           0       -1.209465   -1.720155    0.801723
     16          1           0       -8.624264   -1.525230    1.006266
     17          1           0       -8.026531   -0.006449    1.016823
     18          1           0       -8.462069   -0.701850   -0.393436
     19          7           0       -2.948072    2.537830   -1.525511
     20          6           0       -1.593468    2.368506   -1.369164
     21          6           0       -3.681396    3.800803   -1.306813
     22          7           0        1.527727    3.666235   -0.571813
     23          1           0        2.470651    3.338884   -0.517227
     24          1           0        1.367442    4.627631   -0.346527
     25          7           0       -0.711875    3.319805   -0.992511
     26          6           0        0.522700    2.853279   -0.930873
     27          7           0        0.869495    1.554816   -1.215890
     28          1           0        1.838747    1.286338   -1.142171
     29          6           0       -0.020930    0.559145   -1.605323
     30          8           0        0.395427   -0.582178   -1.839365
     31          6           0       -1.351170    1.045282   -1.676031
     32          7           0       -2.529936    0.396919   -2.018140
     33          6           0       -3.448045    1.319229   -1.914983
     34          1           0       -4.509304    1.163770   -2.112077
     35          1           0       -4.365646    3.671049   -0.590041
     36          1           0       -3.038624    4.512878   -1.027416
     37          1           0       -4.134518    4.076065   -2.154005
     38          1           0        6.710631    0.427227    0.032306
     39          1           0        6.942140    0.587372   -1.707070
     40          1           0        5.667510    1.501416   -0.900100
     41          1           0        5.195534   -3.888616   -1.459178
     42          6           0        4.838265   -2.859850   -1.412012
     43          8           0        2.565449   -3.438516   -1.767798
     44          6           0        3.441146   -2.595747   -1.573650
     45          1           0        2.117275   -1.035408   -1.606207
     46          7           0        3.095858   -1.261540   -1.496773
     47          8           0        3.538554    0.950308   -1.234208
     48          6           0        3.939057   -0.199253   -1.286741
     49          1           0        6.756753   -1.992207   -1.076770
     50          6           0        5.685336   -1.844687   -1.205798
     51          6           0        6.209606    0.567574   -0.913930
     52          7           0        5.270708   -0.534667   -1.140374
     53          1           0        3.871210    2.617213    4.152381
     54          1           0        2.691137    3.066187    3.118962
     55          1           0        4.254713    3.149825    2.658170
     56          1           0        1.317676   -3.310406    0.490648
     57          1           0        2.948251   -3.150198    0.965672
     58          7           0        2.040157   -2.738835    0.879831
     59          6           0        1.804203   -1.483742    1.267423
     60          6           0        2.387999    0.637274    2.174191
     61          7           0        1.158635    1.163503    2.047032
     62          1           0       -0.700489    0.620367    1.376749
     63          6           0        0.322761    0.273886    1.515263
     64          7           0        0.557165   -0.983657    1.126399
     65          1           0        5.526761    0.536173    2.942387
     66          6           0        4.514019    0.315259    2.604016
     67          7           0        4.131203   -0.830950    2.096740
     68          6           0        2.785202   -0.640315    1.819890
     69          6           0        3.587950    2.631090    3.193442
     70          7           0        3.510030    1.249561    2.680288
 ---------------------------------------------------------------------

 SCF Done:  E(RwB97XD) =  -2048.74610756     A.U. after   15 cycles

 The electronic state is 1-A.
 Alpha  occ. eigenvalues --  -19.26094 -19.22359 -19.20793 -14.52620 -14.51446
 Alpha  occ. eigenvalues --  -14.48949 -14.48794 -14.48123 -14.47095 -14.46955
 Alpha  occ. eigenvalues --  -14.46182 -14.44534 -14.42926 -14.42789 -14.42187
 Alpha  occ. eigenvalues --  -14.42088 -14.41563 -14.41046 -14.40876 -14.40232
 Alpha  occ. eigenvalues --  -10.45717 -10.41408 -10.40499 -10.38387 -10.38386
 Alpha  occ. eigenvalues --  -10.38038 -10.37057 -10.35975 -10.35529 -10.35446
 Alpha  occ. eigenvalues --  -10.34474 -10.34460 -10.34226 -10.33506 -10.33317
 Alpha  occ. eigenvalues --  -10.33257 -10.33205 -10.31406 -10.31253 -10.31176
 Alpha  occ. eigenvalues --  -10.30804 -10.28645 -10.28223  -1.19654  -1.14117
 Alpha  occ. eigenvalues --   -1.13480  -1.13367  -1.11514  -1.10664  -1.09514
 Alpha  occ. eigenvalues --   -1.08744  -1.07771  -1.05057  -1.03337  -1.02782
 Alpha  occ. eigenvalues --   -1.00460  -0.99980  -0.99881  -0.98676  -0.97083
 Alpha  occ. eigenvalues --   -0.96622  -0.95376  -0.92693  -0.91256  -0.86518
 Alpha  occ. eigenvalues --   -0.84961  -0.84182  -0.84091  -0.83893  -0.82511
 Alpha  occ. eigenvalues --   -0.82458  -0.79098  -0.75771  -0.74722  -0.73844
 Alpha  occ. eigenvalues --   -0.73618  -0.73519  -0.72984  -0.71156  -0.69139
 Alpha  occ. eigenvalues --   -0.67550  -0.66789  -0.66379  -0.65492  -0.64676
 Alpha  occ. eigenvalues --   -0.63907  -0.63005  -0.62822  -0.62695  -0.61899
 Alpha  occ. eigenvalues --   -0.60275  -0.60023  -0.59725  -0.59271  -0.58744
 Alpha  occ. eigenvalues --   -0.58573  -0.58373  -0.56693  -0.56597  -0.56528
 Alpha  occ. eigenvalues --   -0.56185  -0.55408  -0.54638  -0.54575  -0.54273
 Alpha  occ. eigenvalues --   -0.53794  -0.53597  -0.53058  -0.52731  -0.52709
 Alpha  occ. eigenvalues --   -0.52436  -0.51883  -0.51684  -0.50920  -0.50323
 Alpha  occ. eigenvalues --   -0.50304  -0.49701  -0.49288  -0.49245  -0.49054
 Alpha  occ. eigenvalues --   -0.48516  -0.48406  -0.47873  -0.47660  -0.47511
 Alpha  occ. eigenvalues --   -0.47069  -0.45473  -0.45141  -0.44288  -0.43233
 Alpha  occ. eigenvalues --   -0.41279  -0.39658  -0.39607  -0.37407  -0.37336
 Alpha  occ. eigenvalues --   -0.37287  -0.36461  -0.36389  -0.36089  -0.34427
 Alpha  occ. eigenvalues --   -0.33756  -0.33625  -0.33591  -0.33352  -0.32862
 Alpha  occ. eigenvalues --   -0.32832  -0.32415  -0.32288  -0.31938  -0.31078
 Alpha  occ. eigenvalues --   -0.30459  -0.28498  -0.25879  -0.25542
 Alpha virt. eigenvalues --    0.02712   0.05205   0.07812   0.07909   0.08740
 Alpha virt. eigenvalues --    0.09117   0.09591   0.10871   0.11161   0.11877
 Alpha virt. eigenvalues --    0.12818   0.13888   0.14538   0.14623   0.15818

 Mulliken charges:
               1
     1  N   -0.311159
     2  C    0.180574
     3  C    0.042489
     4  N   -0.256336
     5  C    0.131284
     6  H    0.026466
     7  N   -0.289082
     8  C    0.129775
     9  H    0.012066
    10  N   -0.290887
    11  C    0.232708
    12  C    0.113700
    13  N   -0.046770
    14  H    0.110009
    15  H    0.090708
    16  H    0.026420
    17  H    0.034166
    18  H    0.024392
    19  N   -0.310366
    20  C    0.251530
    21  C    0.180335
    22  N   -0.120776
    23  H    0.112521
    24  H    0.117356
    25  N   -0.307181
    26  C    0.244349
    27  N   -0.136592
    28  H    0.116027
    29  C    0.167350
    30  O   -0.322326
    31  C   -0.000136
    32  N   -0.224601
    33  C    0.129956
    34  H    0.027555
    35  H    0.032396
    36  H    0.028058
    37  H    0.023706
    38  H    0.058187
    39  H    0.061486
    40  H    0.072037
    41  H    0.029797
    42  C   -0.111216
    43  O   -0.280185
    44  C    0.150190
    45  H    0.138442
    46  N   -0.122545
    47  O   -0.350510
    48  C    0.356030
    49  H    0.048798
    50  C    0.188347
    51  C    0.040965
    52  N   -0.286973
    53  H    0.032391
    54  H    0.041351
    55  H    0.021074
    56  H    0.127978
    57  H    0.114719
    58  N   -0.039028
    59  C    0.098069
    60  C    0.243615
    61  N   -0.271701
    62  H    0.038630
    63  C    0.164227
    64  N   -0.300652
    65  H    0.029271
    66  C    0.127097
    67  N   -0.262667
    68  C    0.005221
    69  C    0.179356
    70  N   -0.311487
 Sum of Mulliken charges =  -0.00000

 Dipole moment (field-independent basis, Debye):
    X=              7.4235    Y=              6.2371    Z=              2.1868  Tot=              9.9394
 Quadrupole moment (field-independent basis, Debye-Ang):
   XX=           -143.7822   YY=           -223.4192   ZZ=           -252.3077
   XY=              6.4916   XZ=             12.2748   YZ=             -3.4649

 Normal termination of Gaussian 16 at Mon Jan 22 07:28:50 2018.
