 Gaussian 16, Revision A.03,
 Gaussian 16:  EM64L-G16RevA.03 25-Dec-2016

 ---------------------------------------
 #p wb97xd/cc-pvdz sp scf=(maxcycles=20)
 ---------------------------------------

 ------------------
 Base pair stacking
 ------------------
 Symbolic Z-matrix:
 Charge =  0 Multiplicity = 1

                         Standard orientation:
 ---------------------------------------------------------------------
 Center     Atomic      Atomic             Coordinates (Angstroms)
 Number     Number       Type             X           Y           Z
 ---------------------------------------------------------------------
      1          7           0       -7.099184   -1.213313    0.194515
      2          6           0       -8.424107   -0.613027   -0.054984
      3          6           0       -4.956465   -1.492683    0.604416
      4          7           0       -5.498423   -2.764502    0.488287
      5          6           0       -6.767642   -2.545292    0.245979
      6          1           0       -7.513867   -3.325885    0.095085
      7          7           0       -3.447304    0.293675    0.911507
      8          6           0       -4.490214    1.107662    0.718287
      9          1           0       -4.265442    2.172042    0.771430
     10          7           0       -5.763117    0.805667    0.470438
     11          6           0       -5.931027   -0.526337    0.425759
     12          6           0       -3.648957   -1.041169    0.860312
     13          7           0       -2.609147   -1.855334    1.052924
     14          1           0       -2.712141   -2.850202    1.023872
     15          1           0       -1.692261   -1.498795    1.232748
     16          1           0       -9.066408   -0.915035    0.649576
     17          1           0       -8.349187    0.383444   -0.031325
     18          1           0       -8.758270   -0.899243   -0.952982
     19          7           0       -2.553935    2.067886   -1.586861
     20          6           0       -1.212716    1.932050   -1.320888
     21          6           0       -3.349073    3.291841   -1.362373
     22          7           0        1.778121    3.276800   -0.177100
     23          1           0        2.724082    2.976495   -0.057851
     24          1           0        1.563922    4.217427    0.087570
     25          7           0       -0.402420    2.886191   -0.813869
     26          6           0        0.838371    2.455752   -0.669683
     27          7           0        1.255737    1.188253   -0.996423
     28          1           0        2.224097    0.946359   -0.852468
     29          6           0        0.439383    0.190335   -1.519487
     30          8           0        0.915850   -0.921264   -1.780399
     31          6           0       -0.896580    0.637893   -1.680051
     32          7           0       -2.016783   -0.025403   -2.161810
     33          6           0       -2.973435    0.859794   -2.088036
     34          1           0       -4.007218    0.683262   -2.387036
     35          1           0       -4.087705    3.097904   -0.717699
     36          1           0       -2.759372    4.005660   -0.986895
     37          1           0       -3.736777    3.603133   -2.229327
     38          1           0        7.003907    0.171471    0.698577
     39          1           0        7.379362    0.442941   -1.001418
     40          1           0        6.007037    1.266466   -0.259867
     41          1           0        5.782409   -4.092416   -1.165211
     42          6           0        5.385071   -3.080049   -1.091304
     43          8           0        3.174320   -3.707298   -1.679727
     44          6           0        3.998521   -2.850655   -1.360894
     45          1           0        2.626396   -1.333450   -1.421673
     46          7           0        3.599399   -1.534950   -1.238947
     47          8           0        3.936614    0.669935   -0.812390
     48          6           0        4.381868   -0.461276   -0.894687
     49          1           0        7.234315   -2.174365   -0.538263
     50          6           0        6.173447   -2.053044   -0.753188
     51          6           0        6.582028    0.352595   -0.278809
     52          7           0        5.707162   -0.762956   -0.650163
     53          1           0        3.523193    3.708848    2.470682
     54          1           0        2.444396    3.637474    1.248710
     55          1           0        4.033382    3.416133    0.948365
     56          1           0        0.711383   -3.140006    1.968324
     57          1           0        2.319745   -2.834941    2.448122
     58          7           0        1.454356   -2.481881    2.090790
     59          6           0        1.299085   -1.190640    1.791217
     60          6           0        1.999992    1.074436    1.591457
     61          7           0        0.826591    1.520361    1.113224
     62          1           0       -1.029045    0.795958    0.631076
     63          6           0       -0.046833    0.520406    1.012651
     64          7           0        0.106766   -0.773520    1.312175
     65          1           0        5.071166    1.233888    2.588760
     66          6           0        4.064872    0.917578    2.312619
     67          7           0        3.620091   -0.312172    2.399570
     68          6           0        2.311985   -0.226688    1.945371
     69          6           0        3.297281    3.258673    1.606797
     70          7           0        3.137161    1.808843    1.831224
 ---------------------------------------------------------------------

 SCF Done:  E(RwB97XD) =  -2048.58935190     A.U. after   15 cycles

 The electronic state is 1-A.
 Alpha  occ. eigenvalues --  -19.25985 -19.21880 -19.20295 -14.52483 -14.51996
 Alpha  occ. eigenvalues --  -14.49765 -14.48401 -14.47847 -14.47218 -14.45453
 Alpha  occ. eigenvalues --  -14.45438 -14.44862 -14.43458 -14.43204 -14.42651
 Alpha  occ. eigenvalues --  -14.42445 -14.42115 -14.41436 -14.41205 -14.40530
 Alpha  occ. eigenvalues --  -10.45572 -10.41489 -10.40009 -10.38978 -10.37846
 Alpha  occ. eigenvalues --  -10.37726 -10.37464 -10.36487 -10.36367 -10.35689
 Alpha  occ. eigenvalues --  -10.35091 -10.34468 -10.34405 -10.34182 -10.34130
 Alpha  occ. eigenvalues --  -10.32973 -10.32822 -10.31938 -10.31738 -10.31026
 Alpha  occ. eigenvalues --  -10.30335 -10.29646 -10.27821  -1.19555  -1.15187
 Alpha  occ. eigenvalues --   -1.13308  -1.12928  -1.12385  -1.10365  -1.09369
 Alpha  occ. eigenvalues --   -1.09261  -1.08322  -1.06083  -1.03980  -1.02489
 Alpha  occ. eigenvalues --   -1.02024  -1.01521  -0.99525  -0.98362  -0.97953
 Alpha  occ. eigenvalues --   -0.96508  -0.95965  -0.93736  -0.91038  -0.87664
 Alpha  occ. eigenvalues --   -0.86283  -0.84978  -0.83907  -0.83776  -0.83271
 Alpha  occ. eigenvalues --   -0.82293  -0.78874  -0.76659  -0.75133  -0.74420
 Alpha  occ. eigenvalues --   -0.73984  -0.73638  -0.73351  -0.72220  -0.69949
 Alpha  occ. eigenvalues --   -0.68081  -0.67349  -0.66667  -0.66440  -0.64459
 Alpha  occ. eigenvalues --   -0.63997  -0.63848  -0.63637  -0.63073  -0.62550
 Alpha  occ. eigenvalues --   -0.61288  -0.60737  -0.60188  -0.59786  -0.59496
 Alpha  occ. eigenvalues --   -0.59098  -0.58790  -0.57693  -0.57282  -0.57174
 Alpha  occ. eigenvalues --   -0.56676  -0.56022  -0.55612  -0.54415  -0.54296
 Alpha  occ. eigenvalues --   -0.53870  -0.53469  -0.53160  -0.52752  -0.52712
 Alpha  occ. eigenvalues --   -0.52562  -0.52389  -0.51736  -0.51545  -0.51001
 Alpha  occ. eigenvalues --   -0.50062  -0.49891  -0.49697  -0.49413  -0.48771
 Alpha  occ. eigenvalues --   -0.48502  -0.48309  -0.48056  -0.47712  -0.47327
 Alpha  occ. eigenvalues --   -0.47121  -0.46008  -0.45508  -0.43987  -0.42539
 Alpha  occ. eigenvalues --   -0.42273  -0.39603  -0.39338  -0.38253  -0.37376
 Alpha  occ. eigenvalues --   -0.37121  -0.36988  -0.36223  -0.35789  -0.35379
 Alpha  occ. eigenvalues --   -0.34556  -0.34501  -0.33063  -0.32814  -0.32496
 Alpha  occ. eigenvalues --   -0.32190  -0.31951  -0.31877  -0.31623  -0.31539
 Alpha  occ. eigenvalues --   -0.31202  -0.27755  -0.26879  -0.24843
 Alpha virt. eigenvalues --    0.03212   0.03916   0.06874   0.07470   0.08308
 Alpha virt. eigenvalues --    0.09044   0.09670   0.09834   0.11503   0.12537
 Alpha virt. eigenvalues --    0.12917   0.13305   0.14218   0.14329   0.14964

 Mulliken charges:
               1
     1  N   -0.312604
     2  C    0.180562
     3  C    0.038424
     4  N   -0.258940
     5  C    0.135348
     6  H    0.030057
     7  N   -0.275145
     8  C    0.106325
     9  H    0.025506
    10  N   -0.284863
    11  C    0.240316
    12  C    0.112971
    13  N   -0.052451
    14  H    0.107147
    15  H    0.087880
    16  H    0.027611
    17  H    0.035195
    18  H    0.027934
    19  N   -0.295974
    20  C    0.209536
    21  C    0.184734
    22  N   -0.065972
    23  H    0.077130
    24  H    0.109746
    25  N   -0.263547
    26  C    0.190243
    27  N   -0.104658
    28  H    0.125166
    29  C    0.126659
    30  O   -0.320740
    31  C    0.008803
    32  N   -0.218603
    33  C    0.121397
    34  H    0.027947
    35  H    0.017542
    36  H    0.025539
    37  H    0.023170
    38  H    0.059877
    39  H    0.063941
    40  H    0.069266
    41  H    0.031667
    42  C   -0.110172
    43  O   -0.265040
    44  C    0.181427
    45  H    0.134370
    46  N   -0.137097
    47  O   -0.352093
    48  C    0.365502
    49  H    0.047108
    50  C    0.174023
    51  C    0.036494
    52  N   -0.294155
    53  H    0.023221
    54  H    0.002499
    55  H    0.014294
    56  H    0.119518
    57  H    0.118436
    58  N   -0.068810
    59  C    0.128120
    60  C    0.228769
    61  N   -0.268702
    62  H    0.084403
    63  C    0.148141
    64  N   -0.300297
    65  H    0.027356
    66  C    0.129964
    67  N   -0.259069
    68  C    0.018443
    69  C    0.214104
    70  N   -0.314900
 Sum of Mulliken charges =  -0.00000

 Dipole moment (field-independent basis, Debye):
    X=              5.9110    Y=              5.5279    Z=              4.3099  Tot=              9.1691
 Quadrupole moment (field-independent basis, Debye-Ang):
   XX=           -140.1867   YY=           -228.5909   ZZ=           -255.7455
   XY=             12.0152   XZ=             14.7994   YZ=            -11.9687

 Normal termination of Gaussian 16 at Mon Jan 22 12:58:08 2018.
