 Gaussian 16, Revision A.03,
 Gaussian 16:  EM64L-G16RevA.03 25-Dec-2016

 ---------------------------------------
 #p wb97xd/cc-pvdz sp scf=(maxcycles=20)
 ---------------------------------------

 ------------------
 Base pair stacking
 ------------------
 Symbolic Z-matrix:
 Charge =  0 Multiplicity = 1

                         Standard orientation:
 ---------------------------------------------------------------------
 Center     Atomic      Atomic             Coordinates (Angstroms)
 Number     Number       Type             X           Y           Z
 ---------------------------------------------------------------------
      1          7           0       -6.344192   -1.354841    0.668320
      2          6           0       -7.695824   -0.773303    0.554666
      3          6           0       -4.173093   -1.606768    0.913622
      4          7           0       -4.693479   -2.879955    0.732165
      5          6           0       -5.980660   -2.677223    0.591645
      6          1           0       -6.717951   -3.463731    0.428133
      7          7           0       -2.686432    0.190696    1.262781
      8          6           0       -3.757681    0.988503    1.203692
      9          1           0       -3.553361    2.051228    1.326706
     10          7           0       -5.037422    0.672150    1.016346
     11          6           0       -5.178548   -0.656387    0.876703
     12          6           0       -2.861593   -1.141081    1.118621
     13          7           0       -1.793468   -1.939105    1.177305
     14          1           0       -1.876231   -2.931113    1.075828
     15          1           0       -0.874633   -1.572802    1.324615
     16          1           0       -8.282401   -1.146819    1.273416
     17          1           0       -7.641473    0.219954    0.652750
     18          1           0       -8.083332   -0.997541   -0.339503
     19          7           0       -3.400425    2.081490   -1.504257
     20          6           0       -2.042891    1.964287   -1.327060
     21          6           0       -4.195343    3.295639   -1.231023
     22          7           0        0.998627    3.352378   -0.386789
     23          1           0        1.954326    3.064997   -0.329462
     24          1           0        0.789784    4.291036   -0.111064
     25          7           0       -1.213746    2.930817   -0.877176
     26          6           0        0.039492    2.517274   -0.814074
     27          7           0        0.451330    1.254243   -1.164287
     28          1           0        1.430238    1.025647   -1.083929
     29          6           0       -0.384324    0.243808   -1.629659
     30          8           0        0.088731   -0.862326   -1.918495
     31          6           0       -1.733838    0.673141   -1.702859
     32          7           0       -2.874403   -0.006565   -2.107843
     33          6           0       -3.835871    0.866208   -1.973430
     34          1           0       -4.884672    0.674993   -2.203060
     35          1           0       -4.887166    3.094253   -0.538479
     36          1           0       -3.591764    4.018491   -0.897196
     37          1           0       -4.643535    3.598715   -2.071310
     38          1           0        6.311905    0.319337    0.150226
     39          1           0        6.570719    0.589714   -1.571562
     40          1           0        5.239409    1.397704   -0.743219
     41          1           0        5.027296   -3.966864   -1.617503
     42          6           0        4.622189   -2.959559   -1.520227
     43          8           0        2.386025   -3.617968   -1.959733
     44          6           0        3.217925   -2.749414   -1.698300
     45          1           0        1.824579   -1.250663   -1.672391
     46          7           0        2.810137   -1.438669   -1.553774
     47          8           0        3.145214    0.771975   -1.156264
     48          6           0        3.599169   -0.353555   -1.264771
     49          1           0        6.491600   -2.027619   -1.092876
     50          6           0        5.417333   -1.921048   -1.237620
     51          6           0        5.824078    0.491422   -0.797652
     52          7           0        4.941629   -0.636869   -1.107477
     53          1           0        4.296262    3.662729    2.629984
     54          1           0        3.139448    3.657551    1.479401
     55          1           0        4.709089    3.503800    1.059088
     56          1           0        1.608695   -3.200201    1.768222
     57          1           0        3.238599   -2.889729    2.164580
     58          7           0        2.343541   -2.533606    1.893905
     59          6           0        2.140013   -1.227638    1.709026
     60          6           0        2.775754    1.064404    1.645057
     61          7           0        1.563257    1.514118    1.281676
     62          1           0       -0.304214    0.779180    0.865720
     63          6           0        0.707301    0.501594    1.159050
     64          7           0        0.909226   -0.807106    1.343773
     65          1           0        5.902866    1.229289    2.448880
     66          6           0        4.887472    0.908151    2.214824
     67          7           0        4.476781   -0.336320    2.232363
     68          6           0        3.139489   -0.251379    1.872957
     69          6           0        4.022661    3.275369    1.749592
     70          7           0        3.910024    1.808621    1.867721
 ---------------------------------------------------------------------

 SCF Done:  E(RwB97XD) =  -2048.72005529     A.U. after   15 cycles

 The electronic state is 1-A.
 Alpha  occ. eigenvalues --  -19.25813 -19.21865 -19.20448 -14.52361 -14.52142
 Alpha  occ. eigenvalues --  -14.49222 -14.48341 -14.47790 -14.47689 -14.46389
 Alpha  occ. eigenvalues --  -14.45692 -14.45130 -14.43755 -14.43082 -14.42815
 Alpha  occ. eigenvalues --  -14.41827 -14.41793 -14.41531 -14.40671 -14.40572
 Alpha  occ. eigenvalues --  -10.45430 -10.40635 -10.39995 -10.39471 -10.37905
 Alpha  occ. eigenvalues --  -10.37681 -10.37665 -10.36753 -10.35942 -10.35374
 Alpha  occ. eigenvalues --  -10.35253 -10.34476 -10.34365 -10.33978 -10.33830
 Alpha  occ. eigenvalues --  -10.33644 -10.33028 -10.31993 -10.31439 -10.30967
 Alpha  occ. eigenvalues --  -10.30264 -10.28953 -10.27749  -1.19455  -1.14858
 Alpha  occ. eigenvalues --   -1.13046  -1.12904  -1.11793  -1.10320  -1.09252
 Alpha  occ. eigenvalues --   -1.08842  -1.08205  -1.05521  -1.04338  -1.02415
 Alpha  occ. eigenvalues --   -1.00999  -1.00730  -0.99272  -0.98333  -0.97425
 Alpha  occ. eigenvalues --   -0.96388  -0.96185  -0.93206  -0.90943  -0.87409
 Alpha  occ. eigenvalues --   -0.85931  -0.84416  -0.83732  -0.83636  -0.82782
 Alpha  occ. eigenvalues --   -0.82057  -0.78769  -0.76713  -0.74587  -0.74313
 Alpha  occ. eigenvalues --   -0.73398  -0.73344  -0.73239  -0.71600  -0.70164
 Alpha  occ. eigenvalues --   -0.67043  -0.66818  -0.66554  -0.66402  -0.64353
 Alpha  occ. eigenvalues --   -0.64062  -0.63507  -0.63232  -0.62678  -0.61333
 Alpha  occ. eigenvalues --   -0.60823  -0.60745  -0.60338  -0.59454  -0.59282
 Alpha  occ. eigenvalues --   -0.58888  -0.58022  -0.57295  -0.56916  -0.56485
 Alpha  occ. eigenvalues --   -0.55923  -0.55813  -0.55260  -0.54909  -0.54236
 Alpha  occ. eigenvalues --   -0.54196  -0.53370  -0.53214  -0.52789  -0.52598
 Alpha  occ. eigenvalues --   -0.52439  -0.52269  -0.52215  -0.51264  -0.50636
 Alpha  occ. eigenvalues --   -0.49877  -0.49624  -0.49341  -0.48942  -0.48740
 Alpha  occ. eigenvalues --   -0.48544  -0.48267  -0.47983  -0.47433  -0.47328
 Alpha  occ. eigenvalues --   -0.47198  -0.45671  -0.45146  -0.43967  -0.43758
 Alpha  occ. eigenvalues --   -0.41637  -0.40803  -0.39447  -0.37782  -0.37653
 Alpha  occ. eigenvalues --   -0.37424  -0.37038  -0.36649  -0.35828  -0.34441
 Alpha  occ. eigenvalues --   -0.34057  -0.34048  -0.33845  -0.33043  -0.32484
 Alpha  occ. eigenvalues --   -0.32355  -0.32037  -0.31831  -0.31642  -0.31397
 Alpha  occ. eigenvalues --   -0.30904  -0.29108  -0.26195  -0.24831
 Alpha virt. eigenvalues --    0.03164   0.04470   0.07194   0.07508   0.08711
 Alpha virt. eigenvalues --    0.09439   0.10008   0.10474   0.10891   0.11452
 Alpha virt. eigenvalues --    0.13058   0.13769   0.14110   0.14732   0.14922

 Mulliken charges:
               1
     1  N   -0.312951
     2  C    0.180194
     3  C    0.055917
     4  N   -0.259905
     5  C    0.134508
     6  H    0.027711
     7  N   -0.277922
     8  C    0.137925
     9  H    0.010630
    10  N   -0.290326
    11  C    0.235071
    12  C    0.109097
    13  N   -0.051983
    14  H    0.108257
    15  H    0.087636
    16  H    0.027029
    17  H    0.031787
    18  H    0.026676
    19  N   -0.291118
    20  C    0.233360
    21  C    0.175779
    22  N   -0.067998
    23  H    0.109789
    24  H    0.109214
    25  N   -0.295654
    26  C    0.193350
    27  N   -0.136250
    28  H    0.126942
    29  C    0.146772
    30  O   -0.321823
    31  C    0.024063
    32  N   -0.221287
    33  C    0.121207
    34  H    0.019242
    35  H    0.028650
    36  H    0.026136
    37  H    0.022257
    38  H    0.058391
    39  H    0.060542
    40  H    0.065982
    41  H    0.029834
    42  C   -0.114954
    43  O   -0.265728
    44  C    0.177220
    45  H    0.132762
    46  N   -0.129200
    47  O   -0.342122
    48  C    0.349455
    49  H    0.046951
    50  C    0.177316
    51  C    0.045695
    52  N   -0.285992
    53  H    0.037072
    54  H    0.026213
    55  H    0.025125
    56  H    0.122918
    57  H    0.117911
    58  N   -0.064858
    59  C    0.110787
    60  C    0.256466
    61  N   -0.298715
    62  H    0.034641
    63  C    0.179915
    64  N   -0.304097
    65  H    0.034953
    66  C    0.108158
    67  N   -0.254154
    68  C    0.000271
    69  C    0.179974
    70  N   -0.300709
 Sum of Mulliken charges =  -0.00000

 Dipole moment (field-independent basis, Debye):
    X=              6.7414    Y=              6.0619    Z=              3.6081  Tot=              9.7576
 Quadrupole moment (field-independent basis, Debye-Ang):
   XX=           -146.0914   YY=           -226.0605   ZZ=           -256.9518
   XY=              8.3506   XZ=              6.6718   YZ=            -11.3750

 Normal termination of Gaussian 16 at Mon Jan 22 06:17:50 2018.
