 Gaussian 16, Revision A.03,
 Gaussian 16:  EM64L-G16RevA.03 25-Dec-2016

 ---------------------------------------
 #p wb97xd/cc-pvdz sp scf=(maxcycles=20)
 ---------------------------------------

 ------------------
 Base pair stacking
 ------------------
 Symbolic Z-matrix:
 Charge =  0 Multiplicity = 1

                         Standard orientation:
 ---------------------------------------------------------------------
 Center     Atomic      Atomic             Coordinates (Angstroms)
 Number     Number       Type             X           Y           Z
 ---------------------------------------------------------------------
      1          7           0        5.488913   -1.432821   -1.238242
      2          6           0        6.857868   -0.883962   -1.186019
      3          6           0        3.300422   -1.629549   -1.333734
      4          7           0        3.804567   -2.921249   -1.288134
      5          6           0        5.102882   -2.751024   -1.232426
      6          1           0        5.832743   -3.559737   -1.185145
      7          7           0        1.831984    0.213505   -1.432668
      8          6           0        2.922123    0.986759   -1.397022
      9          1           0        2.732786    2.058975   -1.424511
     10          7           0        4.205001    0.636026   -1.332816
     11          6           0        4.326687   -0.701423   -1.303704
     12          6           0        1.987873   -1.128072   -1.401944
     13          7           0        0.900887   -1.901616   -1.437435
     14          1           0        0.968985   -2.899690   -1.416740
     15          1           0       -0.018077   -1.510084   -1.485908
     16          1           0        7.380032   -1.211469   -1.973581
     17          1           0        6.818369    0.114632   -1.205426
     18          1           0        7.306716   -1.181780   -0.343509
     19          7           0        4.327920    1.913397    1.222497
     20          6           0        2.958186    1.829236    1.153166
     21          6           0        5.128516    3.105371    0.877650
     22          7           0       -0.112729    3.287332    0.442391
     23          1           0       -1.076756    3.023720    0.462506
     24          1           0        0.096826    4.218640    0.143282
     25          7           0        2.120287    2.813404    0.761507
     26          6           0        0.856176    2.431128    0.800238
     27          7           0        0.442186    1.181149    1.192230
     28          1           0       -0.545320    0.976737    1.190713
     29          6           0        1.286712    0.153022    1.599180
     30          8           0        0.810760   -0.938970    1.933467
     31          6           0        2.647961    0.548726    1.562850
     32          7           0        3.799746   -0.156832    1.882946
     33          6           0        4.768855    0.690587    1.666304
     34          1           0        5.827431    0.474530    1.814681
     35          1           0        5.758683    2.882182    0.134756
     36          1           0        4.518547    3.841007    0.586062
     37          1           0        5.648612    3.402489    1.677670
     38          1           0       -5.524696    0.385533    0.348693
     39          1           0       -5.640804    0.673427    2.083135
     40          1           0       -4.359184    1.442298    1.146303
     41          1           0       -4.210992   -3.920144    2.046323
     42          6           0       -3.790140   -2.924003    1.909142
     43          8           0       -1.543234   -3.635626    2.177670
     44          6           0       -2.371488   -2.748117    1.974916
     45          1           0       -0.948073   -1.285091    1.827357
     46          7           0       -1.944217   -1.448999    1.787883
     47          8           0       -2.255039    0.766757    1.399283
     48          6           0       -2.726594   -0.346274    1.552466
     49          1           0       -5.663862   -1.948102    1.621730
     50          6           0       -4.579255   -1.867670    1.680981
     51          6           0       -4.959874    0.551392    1.253973
     52          7           0       -4.083823   -0.596726    1.503185
     53          1           0       -5.155055    3.894005   -1.996073
     54          1           0       -3.915049    3.782432   -0.941540
     55          1           0       -5.451484    3.623140   -0.414243
     56          1           0       -2.563402   -3.057934   -1.856889
     57          1           0       -4.211276   -2.691428   -2.102393
     58          7           0       -3.290630   -2.371696   -1.875672
     59          6           0       -3.044713   -1.087056   -1.610336
     60          6           0       -3.622674    1.203697   -1.327226
     61          7           0       -2.376495    1.604460   -1.025806
     62          1           0       -0.499750    0.809370   -0.810701
     63          6           0       -1.536458    0.571572   -1.045130
     64          7           0       -1.780817   -0.715816   -1.310640
     65          1           0       -6.797120    1.480675   -1.873417
     66          6           0       -5.774347    1.125992   -1.742764
     67          7           0       -5.393936   -0.120159   -1.884434
     68          6           0       -4.031760   -0.084812   -1.623726
     69          6           0       -4.824426    3.436484   -1.170629
     70          7           0       -4.753689    1.981267   -1.405897
 ---------------------------------------------------------------------

 SCF Done:  E(RwB97XD) =  -2048.72796854     A.U. after   15 cycles

 The electronic state is 1-A.
 Alpha  occ. eigenvalues --  -19.25220 -19.21449 -19.20475 -14.52903 -14.51861
 Alpha  occ. eigenvalues --  -14.48772 -14.48617 -14.48177 -14.47308 -14.46527
 Alpha  occ. eigenvalues --  -14.45996 -14.45992 -14.44702 -14.44630 -14.42754
 Alpha  occ. eigenvalues --  -14.41697 -14.41397 -14.41044 -14.40705 -14.40306
 Alpha  occ. eigenvalues --  -10.44824 -10.40901 -10.40418 -10.39575 -10.38440
 Alpha  occ. eigenvalues --  -10.38017 -10.37638 -10.37284 -10.36135 -10.35681
 Alpha  occ. eigenvalues --  -10.34481 -10.34285 -10.34089 -10.33915 -10.33449
 Alpha  occ. eigenvalues --  -10.33107 -10.33079 -10.32985 -10.31236 -10.30599
 Alpha  occ. eigenvalues --  -10.30355 -10.28556 -10.27820  -1.19096  -1.15783
 Alpha  occ. eigenvalues --   -1.12968  -1.12508  -1.11360  -1.10247  -1.09733
 Alpha  occ. eigenvalues --   -1.08833  -1.08255  -1.05270  -1.05212  -1.01961
 Alpha  occ. eigenvalues --   -1.01530  -1.00742  -0.99288  -0.98346  -0.97330
 Alpha  occ. eigenvalues --   -0.97013  -0.96243  -0.92945  -0.90555  -0.88173
 Alpha  occ. eigenvalues --   -0.86447  -0.84107  -0.83735  -0.83157  -0.82484
 Alpha  occ. eigenvalues --   -0.82080  -0.78382  -0.77520  -0.75454  -0.74300
 Alpha  occ. eigenvalues --   -0.73321  -0.73086  -0.72868  -0.71244  -0.70898
 Alpha  occ. eigenvalues --   -0.67337  -0.66997  -0.66548  -0.66052  -0.64785
 Alpha  occ. eigenvalues --   -0.64146  -0.63503  -0.62984  -0.62577  -0.61470
 Alpha  occ. eigenvalues --   -0.61361  -0.60934  -0.60750  -0.59918  -0.59167
 Alpha  occ. eigenvalues --   -0.58634  -0.57905  -0.57259  -0.56719  -0.56127
 Alpha  occ. eigenvalues --   -0.55976  -0.55781  -0.55609  -0.54415  -0.54305
 Alpha  occ. eigenvalues --   -0.53922  -0.53674  -0.53366  -0.53202  -0.53010
 Alpha  occ. eigenvalues --   -0.52613  -0.52085  -0.52014  -0.50989  -0.50340
 Alpha  occ. eigenvalues --   -0.50101  -0.49755  -0.49175  -0.49057  -0.48893
 Alpha  occ. eigenvalues --   -0.48399  -0.48367  -0.47994  -0.47269  -0.47145
 Alpha  occ. eigenvalues --   -0.47028  -0.45659  -0.44681  -0.44347  -0.43048
 Alpha  occ. eigenvalues --   -0.41385  -0.40738  -0.39197  -0.38143  -0.38118
 Alpha  occ. eigenvalues --   -0.37877  -0.37117  -0.36642  -0.35945  -0.35130
 Alpha  occ. eigenvalues --   -0.34760  -0.33946  -0.33615  -0.33259  -0.32763
 Alpha  occ. eigenvalues --   -0.32394  -0.32086  -0.31918  -0.31657  -0.30878
 Alpha  occ. eigenvalues --   -0.30521  -0.29505  -0.25853  -0.25078
 Alpha virt. eigenvalues --    0.03279   0.03692   0.06434   0.07443   0.09135
 Alpha virt. eigenvalues --    0.09289   0.09687   0.10109   0.11390   0.12337
 Alpha virt. eigenvalues --    0.12741   0.14047   0.14090   0.14408   0.14998

 Mulliken charges:
               1
     1  N   -0.312307
     2  C    0.177912
     3  C    0.066305
     4  N   -0.261572
     5  C    0.138747
     6  H    0.026563
     7  N   -0.288081
     8  C    0.139636
     9  H    0.016627
    10  N   -0.286970
    11  C    0.248695
    12  C    0.086653
    13  N   -0.053493
    14  H    0.107929
    15  H    0.082540
    16  H    0.026998
    17  H    0.028619
    18  H    0.027714
    19  N   -0.268268
    20  C    0.190105
    21  C    0.182865
    22  N   -0.101152
    23  H    0.110553
    24  H    0.112906
    25  N   -0.291933
    26  C    0.218074
    27  N   -0.134708
    28  H    0.116600
    29  C    0.179177
    30  O   -0.321546
    31  C    0.003853
    32  N   -0.218473
    33  C    0.116510
    34  H    0.013882
    35  H    0.022484
    36  H    0.026831
    37  H    0.021309
    38  H    0.055289
    39  H    0.054767
    40  H    0.071680
    41  H    0.027013
    42  C   -0.109539
    43  O   -0.266217
    44  C    0.174472
    45  H    0.130221
    46  N   -0.120806
    47  O   -0.330707
    48  C    0.331476
    49  H    0.046120
    50  C    0.165981
    51  C    0.046904
    52  N   -0.279989
    53  H    0.037670
    54  H    0.036648
    55  H    0.028500
    56  H    0.122749
    57  H    0.118905
    58  N   -0.060969
    59  C    0.095128
    60  C    0.203016
    61  N   -0.256429
    62  H    0.041174
    63  C    0.149420
    64  N   -0.297201
    65  H    0.037457
    66  C    0.116229
    67  N   -0.250543
    68  C    0.035537
    69  C    0.182516
    70  N   -0.288057
 Sum of Mulliken charges =  -0.00000

 Dipole moment (field-independent basis, Debye):
    X=             -7.1332    Y=              6.6195    Z=             -3.4650  Tot=             10.3299
 Quadrupole moment (field-independent basis, Debye-Ang):
   XX=           -151.0939   YY=           -226.6665   ZZ=           -257.4914
   XY=             -3.8470   XZ=             -3.6545   YZ=             13.9739

 Normal termination of Gaussian 16 at Mon Jan 22 10:01:56 2018.
