 Gaussian 16, Revision A.03,
 Gaussian 16:  EM64L-G16RevA.03 25-Dec-2016

 ---------------------------------------
 #p wb97xd/cc-pvdz sp scf=(maxcycles=20)
 ---------------------------------------

 ------------------
 Base pair stacking
 ------------------
 Symbolic Z-matrix:
 Charge =  0 Multiplicity = 1

                         Standard orientation:
 ---------------------------------------------------------------------
 Center     Atomic      Atomic             Coordinates (Angstroms)
 Number     Number       Type             X           Y           Z
 ---------------------------------------------------------------------
      1          7           0       -6.906088   -1.273396    0.304141
      2          6           0       -8.252462   -0.674952    0.219578
      3          6           0       -4.743926   -1.564611    0.582675
      4          7           0       -5.261183   -2.804634    0.236950
      5          6           0       -6.543092   -2.579556    0.082984
      6          1           0       -7.276716   -3.337186   -0.194020
      7          7           0       -3.264839    0.170862    1.185474
      8          6           0       -4.332170    0.976074    1.188934
      9          1           0       -4.129493    2.015750    1.442408
     10          7           0       -5.606295    0.691153    0.927513
     11          6           0       -5.745854   -0.610881    0.628076
     12          6           0       -3.438287   -1.133668    0.880172
     13          7           0       -2.374068   -1.939014    0.876194
     14          1           0       -2.455744   -2.911685    0.656064
     15          1           0       -1.459366   -1.597764    1.093008
     16          1           0       -8.861284   -1.127229    0.871456
     17          1           0       -8.199067    0.299517    0.435643
     18          1           0       -8.613177   -0.790151   -0.705957
     19          7           0       -2.745675    2.221466   -1.631508
     20          6           0       -1.397803    2.076444   -1.407316
     21          6           0       -3.513717    3.468079   -1.439746
     22          7           0        1.652621    3.425535   -0.439538
     23          1           0        2.597723    3.115670   -0.339482
     24          1           0        1.462309    4.381476   -0.214415
     25          7           0       -0.555348    3.040647   -0.977639
     26          6           0        0.683316    2.597121   -0.856788
     27          7           0        1.069490    1.308317   -1.134923
     28          1           0        2.038755    1.057623   -1.013897
     29          6           0        0.219744    0.299711   -1.578210
     30          8           0        0.669698   -0.831156   -1.800506
     31          6           0       -1.114373    0.761105   -1.712866
     32          7           0       -2.261229    0.093786   -2.120667
     33          6           0       -3.201224    0.997409   -2.056730
     34          1           0       -4.247769    0.823711   -2.309385
     35          1           0       -4.231085    3.318384   -0.760196
     36          1           0       -2.900087    4.189503   -1.121533
     37          1           0       -3.928192    3.742882   -2.306643
     38          1           0        6.860014    0.280022    0.401559
     39          1           0        7.177024    0.461413   -1.322170
     40          1           0        5.845201    1.343160   -0.573767
     41          1           0        5.507640   -4.049202   -1.203269
     42          6           0        5.128426   -3.027920   -1.165541
     43          8           0        2.888508   -3.646251   -1.642543
     44          6           0        3.736518   -2.788898   -1.396376
     45          1           0        2.385880   -1.253784   -1.483236
     46          7           0        3.361804   -1.462306   -1.325696
     47          8           0        3.747277    0.754916   -1.021497
     48          6           0        4.172281   -0.386258   -1.063410
     49          1           0        7.009974   -2.127219   -0.724724
     50          6           0        5.943887   -1.998879   -0.907290
     51          6           0        6.405406    0.419981   -0.567878
     52          7           0        5.500993   -0.697668   -0.851822
     53          1           0        3.680352    3.418541    3.160109
     54          1           0        2.558897    3.555395    1.982953
     55          1           0        4.140225    3.443427    1.594442
     56          1           0        1.006051   -3.279971    1.415534
     57          1           0        2.623848   -3.027467    1.894168
     58          7           0        1.738128   -2.636946    1.640788
     59          6           0        1.542959   -1.317170    1.605160
     60          6           0        2.185037    0.962859    1.830834
     61          7           0        0.985028    1.459020    1.486992
     62          1           0       -0.870492    0.788654    0.931791
     63          6           0        0.131108    0.472801    1.220386
     64          7           0        0.324665   -0.849653    1.255495
     65          1           0        5.286716    1.014406    2.741399
     66          6           0        4.278219    0.728765    2.440927
     67          7           0        3.864642   -0.506793    2.299385
     68          6           0        2.539014   -0.372617    1.912781
     69          6           0        3.432730    3.139109    2.232432
     70          7           0        3.313576    1.669305    2.173407
 ---------------------------------------------------------------------

 SCF Done:  E(RwB97XD) =  -2048.73299025     A.U. after   15 cycles

 The electronic state is 1-A.
 Alpha  occ. eigenvalues --  -19.25971 -19.21998 -19.20570 -14.52436 -14.51632
 Alpha  occ. eigenvalues --  -14.49417 -14.48599 -14.47900 -14.46848 -14.46662
 Alpha  occ. eigenvalues --  -14.46554 -14.44626 -14.43086 -14.42716 -14.42664
 Alpha  occ. eigenvalues --  -14.42068 -14.42046 -14.41654 -14.40773 -14.40682
 Alpha  occ. eigenvalues --  -10.45556 -10.41144 -10.40116 -10.38710 -10.38160
 Alpha  occ. eigenvalues --  -10.37746 -10.37226 -10.36108 -10.36034 -10.35555
 Alpha  occ. eigenvalues --  -10.34722 -10.34532 -10.34291 -10.34054 -10.33785
 Alpha  occ. eigenvalues --  -10.33687 -10.33128 -10.31581 -10.31503 -10.31032
 Alpha  occ. eigenvalues --  -10.30562 -10.29217 -10.28066  -1.19507  -1.14317
 Alpha  occ. eigenvalues --   -1.13205  -1.13027  -1.12013  -1.10480  -1.09333
 Alpha  occ. eigenvalues --   -1.08583  -1.08026  -1.05625  -1.03612  -1.02520
 Alpha  occ. eigenvalues --   -1.01056  -1.00219  -0.99743  -0.98478  -0.97580
 Alpha  occ. eigenvalues --   -0.96437  -0.95641  -0.93270  -0.91030  -0.86802
 Alpha  occ. eigenvalues --   -0.85319  -0.84581  -0.84020  -0.83801  -0.82921
 Alpha  occ. eigenvalues --   -0.82323  -0.78866  -0.76054  -0.74607  -0.73797
 Alpha  occ. eigenvalues --   -0.73619  -0.73513  -0.73381  -0.71723  -0.69474
 Alpha  occ. eigenvalues --   -0.67391  -0.66920  -0.66565  -0.65810  -0.64459
 Alpha  occ. eigenvalues --   -0.63720  -0.63462  -0.63185  -0.62696  -0.61769
 Alpha  occ. eigenvalues --   -0.60794  -0.60100  -0.59650  -0.59492  -0.59148
 Alpha  occ. eigenvalues --   -0.58688  -0.58276  -0.57152  -0.57010  -0.56700
 Alpha  occ. eigenvalues --   -0.56018  -0.55904  -0.55140  -0.54569  -0.54379
 Alpha  occ. eigenvalues --   -0.53624  -0.53564  -0.52967  -0.52851  -0.52621
 Alpha  occ. eigenvalues --   -0.52369  -0.52285  -0.51900  -0.51385  -0.50784
 Alpha  occ. eigenvalues --   -0.50070  -0.49697  -0.49452  -0.48981  -0.48714
 Alpha  occ. eigenvalues --   -0.48649  -0.48194  -0.47922  -0.47728  -0.47562
 Alpha  occ. eigenvalues --   -0.47371  -0.45609  -0.45498  -0.43985  -0.43131
 Alpha  occ. eigenvalues --   -0.41852  -0.39820  -0.39528  -0.37847  -0.37336
 Alpha  occ. eigenvalues --   -0.37211  -0.36747  -0.36374  -0.35830  -0.34509
 Alpha  occ. eigenvalues --   -0.34191  -0.34095  -0.33290  -0.33184  -0.32840
 Alpha  occ. eigenvalues --   -0.32605  -0.32207  -0.31958  -0.31795  -0.31562
 Alpha  occ. eigenvalues --   -0.30990  -0.28536  -0.26435  -0.25412
 Alpha virt. eigenvalues --    0.03148   0.04750   0.07313   0.07894   0.08630
 Alpha virt. eigenvalues --    0.09254   0.09559   0.10246   0.11065   0.11821
 Alpha virt. eigenvalues --    0.12847   0.13564   0.14399   0.14679   0.14798

 Mulliken charges:
               1
     1  N   -0.311779
     2  C    0.180548
     3  C    0.040568
     4  N   -0.257965
     5  C    0.133809
     6  H    0.028598
     7  N   -0.279913
     8  C    0.120883
     9  H    0.016505
    10  N   -0.289127
    11  C    0.235115
    12  C    0.113826
    13  N   -0.050029
    14  H    0.108093
    15  H    0.088333
    16  H    0.027157
    17  H    0.034510
    18  H    0.026506
    19  N   -0.302732
    20  C    0.232261
    21  C    0.180965
    22  N   -0.097283
    23  H    0.108027
    24  H    0.117231
    25  N   -0.289923
    26  C    0.212108
    27  N   -0.115153
    28  H    0.120655
    29  C    0.135568
    30  O   -0.319373
    31  C    0.014800
    32  N   -0.221880
    33  C    0.124280
    34  H    0.028063
    35  H    0.027481
    36  H    0.026796
    37  H    0.023482
    38  H    0.058032
    39  H    0.062988
    40  H    0.070218
    41  H    0.030609
    42  C   -0.112505
    43  O   -0.269007
    44  C    0.174674
    45  H    0.137024
    46  N   -0.134280
    47  O   -0.351573
    48  C    0.359175
    49  H    0.047346
    50  C    0.178942
    51  C    0.038598
    52  N   -0.290569
    53  H    0.035329
    54  H    0.032000
    55  H    0.024499
    56  H    0.122348
    57  H    0.117714
    58  N   -0.061134
    59  C    0.118924
    60  C    0.229157
    61  N   -0.264246
    62  H    0.058557
    63  C    0.152060
    64  N   -0.299857
    65  H    0.028248
    66  C    0.124625
    67  N   -0.260566
    68  C    0.011949
    69  C    0.165231
    70  N   -0.305521
 Sum of Mulliken charges =  -0.00000

 Dipole moment (field-independent basis, Debye):
    X=              6.6085    Y=              5.9240    Z=              3.1954  Tot=              9.4327
 Quadrupole moment (field-independent basis, Debye-Ang):
   XX=           -141.9649   YY=           -225.3872   ZZ=           -254.4633
   XY=             10.4582   XZ=             13.6539   YZ=             -9.0225

 Normal termination of Gaussian 16 at Mon Jan 22 16:28:41 2018.
