 Gaussian 16, Revision A.03,
 Gaussian 16:  EM64L-G16RevA.03 25-Dec-2016

 ---------------------------------------
 #p wb97xd/cc-pvdz sp scf=(maxcycles=20)
 ---------------------------------------

 ------------------
 Base pair stacking
 ------------------
 Symbolic Z-matrix:
 Charge =  0 Multiplicity = 1

                         Standard orientation:
 ---------------------------------------------------------------------
 Center     Atomic      Atomic             Coordinates (Angstroms)
 Number     Number       Type             X           Y           Z
 ---------------------------------------------------------------------
      1          7           0       -6.412857   -1.477948    0.559695
      2          6           0       -7.779467   -0.940565    0.706746
      3          6           0       -4.229010   -1.729014    0.630910
      4          7           0       -4.730353   -2.865433    0.012901
      5          6           0       -6.025977   -2.668689   -0.005269
      6          1           0       -6.753163   -3.365913   -0.422426
      7          7           0       -2.766239   -0.133320    1.567401
      8          6           0       -3.854939    0.594894    1.835763
      9          1           0       -3.667417    1.546105    2.332039
     10          7           0       -5.134495    0.325784    1.584306
     11          6           0       -5.254174   -0.864662    0.973629
     12          6           0       -2.920038   -1.326273    0.952363
     13          7           0       -1.834475   -2.054645    0.683635
     14          1           0       -1.901135   -2.943795    0.229566
     15          1           0       -0.918077   -1.736553    0.926879
     16          1           0       -8.329036   -1.569546    1.256782
     17          1           0       -7.741348   -0.049956    1.158959
     18          1           0       -8.197920   -0.836722   -0.195531
     19          7           0       -3.286941    2.444221   -1.476935
     20          6           0       -1.927060    2.297981   -1.345050
     21          6           0       -4.040260    3.688817   -1.223569
     22          7           0        1.181611    3.640424   -0.573189
     23          1           0        2.131278    3.330193   -0.539460
     24          1           0        1.006934    4.594355   -0.327787
     25          7           0       -1.057557    3.258973   -0.964902
     26          6           0        0.186396    2.815053   -0.931265
     27          7           0        0.552906    1.528805   -1.245504
     28          1           0        1.528097    1.277583   -1.191987
     29          6           0       -0.324796    0.523523   -1.639115
     30          8           0        0.109120   -0.605224   -1.900597
     31          6           0       -1.664904    0.985383   -1.679942
     32          7           0       -2.836623    0.320934   -2.015330
     33          6           0       -3.770124    1.223540   -1.880816
     34          1           0       -4.831299    1.051452   -2.064018
     35          1           0       -4.710343    3.533105   -0.498627
     36          1           0       -3.406578    4.407859   -0.941278
     37          1           0       -4.512032    3.970653   -2.058324
     38          1           0        6.433510    0.490515   -0.110264
     39          1           0        6.633983    0.686446   -1.849825
     40          1           0        5.355536    1.561275   -1.006264
     41          1           0        4.976002   -3.825801   -1.656769
     42          6           0        4.600268   -2.805057   -1.585097
     43          8           0        2.333307   -3.420467   -1.915665
     44          6           0        3.196014   -2.564781   -1.719866
     45          1           0        1.842711   -1.029659   -1.702913
     46          7           0        2.827004   -1.239012   -1.613069
     47          8           0        3.232215    0.975778   -1.316911
     48          6           0        3.653353   -0.164801   -1.396838
     49          1           0        6.507262   -1.907164   -1.264188
     50          6           0        5.431322   -1.777808   -1.373615
     51          6           0        5.914801    0.638351   -1.045758
     52          7           0        4.993257   -0.477335   -1.277628
     53          1           0        4.193932    2.834480    3.897741
     54          1           0        2.992218    3.209809    2.859891
     55          1           0        4.546519    3.272296    2.365611
     56          1           0        1.613500   -3.329607    0.671154
     57          1           0        3.251375   -3.130337    1.104459
     58          7           0        2.339141   -2.730310    1.009411
     59          6           0        2.101951   -1.454255    1.320210
     60          6           0        2.688063    0.723697    2.078330
     61          7           0        1.453099    1.233951    1.940707
     62          1           0       -0.414294    0.638778    1.341345
     63          6           0        0.613601    0.307501    1.482638
     64          7           0        0.849236   -0.971086    1.170752
     65          1           0        5.840928    0.689251    2.792757
     66          6           0        4.823675    0.441552    2.488157
     67          7           0        4.439304   -0.736907    2.062504
     68          6           0        3.087229   -0.571791    1.799172
     69          6           0        3.893118    2.785300    2.945329
     70          7           0        3.815050    1.373307    2.523187
 ---------------------------------------------------------------------

 SCF Done:  E(RwB97XD) =  -2048.74985981     A.U. after   15 cycles

 The electronic state is 1-A.
 Alpha  occ. eigenvalues --  -19.26009 -19.22219 -19.20704 -14.52516 -14.51800
 Alpha  occ. eigenvalues --  -14.48864 -14.48723 -14.47956 -14.46980 -14.46799
 Alpha  occ. eigenvalues --  -14.46755 -14.44887 -14.43381 -14.43286 -14.42154
 Alpha  occ. eigenvalues --  -14.42076 -14.41445 -14.41028 -14.40823 -14.40232
 Alpha  occ. eigenvalues --  -10.45623 -10.41268 -10.40390 -10.38919 -10.38278
 Alpha  occ. eigenvalues --  -10.37952 -10.37395 -10.36404 -10.35426 -10.35375
 Alpha  occ. eigenvalues --  -10.34947 -10.34347 -10.34119 -10.33551 -10.33411
 Alpha  occ. eigenvalues --  -10.33279 -10.33175 -10.31810 -10.31167 -10.31146
 Alpha  occ. eigenvalues --  -10.30731 -10.28547 -10.28109  -1.19569  -1.14491
 Alpha  occ. eigenvalues --   -1.13303  -1.13259  -1.11417  -1.10577  -1.09412
 Alpha  occ. eigenvalues --   -1.08615  -1.08272  -1.05033  -1.03824  -1.02648
 Alpha  occ. eigenvalues --   -1.00448  -1.00271  -0.99812  -0.98580  -0.97017
 Alpha  occ. eigenvalues --   -0.96544  -0.95853  -0.92685  -0.91165  -0.86907
 Alpha  occ. eigenvalues --   -0.85323  -0.84086  -0.84018  -0.83765  -0.82424
 Alpha  occ. eigenvalues --   -0.82400  -0.78986  -0.76197  -0.74626  -0.73964
 Alpha  occ. eigenvalues --   -0.73712  -0.73493  -0.72938  -0.71108  -0.69568
 Alpha  occ. eigenvalues --   -0.67425  -0.66674  -0.66338  -0.65904  -0.64562
 Alpha  occ. eigenvalues --   -0.63806  -0.63394  -0.62742  -0.62707  -0.61778
 Alpha  occ. eigenvalues --   -0.60295  -0.60191  -0.59690  -0.59585  -0.58868
 Alpha  occ. eigenvalues --   -0.58751  -0.58429  -0.56676  -0.56582  -0.56425
 Alpha  occ. eigenvalues --   -0.56087  -0.55430  -0.54714  -0.54573  -0.54464
 Alpha  occ. eigenvalues --   -0.53694  -0.53612  -0.52973  -0.52928  -0.52769
 Alpha  occ. eigenvalues --   -0.52589  -0.52058  -0.51855  -0.50869  -0.50279
 Alpha  occ. eigenvalues --   -0.50210  -0.49587  -0.49366  -0.49194  -0.48934
 Alpha  occ. eigenvalues --   -0.48722  -0.48350  -0.47942  -0.47588  -0.47477
 Alpha  occ. eigenvalues --   -0.47022  -0.45547  -0.45041  -0.44192  -0.43685
 Alpha  occ. eigenvalues --   -0.41223  -0.39995  -0.39564  -0.37306  -0.37275
 Alpha  occ. eigenvalues --   -0.37235  -0.36825  -0.36736  -0.36078  -0.34205
 Alpha  occ. eigenvalues --   -0.34059  -0.33599  -0.33512  -0.33413  -0.33280
 Alpha  occ. eigenvalues --   -0.32727  -0.32364  -0.32142  -0.31875  -0.31010
 Alpha  occ. eigenvalues --   -0.30458  -0.29061  -0.25758  -0.25458
 Alpha virt. eigenvalues --    0.02780   0.04931   0.07469   0.07985   0.08800
 Alpha virt. eigenvalues --    0.09084   0.09702   0.10898   0.11007   0.11585
 Alpha virt. eigenvalues --    0.12934   0.14074   0.14564   0.14636   0.15406

 Mulliken charges:
               1
     1  N   -0.311791
     2  C    0.180423
     3  C    0.051432
     4  N   -0.256952
     5  C    0.132127
     6  H    0.026240
     7  N   -0.289708
     8  C    0.131951
     9  H    0.011478
    10  N   -0.291811
    11  C    0.233168
    12  C    0.110455
    13  N   -0.047394
    14  H    0.110766
    15  H    0.091039
    16  H    0.026323
    17  H    0.033215
    18  H    0.024240
    19  N   -0.309246
    20  C    0.253796
    21  C    0.179982
    22  N   -0.115611
    23  H    0.112344
    24  H    0.116397
    25  N   -0.307726
    26  C    0.239815
    27  N   -0.139896
    28  H    0.117066
    29  C    0.170214
    30  O   -0.322813
    31  C   -0.000382
    32  N   -0.224964
    33  C    0.129738
    34  H    0.024535
    35  H    0.032048
    36  H    0.027841
    37  H    0.023156
    38  H    0.057530
    39  H    0.061082
    40  H    0.071126
    41  H    0.028600
    42  C   -0.117869
    43  O   -0.275973
    44  C    0.157780
    45  H    0.136565
    46  N   -0.121527
    47  O   -0.347026
    48  C    0.350065
    49  H    0.048387
    50  C    0.186873
    51  C    0.041122
    52  N   -0.284258
    53  H    0.033518
    54  H    0.040388
    55  H    0.022789
    56  H    0.127888
    57  H    0.114408
    58  N   -0.050317
    59  C    0.098947
    60  C    0.247899
    61  N   -0.273253
    62  H    0.037387
    63  C    0.166268
    64  N   -0.301123
    65  H    0.032513
    66  C    0.126184
    67  N   -0.260495
    68  C    0.004295
    69  C    0.179098
    70  N   -0.310368
 Sum of Mulliken charges =  -0.00000

 Dipole moment (field-independent basis, Debye):
    X=              7.3138    Y=              6.3383    Z=              2.4286  Tot=              9.9782
 Quadrupole moment (field-independent basis, Debye-Ang):
   XX=           -145.8198   YY=           -223.2362   ZZ=           -253.8949
   XY=              6.2645   XZ=              9.0085   YZ=             -4.6079

 Normal termination of Gaussian 16 at Mon Jan 22 02:22:57 2018.
