 Gaussian 16, Revision A.03,
 Gaussian 16:  EM64L-G16RevA.03 25-Dec-2016

 ---------------------------------------
 #p wb97xd/cc-pvdz sp scf=(maxcycles=20)
 ---------------------------------------

 ------------------
 Base pair stacking
 ------------------
 Symbolic Z-matrix:
 Charge =  0 Multiplicity = 1

                         Standard orientation:
 ---------------------------------------------------------------------
 Center     Atomic      Atomic             Coordinates (Angstroms)
 Number     Number       Type             X           Y           Z
 ---------------------------------------------------------------------
      1          7           0        4.586315   -1.539771   -1.766274
      2          6           0        5.958588   -1.022379   -1.931128
      3          6           0        2.399668   -1.691059   -1.584609
      4          7           0        2.889329   -2.983655   -1.465632
      5          6           0        4.187113   -2.840768   -1.579831
      6          1           0        4.907167   -3.658370   -1.535248
      7          7           0        0.953228    0.168337   -1.700298
      8          6           0        2.049540    0.914120   -1.872020
      9          1           0        1.871822    1.982472   -1.987334
     10          7           0        3.326438    0.540090   -1.922441
     11          6           0        3.433852   -0.790236   -1.770347
     12          6           0        1.094733   -1.166765   -1.550174
     13          7           0        0.001557   -1.912903   -1.378649
     14          1           0        0.059043   -2.905201   -1.263506
     15          1           0       -0.911651   -1.505675   -1.359407
     16          1           0        6.379346   -1.440281   -2.736431
     17          1           0        5.929660   -0.030143   -2.048400
     18          1           0        6.500537   -1.244882   -1.120708
     19          7           0        5.209946    1.834702    0.851884
     20          6           0        3.839147    1.780984    0.929831
     21          6           0        5.998503    3.031332    0.495588
     22          7           0        0.747576    3.339631    0.656826
     23          1           0       -0.214939    3.093430    0.767258
     24          1           0        0.947121    4.284324    0.395173
     25          7           0        2.989112    2.804096    0.695910
     26          6           0        1.727390    2.443923    0.850673
     27          7           0        1.326665    1.179089    1.207203
     28          1           0        0.339967    0.993798    1.302477
     29          6           0        2.183822    0.110995    1.452797
     30          8           0        1.719278   -0.991301    1.768854
     31          6           0        3.542665    0.482584    1.290480
     32          7           0        4.703966   -0.263809    1.436022
     33          6           0        5.665076    0.577556    1.166645
     34          1           0        6.727597    0.332465    1.182829
     35          1           0        6.537518    2.845147   -0.325144
     36          1           0        5.379477    3.795716    0.320089
     37          1           0        6.610595    3.265974    1.249969
     38          1           0       -4.715274    0.552241    0.982835
     39          1           0       -4.633234    0.728843    2.734041
     40          1           0       -3.442494    1.532824    1.710749
     41          1           0       -3.335271   -3.878646    2.251461
     42          6           0       -2.906367   -2.883770    2.131032
     43          8           0       -0.662718   -3.653431    2.103527
     44          6           0       -1.484979   -2.739209    2.049854
     45          1           0       -0.048953   -1.296683    1.837097
     46          7           0       -1.047329   -1.438936    1.898219
     47          8           0       -1.341466    0.802845    1.685926
     48          6           0       -1.822025   -0.308732    1.820539
     49          1           0       -4.774442   -1.856222    2.114925
     50          6           0       -3.688157   -1.800196    2.058377
     51          6           0       -4.050602    0.648242    1.828447
     52          7           0       -3.182496   -0.529913    1.906586
     53          1           0       -6.004310    3.944706   -1.818857
     54          1           0       -4.649334    3.909271   -0.910630
     55          1           0       -6.114162    3.841807   -0.193812
     56          1           0       -3.502328   -3.019742   -1.269210
     57          1           0       -5.162949   -2.639259   -1.356828
     58          7           0       -4.217930   -2.321146   -1.273350
     59          6           0       -3.926069   -1.022788   -1.172118
     60          6           0       -4.437375    1.298384   -1.060535
     61          7           0       -3.159271    1.696587   -0.949652
     62          1           0       -1.280433    0.881126   -0.874710
     63          6           0       -2.340559    0.646585   -0.960670
     64          7           0       -2.630938   -0.654565   -1.061973
     65          1           0       -7.650482    1.597224   -1.257575
     66          6           0       -6.623984    1.232358   -1.211568
     67          7           0       -6.278838   -0.030727   -1.267785
     68          6           0       -4.895004   -0.002934   -1.173092
     69          6           0       -5.583772    3.564566   -0.995067
     70          7           0       -5.559839    2.091758   -1.086050
 ---------------------------------------------------------------------

 SCF Done:  E(RwB97XD) =  -2048.74318921     A.U. after   15 cycles

 The electronic state is 1-A.
 Alpha  occ. eigenvalues --  -19.25222 -19.21349 -19.20491 -14.52878 -14.51669
 Alpha  occ. eigenvalues --  -14.48960 -14.48823 -14.48423 -14.47183 -14.46620
 Alpha  occ. eigenvalues --  -14.46587 -14.45780 -14.44941 -14.44774 -14.42969
 Alpha  occ. eigenvalues --  -14.41939 -14.41276 -14.41158 -14.41060 -14.40676
 Alpha  occ. eigenvalues --  -10.44782 -10.41110 -10.40589 -10.39471 -10.38318
 Alpha  occ. eigenvalues --  -10.38124 -10.37648 -10.37208 -10.36376 -10.35814
 Alpha  occ. eigenvalues --  -10.34380 -10.34173 -10.33816 -10.33801 -10.33683
 Alpha  occ. eigenvalues --  -10.33295 -10.33227 -10.33099 -10.31105 -10.30627
 Alpha  occ. eigenvalues --  -10.30499 -10.28550 -10.28146  -1.18829  -1.15675
 Alpha  occ. eigenvalues --   -1.13127  -1.12379  -1.11074  -1.10676  -1.09936
 Alpha  occ. eigenvalues --   -1.08619  -1.08453  -1.05415  -1.05337  -1.01791
 Alpha  occ. eigenvalues --   -1.01372  -1.00807  -0.99635  -0.98511  -0.97483
 Alpha  occ. eigenvalues --   -0.96769  -0.96712  -0.93057  -0.90402  -0.88173
 Alpha  occ. eigenvalues --   -0.86282  -0.84233  -0.83817  -0.82832  -0.82592
 Alpha  occ. eigenvalues --   -0.82178  -0.78238  -0.77534  -0.75365  -0.74658
 Alpha  occ. eigenvalues --   -0.73553  -0.73023  -0.72707  -0.71200  -0.70905
 Alpha  occ. eigenvalues --   -0.67358  -0.67295  -0.66427  -0.65936  -0.64722
 Alpha  occ. eigenvalues --   -0.64286  -0.63465  -0.62894  -0.62543  -0.61772
 Alpha  occ. eigenvalues --   -0.61216  -0.60852  -0.60683  -0.59878  -0.59037
 Alpha  occ. eigenvalues --   -0.58821  -0.58285  -0.57130  -0.56675  -0.55932
 Alpha  occ. eigenvalues --   -0.55831  -0.55662  -0.55561  -0.54832  -0.54122
 Alpha  occ. eigenvalues --   -0.53932  -0.53823  -0.53296  -0.53193  -0.52920
 Alpha  occ. eigenvalues --   -0.51938  -0.51675  -0.51627  -0.50520  -0.50498
 Alpha  occ. eigenvalues --   -0.50129  -0.50046  -0.49647  -0.49066  -0.48976
 Alpha  occ. eigenvalues --   -0.48754  -0.48103  -0.47954  -0.47794  -0.47051
 Alpha  occ. eigenvalues --   -0.46965  -0.45663  -0.45503  -0.44765  -0.42785
 Alpha  occ. eigenvalues --   -0.41414  -0.41136  -0.38974  -0.38251  -0.38104
 Alpha  occ. eigenvalues --   -0.37485  -0.37247  -0.37033  -0.35466  -0.35192
 Alpha  occ. eigenvalues --   -0.34845  -0.34227  -0.33581  -0.33438  -0.32894
 Alpha  occ. eigenvalues --   -0.32480  -0.32447  -0.31845  -0.31189  -0.30724
 Alpha  occ. eigenvalues --   -0.30554  -0.30432  -0.26031  -0.25488
 Alpha virt. eigenvalues --    0.03283   0.03871   0.06232   0.07720   0.08908
 Alpha virt. eigenvalues --    0.09231   0.09804   0.10139   0.10782   0.12131
 Alpha virt. eigenvalues --    0.13179   0.14049   0.14379   0.14515   0.14560

 Mulliken charges:
               1
     1  N   -0.306510
     2  C    0.182246
     3  C    0.063673
     4  N   -0.259883
     5  C    0.148687
     6  H    0.028084
     7  N   -0.287367
     8  C    0.122924
     9  H    0.013255
    10  N   -0.272484
    11  C    0.244566
    12  C    0.080528
    13  N   -0.063222
    14  H    0.113208
    15  H    0.082849
    16  H    0.024917
    17  H    0.027409
    18  H    0.026712
    19  N   -0.304780
    20  C    0.268925
    21  C    0.183802
    22  N   -0.115452
    23  H    0.122647
    24  H    0.117427
    25  N   -0.298083
    26  C    0.209157
    27  N   -0.117831
    28  H    0.117521
    29  C    0.171499
    30  O   -0.320447
    31  C   -0.012819
    32  N   -0.225341
    33  C    0.106915
    34  H    0.022020
    35  H    0.023713
    36  H    0.030905
    37  H    0.024142
    38  H    0.066898
    39  H    0.052764
    40  H    0.077097
    41  H    0.023853
    42  C   -0.111965
    43  O   -0.266314
    44  C    0.173633
    45  H    0.132192
    46  N   -0.124805
    47  O   -0.346133
    48  C    0.344137
    49  H    0.043734
    50  C    0.164500
    51  C    0.045005
    52  N   -0.275705
    53  H    0.035258
    54  H    0.040278
    55  H    0.030058
    56  H    0.120794
    57  H    0.119403
    58  N   -0.060079
    59  C    0.093457
    60  C    0.202105
    61  N   -0.258540
    62  H    0.018506
    63  C    0.179451
    64  N   -0.309331
    65  H    0.039621
    66  C    0.132519
    67  N   -0.250344
    68  C    0.013360
    69  C    0.181476
    70  N   -0.300391
 Sum of Mulliken charges =  -0.00000

 Dipole moment (field-independent basis, Debye):
    X=             -7.2409    Y=              7.1638    Z=             -2.0039  Tot=             10.3811
 Quadrupole moment (field-independent basis, Debye-Ang):
   XX=           -156.2529   YY=           -225.2616   ZZ=           -254.3173
   XY=              1.9275   XZ=            -14.2400   YZ=             12.8996

 Normal termination of Gaussian 16 at Mon Jan 22 03:45:19 2018.
