 Gaussian 16, Revision A.03,
 Gaussian 16:  EM64L-G16RevA.03 25-Dec-2016

 ---------------------------------------
 #p wb97xd/cc-pvdz sp scf=(maxcycles=20)
 ---------------------------------------

 ------------------
 Base pair stacking
 ------------------
 Symbolic Z-matrix:
 Charge =  0 Multiplicity = 1

                         Standard orientation:
 ---------------------------------------------------------------------
 Center     Atomic      Atomic             Coordinates (Angstroms)
 Number     Number       Type             X           Y           Z
 ---------------------------------------------------------------------
      1          7           0       -7.213773   -1.238882    0.040244
      2          6           0       -8.577975   -0.690451    0.167475
      3          6           0       -5.040444   -1.537897    0.196944
      4          7           0       -5.526236   -2.603790   -0.546433
      5          6           0       -6.816144   -2.380979   -0.611087
      6          1           0       -7.531231   -3.023326   -1.125859
      7          7           0       -3.604138   -0.062223    1.346873
      8          6           0       -4.694217    0.659833    1.626033
      9          1           0       -4.518308    1.558438    2.215797
     10          7           0       -5.963031    0.439554    1.287639
     11          6           0       -6.068885   -0.688246    0.565628
     12          6           0       -3.743868   -1.191459    0.618611
     13          7           0       -2.656903   -1.913575    0.338931
     14          1           0       -2.713364   -2.756569   -0.197165
     15          1           0       -1.749574   -1.636712    0.655549
     16          1           0       -9.164390   -1.355751    0.629723
     17          1           0       -8.549896    0.154705    0.700430
     18          1           0       -8.947917   -0.497314   -0.741280
     19          7           0       -2.326857    2.568691   -1.629296
     20          6           0       -0.982337    2.371540   -1.425697
     21          6           0       -3.029378    3.861135   -1.499906
     22          7           0        2.152154    3.625908   -0.611273
     23          1           0        3.083527    3.276616   -0.512392
     24          1           0        2.013427    4.602176   -0.442789
     25          7           0       -0.084331    3.317783   -1.076033
     26          6           0        1.134295    2.822060   -0.954343
     27          7           0        1.451354    1.501037   -1.158980
     28          1           0        2.410211    1.210832   -1.043429
     29          6           0        0.543606    0.510047   -1.519265
     30          8           0        0.933296   -0.653224   -1.679520
     31          6           0       -0.769822    1.027442   -1.653770
     32          7           0       -1.957022    0.393512   -1.993724
     33          6           0       -2.850833    1.344611   -1.966523
     34          1           0       -3.910425    1.207417   -2.184980
     35          1           0       -3.736066    3.789362   -0.796878
     36          1           0       -2.374251    4.569754   -1.241191
     37          1           0       -3.451540    4.101837   -2.373214
     38          1           0        7.222243    0.285581    0.313359
     39          1           0        7.504862    0.344036   -1.424847
     40          1           0        6.235672    1.335034   -0.704817
     41          1           0        5.624974   -4.062748   -0.985627
     42          6           0        5.296129   -3.023638   -1.004157
     43          8           0        3.018066   -3.559113   -1.392546
     44          6           0        3.911961   -2.731019   -1.219362
     45          1           0        2.634609   -1.139498   -1.373521
     46          7           0        3.603026   -1.385731   -1.224349
     47          8           0        4.101570    0.824354   -1.068972
     48          6           0        4.470308   -0.336788   -1.048061
     49          1           0        7.228946   -2.191243   -0.661905
     50          6           0        6.166027   -2.022034   -0.829030
     51          6           0        6.751032    0.387495   -0.652892
     52          7           0        5.787417   -0.699647   -0.846125
     53          1           0        3.270521    2.546458    4.282224
     54          1           0        2.129443    3.037433    3.224402
     55          1           0        3.707846    3.114050    2.815924
     56          1           0        0.767799   -3.249179    0.381898
     57          1           0        2.384034   -3.121875    0.912630
     58          7           0        1.483948   -2.697183    0.809169
     59          6           0        1.250121   -1.450075    1.222961
     60          6           0        1.828872    0.638572    2.204981
     61          7           0        0.610343    1.183161    2.053161
     62          1           0       -1.232439    0.681144    1.309698
     63          6           0       -0.218216    0.318469    1.471180
     64          7           0        0.014079   -0.931035    1.056013
     65          1           0        4.939999    0.478221    3.069448
     66          6           0        3.936166    0.278954    2.693215
     67          7           0        3.556673   -0.848482    2.143146
     68          6           0        2.222515   -0.633897    1.828963
     69          6           0        3.018347    2.589456    3.315496
     70          7           0        2.941049    1.223215    2.762859
 ---------------------------------------------------------------------

 SCF Done:  E(RwB97XD) =  -2048.74694613     A.U. after   15 cycles

 The electronic state is 1-A.
 Alpha  occ. eigenvalues --  -19.26154 -19.22609 -19.20948 -14.52696 -14.50875
 Alpha  occ. eigenvalues --  -14.49172 -14.48890 -14.48213 -14.47285 -14.47268
 Alpha  occ. eigenvalues --  -14.45340 -14.43925 -14.42341 -14.42245 -14.42191
 Alpha  occ. eigenvalues --  -14.42039 -14.41849 -14.41213 -14.40960 -14.40420
 Alpha  occ. eigenvalues --  -10.45783 -10.41598 -10.40632 -10.38573 -10.38017
 Alpha  occ. eigenvalues --  -10.37624 -10.36475 -10.35674 -10.35641 -10.35337
 Alpha  occ. eigenvalues --  -10.34580 -10.34494 -10.33813 -10.33763 -10.33407
 Alpha  occ. eigenvalues --  -10.33385 -10.32779 -10.31294 -10.31291 -10.30878
 Alpha  occ. eigenvalues --  -10.30744 -10.28928 -10.28367  -1.19704  -1.13656
 Alpha  occ. eigenvalues --   -1.13608  -1.13447  -1.11762  -1.10804  -1.09607
 Alpha  occ. eigenvalues --   -1.08962  -1.06993  -1.05263  -1.02884  -1.02536
 Alpha  occ. eigenvalues --   -1.00644  -1.00221  -0.99241  -0.98814  -0.97299
 Alpha  occ. eigenvalues --   -0.96734  -0.94628  -0.92876  -0.91282  -0.85912
 Alpha  occ. eigenvalues --   -0.84401  -0.84305  -0.84280  -0.84003  -0.82660
 Alpha  occ. eigenvalues --   -0.82615  -0.79152  -0.75101  -0.74844  -0.74022
 Alpha  occ. eigenvalues --   -0.73694  -0.73195  -0.72818  -0.71368  -0.68445
 Alpha  occ. eigenvalues --   -0.67725  -0.66852  -0.66575  -0.64830  -0.64710
 Alpha  occ. eigenvalues --   -0.64011  -0.62991  -0.62943  -0.62218  -0.62084
 Alpha  occ. eigenvalues --   -0.60401  -0.59868  -0.59791  -0.58838  -0.58650
 Alpha  occ. eigenvalues --   -0.58376  -0.57759  -0.56788  -0.56705  -0.56682
 Alpha  occ. eigenvalues --   -0.56275  -0.55531  -0.54710  -0.54420  -0.53918
 Alpha  occ. eigenvalues --   -0.53731  -0.53627  -0.53164  -0.52808  -0.52332
 Alpha  occ. eigenvalues --   -0.52097  -0.51847  -0.51130  -0.51058  -0.50478
 Alpha  occ. eigenvalues --   -0.50458  -0.49789  -0.49337  -0.49219  -0.48920
 Alpha  occ. eigenvalues --   -0.48506  -0.48233  -0.47938  -0.47742  -0.47432
 Alpha  occ. eigenvalues --   -0.47252  -0.45413  -0.45009  -0.44292  -0.42846
 Alpha  occ. eigenvalues --   -0.41492  -0.39740  -0.39013  -0.37571  -0.37513
 Alpha  occ. eigenvalues --   -0.37475  -0.36482  -0.35818  -0.35610  -0.34809
 Alpha  occ. eigenvalues --   -0.33908  -0.33837  -0.33712  -0.33081  -0.32767
 Alpha  occ. eigenvalues --   -0.32493  -0.32264  -0.32167  -0.31986  -0.31328
 Alpha  occ. eigenvalues --   -0.30599  -0.27827  -0.26039  -0.25715
 Alpha virt. eigenvalues --    0.02779   0.05779   0.07666   0.08159   0.08736
 Alpha virt. eigenvalues --    0.09307   0.09491   0.10643   0.11426   0.12466
 Alpha virt. eigenvalues --    0.12704   0.13715   0.14393   0.14625   0.16176

 Mulliken charges:
               1
     1  N   -0.310418
     2  C    0.180814
     3  C    0.029063
     4  N   -0.256756
     5  C    0.131711
     6  H    0.027359
     7  N   -0.287716
     8  C    0.127443
     9  H    0.013658
    10  N   -0.288564
    11  C    0.235625
    12  C    0.112038
    13  N   -0.042937
    14  H    0.107993
    15  H    0.089809
    16  H    0.026719
    17  H    0.035476
    18  H    0.025102
    19  N   -0.309563
    20  C    0.248984
    21  C    0.181108
    22  N   -0.126281
    23  H    0.113582
    24  H    0.118354
    25  N   -0.305213
    26  C    0.245797
    27  N   -0.133103
    28  H    0.117176
    29  C    0.169249
    30  O   -0.324872
    31  C   -0.008749
    32  N   -0.223599
    33  C    0.132390
    34  H    0.030759
    35  H    0.032401
    36  H    0.028215
    37  H    0.024374
    38  H    0.058810
    39  H    0.061834
    40  H    0.072863
    41  H    0.031448
    42  C   -0.099950
    43  O   -0.284374
    44  C    0.162058
    45  H    0.137414
    46  N   -0.128998
    47  O   -0.354001
    48  C    0.366200
    49  H    0.048785
    50  C    0.180776
    51  C    0.040913
    52  N   -0.294487
    53  H    0.030161
    54  H    0.042207
    55  H    0.017207
    56  H    0.120430
    57  H    0.116937
    58  N   -0.030271
    59  C    0.101513
    60  C    0.243631
    61  N   -0.269563
    62  H    0.036433
    63  C    0.155181
    64  N   -0.301100
    65  H    0.024473
    66  C    0.128073
    67  N   -0.265377
    68  C    0.013876
    69  C    0.180989
    70  N   -0.311521
 Sum of Mulliken charges =  -0.00000

 Dipole moment (field-independent basis, Debye):
    X=              7.5059    Y=              6.0731    Z=              1.7694  Tot=              9.8159
 Quadrupole moment (field-independent basis, Debye-Ang):
   XX=           -139.6045   YY=           -224.1840   ZZ=           -249.5045
   XY=              8.1802   XZ=             17.3251   YZ=             -2.9935

 Normal termination of Gaussian 16 at Mon Jan 22 13:21:16 2018.
