 Gaussian 16, Revision A.03,
 Gaussian 16:  EM64L-G16RevA.03 25-Dec-2016

 ---------------------------------------
 #p wb97xd/cc-pvdz sp scf=(maxcycles=20)
 ---------------------------------------

 ------------------
 Base pair stacking
 ------------------
 Symbolic Z-matrix:
 Charge =  0 Multiplicity = 1

                         Standard orientation:
 ---------------------------------------------------------------------
 Center     Atomic      Atomic             Coordinates (Angstroms)
 Number     Number       Type             X           Y           Z
 ---------------------------------------------------------------------
      1          7           0        4.596458   -1.476869   -1.745997
      2          6           0        5.971522   -0.951690   -1.852708
      3          6           0        2.407130   -1.636544   -1.609413
      4          7           0        2.893919   -2.935198   -1.574108
      5          6           0        4.193426   -2.787024   -1.657811
      6          1           0        4.912099   -3.607056   -1.659699
      7          7           0        0.964061    0.229053   -1.616397
      8          6           0        2.063474    0.983052   -1.718159
      9          1           0        1.888363    2.057197   -1.760739
     10          7           0        3.340722    0.611144   -1.774948
     11          6           0        3.444758   -0.726784   -1.715205
     12          6           0        1.102200   -1.113572   -1.558433
     13          7           0        0.005932   -1.867905   -1.456836
     14          1           0        0.060866   -2.865955   -1.410937
     15          1           0       -0.907163   -1.461363   -1.423162
     16          1           0        6.404499   -1.312663   -2.678786
     17          1           0        5.945172    0.046394   -1.900284
     18          1           0        6.500588   -1.231654   -1.051634
     19          7           0        5.203536    1.800483    0.853895
     20          6           0        3.832197    1.742000    0.917464
     21          6           0        5.991123    2.995825    0.491167
     22          7           0        0.737531    3.284115    0.590852
     23          1           0       -0.225130    3.035284    0.693811
     24          1           0        0.936115    4.226267    0.319469
     25          7           0        2.980648    2.758520    0.661313
     26          6           0        1.718772    2.395036    0.806762
     27          7           0        1.319265    1.133126    1.174841
     28          1           0        0.332347    0.944923    1.261625
     29          6           0        2.177988    0.071815    1.443326
     30          8           0        1.714455   -1.028341    1.768187
     31          6           0        3.537016    0.447029    1.291246
     32          7           0        4.699652   -0.292599    1.458956
     33          6           0        5.660271    0.549324    1.189518
     34          1           0        6.723530    0.308909    1.220464
     35          1           0        6.539912    2.801566   -0.321172
     36          1           0        5.370979    3.755323    0.299219
     37          1           0        6.593906    3.242512    1.249198
     38          1           0       -4.717244    0.478172    0.892125
     39          1           0       -4.655230    0.677195    2.641747
     40          1           0       -3.456545    1.473179    1.621492
     41          1           0       -3.333356   -3.930537    2.231782
     42          6           0       -2.907187   -2.935473    2.103491
     43          8           0       -0.660273   -3.696000    2.110359
     44          6           0       -1.485597   -2.785990    2.036104
     45          1           0       -0.053163   -1.340253    1.820887
     46          7           0       -1.051567   -1.485909    1.872835
     47          8           0       -1.352436    0.751772    1.628969
     48          6           0       -1.829935   -0.360028    1.772356
     49          1           0       -4.779129   -1.916047    2.053885
     50          6           0       -3.692519   -1.856185    2.008554
     51          6           0       -4.062321    0.587613    1.743691
     52          7           0       -3.190358   -0.585804    1.846261
     53          1           0       -5.987975    4.017193   -1.576902
     54          1           0       -4.647383    3.915455   -0.652477
     55          1           0       -6.123268    3.800415    0.034973
     56          1           0       -3.500052   -2.973255   -1.479990
     57          1           0       -5.158820   -2.584493   -1.566394
     58          7           0       -4.214989   -2.274786   -1.446069
     59          6           0       -3.923775   -0.987300   -1.249184
     60          6           0       -4.435036    1.321204   -0.982460
     61          7           0       -3.158522    1.708262   -0.823990
     62          1           0       -1.281698    0.886089   -0.777467
     63          6           0       -2.340524    0.660134   -0.896170
     64          7           0       -2.630252   -0.630126   -1.093304
     65          1           0       -7.644460    1.639072   -1.207848
     66          6           0       -6.619068    1.269988   -1.171701
     67          7           0       -6.274023    0.013352   -1.311314
     68          6           0       -4.891818    0.031875   -1.193417
     69          6           0       -5.580631    3.579259   -0.775471
     70          7           0       -5.556374    2.116468   -0.969504
 ---------------------------------------------------------------------

 SCF Done:  E(RwB97XD) =  -2048.73169549     A.U. after   15 cycles

 The electronic state is 1-A.
 Alpha  occ. eigenvalues --  -19.25157 -19.21266 -19.20456 -14.52960 -14.51574
 Alpha  occ. eigenvalues --  -14.48909 -14.48904 -14.48509 -14.47140 -14.46590
 Alpha  occ. eigenvalues --  -14.46536 -14.45854 -14.44993 -14.44770 -14.43074
 Alpha  occ. eigenvalues --  -14.41881 -14.41240 -14.41210 -14.41161 -14.40706
 Alpha  occ. eigenvalues --  -10.44710 -10.41054 -10.40668 -10.39392 -10.38375
 Alpha  occ. eigenvalues --  -10.38072 -10.37693 -10.37118 -10.36415 -10.35891
 Alpha  occ. eigenvalues --  -10.34316 -10.34242 -10.33886 -10.33653 -10.33461
 Alpha  occ. eigenvalues --  -10.33365 -10.33212 -10.33112 -10.31083 -10.30687
 Alpha  occ. eigenvalues --  -10.30432 -10.28625 -10.28080  -1.18814  -1.15775
 Alpha  occ. eigenvalues --   -1.13108  -1.12309  -1.11155  -1.10634  -1.10013
 Alpha  occ. eigenvalues --   -1.08563  -1.08427  -1.05501  -1.05423  -1.01732
 Alpha  occ. eigenvalues --   -1.01445  -1.00913  -0.99616  -0.98475  -0.97570
 Alpha  occ. eigenvalues --   -0.96848  -0.96686  -0.93143  -0.90323  -0.88289
 Alpha  occ. eigenvalues --   -0.86359  -0.84209  -0.83897  -0.82745  -0.82544
 Alpha  occ. eigenvalues --   -0.82259  -0.78170  -0.77609  -0.75455  -0.74622
 Alpha  occ. eigenvalues --   -0.73545  -0.73107  -0.72660  -0.71301  -0.70996
 Alpha  occ. eigenvalues --   -0.67383  -0.67320  -0.66525  -0.65888  -0.64812
 Alpha  occ. eigenvalues --   -0.64246  -0.63474  -0.62989  -0.62517  -0.61757
 Alpha  occ. eigenvalues --   -0.61372  -0.60936  -0.60777  -0.59982  -0.59011
 Alpha  occ. eigenvalues --   -0.58766  -0.58269  -0.57296  -0.56750  -0.56059
 Alpha  occ. eigenvalues --   -0.55833  -0.55758  -0.55563  -0.54930  -0.54176
 Alpha  occ. eigenvalues --   -0.53995  -0.53906  -0.53345  -0.53127  -0.52880
 Alpha  occ. eigenvalues --   -0.51814  -0.51738  -0.51449  -0.50639  -0.50552
 Alpha  occ. eigenvalues --   -0.50093  -0.49984  -0.49676  -0.49111  -0.48986
 Alpha  occ. eigenvalues --   -0.48725  -0.48058  -0.47987  -0.47689  -0.47045
 Alpha  occ. eigenvalues --   -0.46997  -0.45542  -0.45360  -0.44727  -0.42670
 Alpha  occ. eigenvalues --   -0.41480  -0.41194  -0.38976  -0.38290  -0.38181
 Alpha  occ. eigenvalues --   -0.37642  -0.37217  -0.36958  -0.35415  -0.35211
 Alpha  occ. eigenvalues --   -0.34897  -0.34385  -0.33670  -0.33424  -0.32861
 Alpha  occ. eigenvalues --   -0.32438  -0.32384  -0.31810  -0.31012  -0.30771
 Alpha  occ. eigenvalues --   -0.30482  -0.30462  -0.26110  -0.25405
 Alpha virt. eigenvalues --    0.03249   0.03927   0.06149   0.07571   0.08899
 Alpha virt. eigenvalues --    0.09242   0.09779   0.10059   0.10760   0.12204
 Alpha virt. eigenvalues --    0.13150   0.14037   0.14422   0.14487   0.14514

 Mulliken charges:
               1
     1  N   -0.307012
     2  C    0.183623
     3  C    0.066203
     4  N   -0.260961
     5  C    0.148005
     6  H    0.028191
     7  N   -0.284020
     8  C    0.122993
     9  H    0.013973
    10  N   -0.269237
    11  C    0.244426
    12  C    0.078172
    13  N   -0.063366
    14  H    0.111962
    15  H    0.082268
    16  H    0.025191
    17  H    0.026545
    18  H    0.027275
    19  N   -0.302191
    20  C    0.269102
    21  C    0.184234
    22  N   -0.108499
    23  H    0.123242
    24  H    0.117263
    25  N   -0.288399
    26  C    0.182923
    27  N   -0.106251
    28  H    0.117182
    29  C    0.164129
    30  O   -0.320165
    31  C   -0.009580
    32  N   -0.224162
    33  C    0.102612
    34  H    0.021686
    35  H    0.022479
    36  H    0.030839
    37  H    0.024045
    38  H    0.065810
    39  H    0.049621
    40  H    0.079157
    41  H    0.024473
    42  C   -0.111503
    43  O   -0.266022
    44  C    0.174884
    45  H    0.132219
    46  N   -0.125036
    47  O   -0.345380
    48  C    0.341978
    49  H    0.043930
    50  C    0.164299
    51  C    0.047577
    52  N   -0.275491
    53  H    0.035578
    54  H    0.040121
    55  H    0.030445
    56  H    0.120519
    57  H    0.120102
    58  N   -0.061271
    59  C    0.094179
    60  C    0.195263
    61  N   -0.257650
    62  H    0.013396
    63  C    0.183459
    64  N   -0.307659
    65  H    0.039726
    66  C    0.131389
    67  N   -0.248503
    68  C    0.013996
    69  C    0.181478
    70  N   -0.299805
 Sum of Mulliken charges =  -0.00000

 Dipole moment (field-independent basis, Debye):
    X=             -7.2214    Y=              7.1387    Z=             -2.3080  Tot=             10.4133
 Quadrupole moment (field-independent basis, Debye-Ang):
   XX=           -156.3230   YY=           -226.1632   ZZ=           -254.6554
   XY=              2.3661   XZ=            -14.3570   YZ=             14.1627

 Normal termination of Gaussian 16 at Mon Jan 22 08:04:25 2018.
