 Gaussian 16, Revision A.03,
 Gaussian 16:  EM64L-G16RevA.03 25-Dec-2016

 ---------------------------------------
 #p wb97xd/cc-pvdz sp scf=(maxcycles=20)
 ---------------------------------------

 ------------------
 Base pair stacking
 ------------------
 Symbolic Z-matrix:
 Charge =  0 Multiplicity = 1

                         Standard orientation:
 ---------------------------------------------------------------------
 Center     Atomic      Atomic             Coordinates (Angstroms)
 Number     Number       Type             X           Y           Z
 ---------------------------------------------------------------------
      1          7           0       -6.955661   -1.310101    0.206491
      2          6           0       -8.318660   -0.755744    0.320153
      3          6           0       -4.780382   -1.599909    0.353099
      4          7           0       -5.274216   -2.704592   -0.325524
      5          6           0       -6.564972   -2.485778   -0.386689
      6          1           0       -7.285667   -3.155170   -0.857274
      7          7           0       -3.331560   -0.063893    1.404064
      8          6           0       -4.418784    0.672107    1.656713
      9          1           0       -4.236523    1.601380    2.194746
     10          7           0       -5.691375    0.433643    1.345983
     11          6           0       -5.804992   -0.731649    0.687501
     12          6           0       -3.479121   -1.230969    0.739809
     13          7           0       -2.395022   -1.967045    0.486669
     14          1           0       -2.457244   -2.837876   -0.002221
     15          1           0       -1.484189   -1.673315    0.776913
     16          1           0       -8.898996   -1.395071    0.824780
     17          1           0       -8.284857    0.117073    0.806134
     18          1           0       -8.699606   -0.612206   -0.593240
     19          7           0       -2.642358    2.514063   -1.606151
     20          6           0       -1.293129    2.334905   -1.417649
     21          6           0       -3.365941    3.790199   -1.436956
     22          7           0        1.825549    3.621233   -0.592462
     23          1           0        2.763512    3.285632   -0.509753
     24          1           0        1.671396    4.590084   -0.396775
     25          7           0       -0.408833    3.286891   -1.049157
     26          6           0        0.819025    2.809308   -0.949659
     27          7           0        1.157118    1.499940   -1.192041
     28          1           0        2.121668    1.223435   -1.091278
     29          6           0        0.263759    0.503343   -1.572287
     30          8           0        0.672106   -0.648284   -1.766588
     31          6           0       -1.059341    1.001283   -1.683327
     32          7           0       -2.238080    0.356168   -2.031622
     33          6           0       -3.147834    1.290544   -1.972387
     34          1           0       -4.206569    1.140870   -2.186777
     35          1           0       -4.065854    3.687369   -0.731021
     36          1           0       -2.721085    4.502890   -1.164015
     37          1           0       -3.798873    4.046823   -2.300391
     38          1           0        6.959170    0.345849    0.205295
     39          1           0        7.227360    0.455709   -1.532703
     40          1           0        5.946932    1.404904   -0.777121
     41          1           0        5.426789   -3.993204   -1.198614
     42          6           0        5.080028   -2.959839   -1.186799
     43          8           0        2.808577   -3.524194   -1.572968
     44          6           0        3.689443   -2.685634   -1.384038
     45          1           0        2.383816   -1.112970   -1.486093
     46          7           0        3.357436   -1.346270   -1.350609
     47          8           0        3.819174    0.867196   -1.139442
     48          6           0        4.207924   -0.287519   -1.152448
     49          1           0        7.000863   -2.103482   -0.836263
     50          6           0        5.933943   -1.948336   -0.991090
     51          6           0        6.478864    0.465397   -0.754426
     52          7           0        5.532577   -0.632736   -0.969863
     53          1           0        3.575702    2.700913    4.111073
     54          1           0        2.421673    3.133685    3.041946
     55          1           0        3.995019    3.188233    2.611025
     56          1           0        1.030983   -3.297942    0.560913
     57          1           0        2.653343   -3.141852    1.064555
     58          7           0        1.751763   -2.723507    0.949021
     59          6           0        1.521935   -1.455826    1.297382
     60          6           0        2.110775    0.683058    2.157730
     61          7           0        0.890103    1.218463    1.991229
     62          1           0       -0.961056    0.676652    1.298214
     63          6           0        0.055314    0.323391    1.466951
     64          7           0        0.283584   -0.946750    1.117365
     65          1           0        5.232152    0.570175    2.992260
     66          6           0        4.224039    0.350686    2.639448
     67          7           0        3.838867   -0.804955    2.155884
     68          6           0        2.500885   -0.607879    1.846544
     69          6           0        3.311948    2.691413    3.146523
     70          7           0        3.229100    1.297212    2.669735
 ---------------------------------------------------------------------

 SCF Done:  E(RwB97XD) =  -2048.74686802     A.U. after   15 cycles

 The electronic state is 1-A.
 Alpha  occ. eigenvalues --  -19.26088 -19.22406 -19.20799 -14.52604 -14.51221
 Alpha  occ. eigenvalues --  -14.49108 -14.48806 -14.48132 -14.47107 -14.47085
 Alpha  occ. eigenvalues --  -14.45942 -14.44281 -14.42634 -14.42492 -14.42224
 Alpha  occ. eigenvalues --  -14.42191 -14.41756 -14.41187 -14.40881 -14.40373
 Alpha  occ. eigenvalues --  -10.45709 -10.41461 -10.40473 -10.38425 -10.38093
 Alpha  occ. eigenvalues --  -10.37965 -10.36840 -10.35710 -10.35595 -10.35592
 Alpha  occ. eigenvalues --  -10.34494 -10.34409 -10.34161 -10.33690 -10.33350
 Alpha  occ. eigenvalues --  -10.33323 -10.33092 -10.31267 -10.31226 -10.31160
 Alpha  occ. eigenvalues --  -10.30806 -10.28841 -10.28263  -1.19636  -1.13880
 Alpha  occ. eigenvalues --   -1.13463  -1.13399  -1.11688  -1.10689  -1.09507
 Alpha  occ. eigenvalues --   -1.08798  -1.07462  -1.05209  -1.03036  -1.02763
 Alpha  occ. eigenvalues --   -1.00604  -1.00061  -0.99635  -0.98698  -0.97239
 Alpha  occ. eigenvalues --   -0.96638  -0.95078  -0.92836  -0.91217  -0.86281
 Alpha  occ. eigenvalues --   -0.84742  -0.84247  -0.84209  -0.83917  -0.82605
 Alpha  occ. eigenvalues --   -0.82527  -0.79071  -0.75508  -0.74747  -0.73892
 Alpha  occ. eigenvalues --   -0.73607  -0.73234  -0.73137  -0.71315  -0.68872
 Alpha  occ. eigenvalues --   -0.67596  -0.66768  -0.66528  -0.65226  -0.64667
 Alpha  occ. eigenvalues --   -0.63921  -0.62982  -0.62837  -0.62608  -0.61955
 Alpha  occ. eigenvalues --   -0.60385  -0.59894  -0.59713  -0.59042  -0.58730
 Alpha  occ. eigenvalues --   -0.58573  -0.58136  -0.56756  -0.56700  -0.56619
 Alpha  occ. eigenvalues --   -0.56190  -0.55523  -0.54618  -0.54507  -0.54067
 Alpha  occ. eigenvalues --   -0.53809  -0.53582  -0.53073  -0.52732  -0.52577
 Alpha  occ. eigenvalues --   -0.52237  -0.51974  -0.51455  -0.51060  -0.50433
 Alpha  occ. eigenvalues --   -0.50343  -0.49692  -0.49328  -0.49142  -0.48980
 Alpha  occ. eigenvalues --   -0.48441  -0.48377  -0.47789  -0.47744  -0.47518
 Alpha  occ. eigenvalues --   -0.47214  -0.45346  -0.45264  -0.44239  -0.43075
 Alpha  occ. eigenvalues --   -0.41440  -0.39659  -0.39368  -0.37465  -0.37434
 Alpha  occ. eigenvalues --   -0.37368  -0.36450  -0.36157  -0.35892  -0.34619
 Alpha  occ. eigenvalues --   -0.33818  -0.33786  -0.33590  -0.33059  -0.32866
 Alpha  occ. eigenvalues --   -0.32516  -0.32453  -0.32235  -0.31970  -0.31251
 Alpha  occ. eigenvalues --   -0.30580  -0.28229  -0.26034  -0.25591
 Alpha virt. eigenvalues --    0.02826   0.05331   0.07725   0.08170   0.08537
 Alpha virt. eigenvalues --    0.09256   0.09571   0.10700   0.11230   0.12104
 Alpha virt. eigenvalues --    0.12717   0.13746   0.14503   0.14581   0.15994

 Mulliken charges:
               1
     1  N   -0.310790
     2  C    0.180693
     3  C    0.034947
     4  N   -0.256544
     5  C    0.131612
     6  H    0.027135
     7  N   -0.287400
     8  C    0.127986
     9  H    0.012961
    10  N   -0.289764
    11  C    0.233960
    12  C    0.115173
    13  N   -0.045967
    14  H    0.108909
    15  H    0.089442
    16  H    0.026647
    17  H    0.034856
    18  H    0.024952
    19  N   -0.309429
    20  C    0.246608
    21  C    0.180622
    22  N   -0.122989
    23  H    0.112849
    24  H    0.117657
    25  N   -0.305267
    26  C    0.244179
    27  N   -0.131580
    28  H    0.116752
    29  C    0.161902
    30  O   -0.322464
    31  C   -0.000455
    32  N   -0.223952
    33  C    0.130361
    34  H    0.029341
    35  H    0.032414
    36  H    0.028008
    37  H    0.023940
    38  H    0.058374
    39  H    0.061690
    40  H    0.072111
    41  H    0.030459
    42  C   -0.105095
    43  O   -0.280206
    44  C    0.156263
    45  H    0.138601
    46  N   -0.127464
    47  O   -0.352678
    48  C    0.360239
    49  H    0.048493
    50  C    0.184011
    51  C    0.040726
    52  N   -0.290542
    53  H    0.031648
    54  H    0.041446
    55  H    0.019097
    56  H    0.124755
    57  H    0.116768
    58  N   -0.037306
    59  C    0.101791
    60  C    0.241488
    61  N   -0.268190
    62  H    0.042055
    63  C    0.155718
    64  N   -0.300155
    65  H    0.026932
    66  C    0.127493
    67  N   -0.264418
    68  C    0.010630
    69  C    0.179332
    70  N   -0.311374
 Sum of Mulliken charges =  -0.00000

 Dipole moment (field-independent basis, Debye):
    X=              7.3493    Y=              6.1158    Z=              2.1204  Tot=              9.7934
 Quadrupole moment (field-independent basis, Debye-Ang):
   XX=           -141.8198   YY=           -223.7846   ZZ=           -251.3918
   XY=              7.7926   XZ=             14.9641   YZ=             -3.9671

 Normal termination of Gaussian 16 at Mon Jan 22 08:15:39 2018.
