 Gaussian 16, Revision A.03,
 Gaussian 16:  EM64L-G16RevA.03 25-Dec-2016

 ---------------------------------------
 #p wb97xd/cc-pvdz sp scf=(maxcycles=20)
 ---------------------------------------

 ------------------
 Base pair stacking
 ------------------
 Symbolic Z-matrix:
 Charge =  0 Multiplicity = 1

                         Standard orientation:
 ---------------------------------------------------------------------
 Center     Atomic      Atomic             Coordinates (Angstroms)
 Number     Number       Type             X           Y           Z
 ---------------------------------------------------------------------
      1          7           0        5.196559   -1.442871   -1.417536
      2          6           0        6.569920   -0.902827   -1.401895
      3          6           0        3.004973   -1.625445   -1.447917
      4          7           0        3.502087   -2.920550   -1.430382
      5          6           0        4.802544   -2.758727   -1.412780
      6          1           0        5.528378   -3.572244   -1.395752
      7          7           0        1.545895    0.227323   -1.483860
      8          6           0        2.641482    0.993590   -1.474052
      9          1           0        2.458185    2.067149   -1.485264
     10          7           0        3.923476    0.634507   -1.452571
     11          6           0        4.037525   -0.703875   -1.440255
     12          6           0        1.694145   -1.115412   -1.471009
     13          7           0        0.601701   -1.881996   -1.480772
     14          1           0        0.664087   -2.880623   -1.471911
     15          1           0       -0.315806   -1.484460   -1.497258
     16          1           0        7.065683   -1.225626   -2.208233
     17          1           0        6.536162    0.096136   -1.410340
     18          1           0        7.042393   -1.211717   -0.576455
     19          7           0        4.624447    1.864106    1.105940
     20          6           0        3.252728    1.788900    1.077751
     21          6           0        5.421678    3.054606    0.748402
     22          7           0        0.170825    3.272490    0.475585
     23          1           0       -0.793781    3.014504    0.522631
     24          1           0        0.377045    4.205438    0.179304
     25          7           0        2.409504    2.781950    0.721549
     26          6           0        1.144769    2.406942    0.795232
     27          7           0        0.735051    1.155633    1.187488
     28          1           0       -0.253324    0.957214    1.214209
     29          6           0        1.585087    0.118439    1.558350
     30          8           0        1.112666   -0.973936    1.896373
     31          6           0        2.947064    0.506270    1.484220
     32          7           0        4.103607   -0.209374    1.762011
     33          6           0        5.070989    0.634305    1.524098
     34          1           0        6.132207    0.410408    1.637881
     35          1           0        6.027415    2.835027   -0.015570
     36          1           0        4.807746    3.796781    0.482821
     37          1           0        5.967834    3.340605    1.535000
     38          1           0       -5.259735    0.404447    0.519276
     39          1           0       -5.320978    0.675763    2.259186
     40          1           0       -4.063741    1.446181    1.291108
     41          1           0       -3.922073   -3.925752    2.133774
     42          6           0       -3.499305   -2.930851    1.993519
     43          8           0       -1.249795   -3.658646    2.186184
     44          6           0       -2.078225   -2.764185    2.017537
     45          1           0       -0.650749   -1.308373    1.840764
     46          7           0       -1.648652   -1.465871    1.830203
     47          8           0       -1.957168    0.755481    1.472956
     48          6           0       -2.430861   -0.356155    1.629629
     49          1           0       -5.374717   -1.940859    1.773136
     50          6           0       -4.288325   -1.867557    1.799937
     51          6           0       -4.666489    0.557886    1.408414
     52          7           0       -3.790520   -0.597917    1.619474
     53          1           0       -5.431653    3.955309   -1.797173
     54          1           0       -4.160742    3.825773   -0.782231
     55          1           0       -5.681343    3.670507   -0.209732
     56          1           0       -2.881022   -3.013172   -1.805253
     57          1           0       -4.533276   -2.634307   -1.996603
     58          7           0       -3.604128   -2.322404   -1.795059
     59          6           0       -3.342098   -1.041981   -1.524845
     60          6           0       -3.896626    1.249286   -1.201829
     61          7           0       -2.639302    1.639515   -0.934801
     62          1           0       -0.761937    0.831010   -0.785021
     63          6           0       -1.806807    0.601812   -0.989917
     64          7           0       -2.067302   -0.681366   -1.260379
     65          1           0       -7.084457    1.550814   -1.647872
     66          6           0       -6.060436    1.188689   -1.552056
     67          7           0       -5.692428   -0.058262   -1.717462
     68          6           0       -4.322733   -0.033719   -1.498245
     69          6           0       -5.078865    3.487611   -0.986743
     70          7           0       -5.024563    2.034407   -1.238259
 ---------------------------------------------------------------------

 SCF Done:  E(RwB97XD) =  -2048.72445016     A.U. after   15 cycles

 The electronic state is 1-A.
 Alpha  occ. eigenvalues --  -19.25154 -19.21471 -19.20414 -14.52890 -14.51905
 Alpha  occ. eigenvalues --  -14.48678 -14.48609 -14.48404 -14.47317 -14.46501
 Alpha  occ. eigenvalues --  -14.46343 -14.45968 -14.44732 -14.44570 -14.42835
 Alpha  occ. eigenvalues --  -14.41812 -14.41270 -14.40892 -14.40866 -14.40412
 Alpha  occ. eigenvalues --  -10.44855 -10.40986 -10.40472 -10.39590 -10.38435
 Alpha  occ. eigenvalues --  -10.38006 -10.37619 -10.37310 -10.36436 -10.35716
 Alpha  occ. eigenvalues --  -10.34373 -10.34163 -10.34078 -10.33993 -10.33360
 Alpha  occ. eigenvalues --  -10.33290 -10.32973 -10.32859 -10.31094 -10.30659
 Alpha  occ. eigenvalues --  -10.30619 -10.28527 -10.27891  -1.19097  -1.15793
 Alpha  occ. eigenvalues --   -1.13007  -1.12520  -1.11231  -1.10337  -1.09776
 Alpha  occ. eigenvalues --   -1.08859  -1.08350  -1.05303  -1.05242  -1.01958
 Alpha  occ. eigenvalues --   -1.01500  -1.00729  -0.99467  -0.98400  -0.97371
 Alpha  occ. eigenvalues --   -0.96929  -0.96390  -0.92962  -0.90592  -0.88161
 Alpha  occ. eigenvalues --   -0.86388  -0.84033  -0.83864  -0.83124  -0.82403
 Alpha  occ. eigenvalues --   -0.82255  -0.78407  -0.77538  -0.75433  -0.74412
 Alpha  occ. eigenvalues --   -0.73399  -0.73068  -0.72871  -0.71204  -0.70894
 Alpha  occ. eigenvalues --   -0.67349  -0.67148  -0.66499  -0.66083  -0.64782
 Alpha  occ. eigenvalues --   -0.64209  -0.63601  -0.62944  -0.62579  -0.61593
 Alpha  occ. eigenvalues --   -0.61481  -0.60933  -0.60748  -0.59927  -0.59190
 Alpha  occ. eigenvalues --   -0.58680  -0.58083  -0.57296  -0.56682  -0.56046
 Alpha  occ. eigenvalues --   -0.55947  -0.55761  -0.55591  -0.54652  -0.54168
 Alpha  occ. eigenvalues --   -0.53917  -0.53750  -0.53317  -0.53178  -0.52861
 Alpha  occ. eigenvalues --   -0.52662  -0.52104  -0.51902  -0.50815  -0.50422
 Alpha  occ. eigenvalues --   -0.50042  -0.49864  -0.49222  -0.49080  -0.49028
 Alpha  occ. eigenvalues --   -0.48538  -0.48345  -0.48054  -0.47548  -0.47142
 Alpha  occ. eigenvalues --   -0.47032  -0.45599  -0.44555  -0.44513  -0.42809
 Alpha  occ. eigenvalues --   -0.41357  -0.40885  -0.39088  -0.38159  -0.38107
 Alpha  occ. eigenvalues --   -0.37763  -0.37190  -0.36770  -0.35744  -0.35222
 Alpha  occ. eigenvalues --   -0.34805  -0.34244  -0.33554  -0.33242  -0.32778
 Alpha  occ. eigenvalues --   -0.32451  -0.31931  -0.31772  -0.31699  -0.30818
 Alpha  occ. eigenvalues --   -0.30457  -0.29696  -0.25966  -0.25185
 Alpha virt. eigenvalues --    0.03277   0.03760   0.06258   0.07859   0.09091
 Alpha virt. eigenvalues --    0.09597   0.09717   0.09865   0.11020   0.12554
 Alpha virt. eigenvalues --    0.12638   0.14045   0.14153   0.14348   0.14840

 Mulliken charges:
               1
     1  N   -0.310904
     2  C    0.177421
     3  C    0.065150
     4  N   -0.262257
     5  C    0.141313
     6  H    0.026729
     7  N   -0.283079
     8  C    0.124867
     9  H    0.022412
    10  N   -0.282860
    11  C    0.250151
    12  C    0.080690
    13  N   -0.054509
    14  H    0.108714
    15  H    0.081628
    16  H    0.027267
    17  H    0.027661
    18  H    0.027596
    19  N   -0.277723
    20  C    0.220888
    21  C    0.183447
    22  N   -0.107119
    23  H    0.114354
    24  H    0.115157
    25  N   -0.292802
    26  C    0.216283
    27  N   -0.116021
    28  H    0.112031
    29  C    0.171618
    30  O   -0.321798
    31  C   -0.003655
    32  N   -0.218629
    33  C    0.109127
    34  H    0.015709
    35  H    0.023151
    36  H    0.028106
    37  H    0.021833
    38  H    0.053576
    39  H    0.051479
    40  H    0.074805
    41  H    0.027025
    42  C   -0.106682
    43  O   -0.265308
    44  C    0.175571
    45  H    0.130126
    46  N   -0.120660
    47  O   -0.334020
    48  C    0.334181
    49  H    0.046043
    50  C    0.163020
    51  C    0.061351
    52  N   -0.279504
    53  H    0.037222
    54  H    0.037795
    55  H    0.028726
    56  H    0.121431
    57  H    0.118821
    58  N   -0.060705
    59  C    0.097850
    60  C    0.186333
    61  N   -0.256997
    62  H    0.014848
    63  C    0.177424
    64  N   -0.304192
    65  H    0.037006
    66  C    0.118752
    67  N   -0.248535
    68  C    0.027215
    69  C    0.182244
    70  N   -0.288188
 Sum of Mulliken charges =  -0.00000

 Dipole moment (field-independent basis, Debye):
    X=             -7.1374    Y=              6.7885    Z=             -3.0466  Tot=             10.3105
 Quadrupole moment (field-independent basis, Debye-Ang):
   XX=           -153.1118   YY=           -226.4977   ZZ=           -256.9250
   XY=             -1.4070   XZ=             -7.7713   YZ=             14.3715

 Normal termination of Gaussian 16 at Mon Jan 22 10:49:22 2018.
