 Gaussian 16, Revision A.03,
 Gaussian 16:  EM64L-G16RevA.03 25-Dec-2016

 ---------------------------------------
 #p wb97xd/cc-pvdz sp scf=(maxcycles=20)
 ---------------------------------------

 ------------------
 Base pair stacking
 ------------------
 Symbolic Z-matrix:
 Charge =  0 Multiplicity = 1

                         Standard orientation:
 ---------------------------------------------------------------------
 Center     Atomic      Atomic             Coordinates (Angstroms)
 Number     Number       Type             X           Y           Z
 ---------------------------------------------------------------------
      1          7           0       -6.644645   -1.332964    0.466482
      2          6           0       -7.997055   -0.744385    0.415644
      3          6           0       -4.475097   -1.609939    0.698095
      4          7           0       -4.989644   -2.850261    0.349443
      5          6           0       -6.276122   -2.633756    0.223848
      6          1           0       -7.009329   -3.394188   -0.046499
      7          7           0       -2.997553    0.130693    1.289736
      8          6           0       -4.070799    0.927301    1.323498
      9          1           0       -3.871072    1.965781    1.584113
     10          7           0       -5.347714    0.635074    1.084790
     11          6           0       -5.483241   -0.664750    0.774106
     12          6           0       -3.167057   -1.171827    0.973827
     13          7           0       -2.096947   -1.968601    0.939603
     14          1           0       -2.175544   -2.939476    0.710606
     15          1           0       -1.180694   -1.622418    1.141585
     16          1           0       -8.589012   -1.208452    1.074742
     17          1           0       -7.946830    0.228108    0.641166
     18          1           0       -8.375562   -0.852524   -0.503610
     19          7           0       -3.045517    2.218419   -1.589183
     20          6           0       -1.692292    2.081732   -1.393856
     21          6           0       -3.819133    3.456755   -1.368404
     22          7           0        1.366606    3.444606   -0.473289
     23          1           0        2.315913    3.141216   -0.395720
     24          1           0        1.173509    4.396536   -0.233988
     25          7           0       -0.848780    3.047949   -0.970829
     26          6           0        0.395475    2.613023   -0.879854
     27          7           0        0.785888    1.330386   -1.179727
     28          1           0        1.759320    1.086130   -1.081040
     29          6           0       -0.064845    0.319858   -1.616697
     30          8           0        0.389244   -0.804947   -1.860318
     31          6           0       -1.404950    0.772038   -1.719350
     32          7           0       -2.554644    0.100022   -2.111131
     33          6           0       -3.500113    0.995401   -2.018398
     34          1           0       -4.550193    0.816098   -2.251733
     35          1           0       -4.521389    3.294086   -0.676169
     36          1           0       -3.204775    4.179589   -1.054828
     37          1           0       -4.253223    3.737523   -2.223712
     38          1           0        6.614174    0.331794    0.228194
     39          1           0        6.894744    0.534149   -1.499514
     40          1           0        5.571588    1.397212   -0.714816
     41          1           0        5.263062   -3.990612   -1.395955
     42          6           0        4.876800   -2.972842   -1.339474
     43          8           0        2.632518   -3.603831   -1.777823
     44          6           0        3.478687   -2.742443   -1.539532
     45          1           0        2.114727   -1.217282   -1.582395
     46          7           0        3.095231   -1.419708   -1.446879
     47          8           0        3.469627    0.797124   -1.126443
     48          6           0        3.902511   -0.340117   -1.189336
     49          1           0        6.759877   -2.061973   -0.926991
     50          6           0        5.689345   -1.940172   -1.086577
     51          6           0        6.138924    0.478510   -0.730282
     52          7           0        5.237612   -0.643194   -1.008032
     53          1           0        3.960928    3.412188    3.158855
     54          1           0        2.814793    3.552715    2.006140
     55          1           0        4.388731    3.457497    1.584578
     56          1           0        1.303702   -3.288313    1.395934
     57          1           0        2.928864   -3.028096    1.844510
     58          7           0        2.035192   -2.641940    1.613327
     59          6           0        1.829142   -1.323447    1.596002
     60          6           0        2.458004    0.959070    1.833432
     61          7           0        1.247461    1.449320    1.519325
     62          1           0       -0.613702    0.770195    0.994454
     63          6           0        0.395958    0.459245    1.259316
     64          7           0        0.600416   -0.861924    1.276119
     65          1           0        5.577025    1.025536    2.681659
     66          6           0        4.564873    0.735110    2.398532
     67          7           0        4.158082   -0.502112    2.251949
     68          6           0        2.823886   -0.374354    1.893685
     69          6           0        3.696710    3.140752    2.233378
     70          7           0        3.587753    1.670757    2.160794
 ---------------------------------------------------------------------

 SCF Done:  E(RwB97XD) =  -2048.73947490     A.U. after   15 cycles

 The electronic state is 1-A.
 Alpha  occ. eigenvalues --  -19.25950 -19.22001 -19.20586 -14.52422 -14.51786
 Alpha  occ. eigenvalues --  -14.49257 -14.48571 -14.47904 -14.47102 -14.46662
 Alpha  occ. eigenvalues --  -14.46443 -14.44821 -14.43314 -14.42954 -14.42620
 Alpha  occ. eigenvalues --  -14.42024 -14.41879 -14.41505 -14.40680 -14.40611
 Alpha  occ. eigenvalues --  -10.45541 -10.41017 -10.40129 -10.38966 -10.38129
 Alpha  occ. eigenvalues --  -10.37754 -10.37380 -10.36351 -10.35880 -10.35461
 Alpha  occ. eigenvalues --  -10.34935 -10.34536 -10.34243 -10.33864 -10.33853
 Alpha  occ. eigenvalues --  -10.33620 -10.33126 -10.31713 -10.31415 -10.31035
 Alpha  occ. eigenvalues --  -10.30514 -10.29014 -10.28012  -1.19507  -1.14478
 Alpha  occ. eigenvalues --   -1.13177  -1.13032  -1.11836  -1.10457  -1.09316
 Alpha  occ. eigenvalues --   -1.08522  -1.08253  -1.05463  -1.03858  -1.02522
 Alpha  occ. eigenvalues --   -1.00911  -1.00331  -0.99636  -0.98471  -0.97425
 Alpha  occ. eigenvalues --   -0.96409  -0.95876  -0.93118  -0.91025  -0.86973
 Alpha  occ. eigenvalues --   -0.85478  -0.84421  -0.83951  -0.83751  -0.82777
 Alpha  occ. eigenvalues --   -0.82268  -0.78857  -0.76264  -0.74527  -0.74012
 Alpha  occ. eigenvalues --   -0.73576  -0.73377  -0.73357  -0.71555  -0.69677
 Alpha  occ. eigenvalues --   -0.67286  -0.66770  -0.66554  -0.66016  -0.64439
 Alpha  occ. eigenvalues --   -0.63675  -0.63577  -0.63138  -0.62672  -0.61626
 Alpha  occ. eigenvalues --   -0.60678  -0.60276  -0.59821  -0.59493  -0.58984
 Alpha  occ. eigenvalues --   -0.58877  -0.58222  -0.57059  -0.56901  -0.56540
 Alpha  occ. eigenvalues --   -0.55999  -0.55795  -0.55042  -0.54680  -0.54358
 Alpha  occ. eigenvalues --   -0.53755  -0.53550  -0.52992  -0.52805  -0.52569
 Alpha  occ. eigenvalues --   -0.52548  -0.52199  -0.52051  -0.51244  -0.50651
 Alpha  occ. eigenvalues --   -0.50044  -0.49599  -0.49438  -0.48955  -0.48728
 Alpha  occ. eigenvalues --   -0.48702  -0.48202  -0.48010  -0.47660  -0.47421
 Alpha  occ. eigenvalues --   -0.47357  -0.45592  -0.45359  -0.43953  -0.43569
 Alpha  occ. eigenvalues --   -0.41691  -0.40143  -0.39510  -0.37691  -0.37371
 Alpha  occ. eigenvalues --   -0.37198  -0.36967  -0.36518  -0.35842  -0.34165
 Alpha  occ. eigenvalues --   -0.34147  -0.33932  -0.33704  -0.33189  -0.32935
 Alpha  occ. eigenvalues --   -0.32623  -0.32188  -0.31947  -0.31770  -0.31424
 Alpha  occ. eigenvalues --   -0.30860  -0.28793  -0.26244  -0.25336
 Alpha virt. eigenvalues --    0.03092   0.04785   0.07488   0.07676   0.08929
 Alpha virt. eigenvalues --    0.09157   0.09639   0.10417   0.10999   0.11383
 Alpha virt. eigenvalues --    0.12952   0.13757   0.14406   0.14675   0.14742

 Mulliken charges:
               1
     1  N   -0.311987
     2  C    0.180403
     3  C    0.047881
     4  N   -0.258282
     5  C    0.133651
     6  H    0.027901
     7  N   -0.281535
     8  C    0.126541
     9  H    0.013899
    10  N   -0.290435
    11  C    0.233000
    12  C    0.112791
    13  N   -0.050182
    14  H    0.108614
    15  H    0.088835
    16  H    0.026954
    17  H    0.033481
    18  H    0.026095
    19  N   -0.302988
    20  C    0.244472
    21  C    0.178989
    22  N   -0.093880
    23  H    0.108810
    24  H    0.114718
    25  N   -0.296082
    26  C    0.216204
    27  N   -0.123063
    28  H    0.116872
    29  C    0.142525
    30  O   -0.319878
    31  C    0.016626
    32  N   -0.222582
    33  C    0.121892
    34  H    0.025654
    35  H    0.029798
    36  H    0.026579
    37  H    0.022989
    38  H    0.056951
    39  H    0.062836
    40  H    0.069961
    41  H    0.029950
    42  C   -0.115186
    43  O   -0.268637
    44  C    0.172997
    45  H    0.135893
    46  N   -0.131791
    47  O   -0.348694
    48  C    0.355796
    49  H    0.047398
    50  C    0.180664
    51  C    0.039934
    52  N   -0.287559
    53  H    0.036006
    54  H    0.030688
    55  H    0.024090
    56  H    0.123725
    57  H    0.117137
    58  N   -0.061274
    59  C    0.112626
    60  C    0.237934
    61  N   -0.273683
    62  H    0.043517
    63  C    0.169276
    64  N   -0.301356
    65  H    0.031438
    66  C    0.120534
    67  N   -0.257817
    68  C    0.004898
    69  C    0.173710
    70  N   -0.307243
 Sum of Mulliken charges =  -0.00000

 Dipole moment (field-independent basis, Debye):
    X=              6.7764    Y=              6.0420    Z=              3.1147  Tot=              9.5983
 Quadrupole moment (field-independent basis, Debye-Ang):
   XX=           -144.0992   YY=           -224.9172   ZZ=           -255.2677
   XY=              9.0465   XZ=             10.7223   YZ=             -9.0204

 Normal termination of Gaussian 16 at Mon Jan 22 15:41:57 2018.
