 Gaussian 16, Revision A.03,
 Gaussian 16:  EM64L-G16RevA.03 25-Dec-2016

 ---------------------------------------
 #p wb97xd/cc-pvdz sp scf=(maxcycles=20)
 ---------------------------------------

 ------------------
 Base pair stacking
 ------------------
 Symbolic Z-matrix:
 Charge =  0 Multiplicity = 1

                         Standard orientation:
 ---------------------------------------------------------------------
 Center     Atomic      Atomic             Coordinates (Angstroms)
 Number     Number       Type             X           Y           Z
 ---------------------------------------------------------------------
      1          7           0        4.560016   -1.909447   -1.719456
      2          6           0        5.913270   -1.487176   -2.129825
      3          6           0        2.390566   -1.973427   -1.363520
      4          7           0        2.902224   -3.158938   -0.856080
      5          6           0        4.188761   -3.072943   -1.090828
      6          1           0        4.920060   -3.836482   -0.824085
      7          7           0        0.917323   -0.243336   -1.995423
      8          6           0        1.991953    0.394713   -2.470410
      9          1           0        1.794571    1.366994   -2.919818
     10          7           0        3.267822    0.013844   -2.473589
     11          6           0        3.400455   -1.193058   -1.898936
     12          6           0        1.083913   -1.455701   -1.423148
     13          7           0        0.012391   -2.094180   -0.948412
     14          1           0        0.088836   -2.993662   -0.516775
     15          1           0       -0.902794   -1.695403   -1.007977
     16          1           0        6.289026   -2.150623   -2.776996
     17          1           0        5.865200   -0.588704   -2.565208
     18          1           0        6.506411   -1.435072   -1.326421
     19          7           0        5.218373    2.032186    0.725651
     20          6           0        3.851325    2.003952    0.861443
     21          6           0        6.012882    3.212806    0.331199
     22          7           0        0.779895    3.618159    0.711848
     23          1           0       -0.181432    3.390088    0.863772
     24          1           0        0.985399    4.558058    0.437847
     25          7           0        3.010957    3.041658    0.658970
     26          6           0        1.750536    2.705305    0.868271
     27          7           0        1.342221    1.449360    1.246941
     28          1           0        0.357217    1.282593    1.384471
     29          6           0        2.189377    0.366604    1.460985
     30          8           0        1.718570   -0.725806    1.801185
     31          6           0        3.546717    0.712550    1.239991
     32          7           0        4.699325   -0.054522    1.339852
     33          6           0        5.663409    0.768037    1.026550
     34          1           0        6.721023    0.503519    0.999103
     35          1           0        6.513346    3.013739   -0.510649
     36          1           0        5.401027    3.987791    0.178511
     37          1           0        6.660392    3.438906    1.058121
     38          1           0       -4.714220    0.932860    1.279756
     39          1           0       -4.555226    1.114338    3.025160
     40          1           0       -3.394236    1.892540    1.949125
     41          1           0       -3.362886   -3.517973    2.508804
     42          6           0       -2.921394   -2.531598    2.366040
     43          8           0       -0.695281   -3.342463    2.247572
     44          6           0       -1.502296   -2.413488    2.224497
     45          1           0       -0.050475   -0.998385    1.945115
     46          7           0       -1.047816   -1.122036    2.048817
     47          8           0       -1.309768    1.123982    1.839153
     48          6           0       -1.804382    0.021921    1.998794
     49          1           0       -4.769462   -1.469948    2.423989
     50          6           0       -3.685690   -1.434107    2.321545
     51          6           0       -4.012851    1.019725    2.096216
     52          7           0       -3.163821   -0.173892    2.142987
     53          1           0       -6.079725    3.343725   -2.920978
     54          1           0       -4.671420    3.597594   -2.137172
     55          1           0       -6.088759    3.782722   -1.349153
     56          1           0       -3.464561   -3.072672   -0.264622
     57          1           0       -5.131921   -2.727835   -0.369959
     58          7           0       -4.187499   -2.408210   -0.454359
     59          6           0       -3.905752   -1.151539   -0.804438
     60          6           0       -4.437388    1.081254   -1.431934
     61          7           0       -3.159813    1.482619   -1.537440
     62          1           0       -1.270164    0.721001   -1.314320
     63          6           0       -2.330639    0.480476   -1.252661
     64          7           0       -2.610868   -0.778875   -0.901822
     65          1           0       -7.659921    1.326480   -1.517663
     66          6           0       -6.628172    0.988204   -1.417539
     67          7           0       -6.271822   -0.225886   -1.075975
     68          6           0       -4.885227   -0.180512   -1.081308
     69          6           0       -5.605025    3.252455   -2.045577
     70          7           0       -5.568843    1.831694   -1.647896
 ---------------------------------------------------------------------

 SCF Done:  E(RwB97XD) =  -2048.74747168     A.U. after   15 cycles

 The electronic state is 1-A.
 Alpha  occ. eigenvalues --  -19.25581 -19.21774 -19.20701 -14.52571 -14.52147
 Alpha  occ. eigenvalues --  -14.49175 -14.48435 -14.48019 -14.47453 -14.46979
 Alpha  occ. eigenvalues --  -14.46813 -14.45530 -14.44692 -14.44567 -14.42339
 Alpha  occ. eigenvalues --  -14.42190 -14.41441 -14.40733 -14.40563 -14.40273
 Alpha  occ. eigenvalues --  -10.45152 -10.41408 -10.40253 -10.39879 -10.38374
 Alpha  occ. eigenvalues --  -10.38093 -10.37622 -10.37430 -10.36098 -10.35319
 Alpha  occ. eigenvalues --  -10.34706 -10.34661 -10.33908 -10.33839 -10.33354
 Alpha  occ. eigenvalues --  -10.32928 -10.32902 -10.32892 -10.31256 -10.30742
 Alpha  occ. eigenvalues --  -10.30368 -10.28421 -10.28098  -1.19113  -1.15354
 Alpha  occ. eigenvalues --   -1.13367  -1.12789  -1.10899  -1.10657  -1.09685
 Alpha  occ. eigenvalues --   -1.08973  -1.08704  -1.05117  -1.04877  -1.02128
 Alpha  occ. eigenvalues --   -1.01105  -1.00286  -0.99896  -0.98763  -0.97179
 Alpha  occ. eigenvalues --   -0.96943  -0.96317  -0.92581  -0.90803  -0.87823
 Alpha  occ. eigenvalues --   -0.85999  -0.84447  -0.83413  -0.83268  -0.82811
 Alpha  occ. eigenvalues --   -0.81803  -0.78624  -0.77256  -0.75067  -0.74896
 Alpha  occ. eigenvalues --   -0.73810  -0.73049  -0.72558  -0.70762  -0.70589
 Alpha  occ. eigenvalues --   -0.67598  -0.67043  -0.66274  -0.65963  -0.64552
 Alpha  occ. eigenvalues --   -0.64420  -0.63741  -0.62797  -0.62414  -0.61997
 Alpha  occ. eigenvalues --   -0.60781  -0.60490  -0.60274  -0.59492  -0.59297
 Alpha  occ. eigenvalues --   -0.59089  -0.58533  -0.56993  -0.56267  -0.55894
 Alpha  occ. eigenvalues --   -0.55674  -0.55460  -0.55220  -0.54531  -0.54239
 Alpha  occ. eigenvalues --   -0.53787  -0.53704  -0.53619  -0.53181  -0.53010
 Alpha  occ. eigenvalues --   -0.52759  -0.52100  -0.51292  -0.50427  -0.50294
 Alpha  occ. eigenvalues --   -0.50132  -0.49770  -0.49499  -0.49327  -0.49004
 Alpha  occ. eigenvalues --   -0.48591  -0.48423  -0.48202  -0.48047  -0.47324
 Alpha  occ. eigenvalues --   -0.46575  -0.45793  -0.45642  -0.44605  -0.43017
 Alpha  occ. eigenvalues --   -0.40942  -0.40862  -0.39235  -0.38046  -0.37790
 Alpha  occ. eigenvalues --   -0.37565  -0.37477  -0.36721  -0.35683  -0.35035
 Alpha  occ. eigenvalues --   -0.34588  -0.34171  -0.33278  -0.33122  -0.32971
 Alpha  occ. eigenvalues --   -0.32812  -0.32676  -0.32047  -0.31906  -0.30467
 Alpha  occ. eigenvalues --   -0.30211  -0.29926  -0.25802  -0.25520
 Alpha virt. eigenvalues --    0.03084   0.03790   0.06587   0.08280   0.08818
 Alpha virt. eigenvalues --    0.09029   0.09583   0.10382   0.11246   0.11786
 Alpha virt. eigenvalues --    0.13311   0.13965   0.14316   0.14849   0.14932

 Mulliken charges:
               1
     1  N   -0.307081
     2  C    0.181622
     3  C    0.055321
     4  N   -0.254716
     5  C    0.149610
     6  H    0.026654
     7  N   -0.296341
     8  C    0.128889
     9  H    0.009724
    10  N   -0.283793
    11  C    0.246544
    12  C    0.086560
    13  N   -0.064432
    14  H    0.117090
    15  H    0.085697
    16  H    0.023103
    17  H    0.029167
    18  H    0.024297
    19  N   -0.310063
    20  C    0.262561
    21  C    0.181978
    22  N   -0.124325
    23  H    0.119457
    24  H    0.118739
    25  N   -0.312818
    26  C    0.249705
    27  N   -0.145377
    28  H    0.120585
    29  C    0.193391
    30  O   -0.320031
    31  C   -0.016385
    32  N   -0.228326
    33  C    0.118078
    34  H    0.022897
    35  H    0.026732
    36  H    0.031018
    37  H    0.025000
    38  H    0.067588
    39  H    0.058685
    40  H    0.075058
    41  H    0.021806
    42  C   -0.123623
    43  O   -0.268791
    44  C    0.170290
    45  H    0.132115
    46  N   -0.123254
    47  O   -0.350652
    48  C    0.351197
    49  H    0.042598
    50  C    0.173832
    51  C    0.038091
    52  N   -0.276520
    53  H    0.034398
    54  H    0.041886
    55  H    0.028966
    56  H    0.123734
    57  H    0.115883
    58  N   -0.055704
    59  C    0.090475
    60  C    0.233679
    61  N   -0.266786
    62  H    0.032215
    63  C    0.172366
    64  N   -0.313627
    65  H    0.039251
    66  C    0.135997
    67  N   -0.257875
    68  C    0.011906
    69  C    0.180649
    70  N   -0.306567
 Sum of Mulliken charges =  -0.00000

 Dipole moment (field-independent basis, Debye):
    X=             -7.2361    Y=              7.4810    Z=             -1.1342  Tot=             10.4696
 Quadrupole moment (field-independent basis, Debye-Ang):
   XX=           -155.9065   YY=           -222.4973   ZZ=           -252.8753
   XY=             -0.3922   XZ=            -13.2271   YZ=              6.1710

 Normal termination of Gaussian 16 at Mon Jan 22 04:07:57 2018.
