 Gaussian 16, Revision A.03,
 Gaussian 16:  EM64L-G16RevA.03 25-Dec-2016

 ---------------------------------------
 #p wb97xd/cc-pvdz sp scf=(maxcycles=20)
 ---------------------------------------

 ------------------
 Base pair stacking
 ------------------
 Symbolic Z-matrix:
 Charge =  0 Multiplicity = 1

                         Standard orientation:
 ---------------------------------------------------------------------
 Center     Atomic      Atomic             Coordinates (Angstroms)
 Number     Number       Type             X           Y           Z
 ---------------------------------------------------------------------
      1          7           0       -5.516418   -1.707216    1.181504
      2          6           0       -6.886964   -1.211150    1.412919
      3          6           0       -3.325757   -1.874708    1.080244
      4          7           0       -3.829699   -3.064803    0.575842
      5          6           0       -5.129321   -2.916274    0.657036
      6          1           0       -5.859451   -3.663886    0.345709
      7          7           0       -1.856907   -0.172054    1.791869
      8          6           0       -2.948484    0.531915    2.108842
      9          1           0       -2.759533    1.518413    2.530010
     10          7           0       -4.232389    0.201805    1.984249
     11          6           0       -4.353483   -1.028020    1.457655
     12          6           0       -2.012232   -1.405882    1.264016
     13          7           0       -0.923804   -2.110143    0.946967
     14          1           0       -0.991437   -3.027754    0.553759
     15          1           0       -0.004182   -1.744737    1.091595
     16          1           0       -7.362517   -1.823861    2.044274
     17          1           0       -6.847950   -0.293230    1.806642
     18          1           0       -7.382993   -1.179017    0.545215
     19          7           0       -4.283949    2.225709   -1.171660
     20          6           0       -2.912557    2.141088   -1.158301
     21          6           0       -5.068482    3.428053   -0.825863
     22          7           0        0.186647    3.612702   -0.618816
     23          1           0        1.148789    3.346947   -0.672648
     24          1           0       -0.009462    4.552192   -0.336671
     25          7           0       -2.058195    3.134119   -0.829676
     26          6           0       -0.797094    2.748734   -0.911602
     27          7           0       -0.400874    1.487781   -1.286465
     28          1           0        0.585694    1.281767   -1.321315
     29          6           0       -1.262536    0.450393   -1.628875
     30          8           0       -0.801858   -0.651150   -1.953072
     31          6           0       -2.620772    0.849314   -1.545594
     32          7           0       -3.785541    0.137285   -1.797029
     33          6           0       -4.744067    0.991993   -1.562697
     34          1           0       -5.808111    0.773819   -1.659997
     35          1           0       -5.666613    3.226347   -0.051039
     36          1           0       -4.446230    4.170323   -0.580695
     37          1           0       -5.621943    3.704109   -1.610901
     38          1           0        5.596015    0.705103   -0.675729
     39          1           0        5.638441    0.945295   -2.420763
     40          1           0        4.398262    1.741715   -1.451731
     41          1           0        4.208829   -3.643046   -2.197514
     42          6           0        3.794759   -2.642800   -2.069899
     43          8           0        1.538058   -3.357570   -2.223143
     44          6           0        2.374698   -2.466305   -2.080127
     45          1           0        0.959700   -0.997316   -1.912332
     46          7           0        1.956525   -1.161814   -1.910747
     47          8           0        2.284876    1.063186   -1.596506
     48          6           0        2.748844   -0.054432   -1.739057
     49          1           0        5.679575   -1.662683   -1.889177
     50          6           0        4.593477   -1.581997   -1.904471
     51          6           0        4.993311    0.847164   -1.560391
     52          7           0        4.106789   -0.305810   -1.740644
     53          1           0        5.145273    3.183804    3.337851
     54          1           0        3.846909    3.450096    2.386286
     55          1           0        5.350782    3.537388    1.757920
     56          1           0        2.560627   -3.258659    0.714905
     57          1           0        4.219320   -2.973968    0.993820
     58          7           0        3.286681   -2.613704    0.953691
     59          6           0        3.023954   -1.330061    1.207513
     60          6           0        3.581153    0.910665    1.782296
     61          7           0        2.319105    1.366612    1.720923
     62          1           0        0.434338    0.668417    1.319945
     63          6           0        1.483159    0.383773    1.392103
     64          7           0        1.744355   -0.902514    1.137495
     65          1           0        6.781304    1.034280    2.224958
     66          6           0        5.753260    0.731627    2.023785
     67          7           0        5.383541   -0.484185    1.703171
     68          6           0        4.008591   -0.384544    1.547243
     69          6           0        4.768473    3.064406    2.419276
     70          7           0        4.713617    1.626902    2.089769
 ---------------------------------------------------------------------

 SCF Done:  E(RwB97XD) =  -2048.75172298     A.U. after   15 cycles

 The electronic state is 1-A.
 Alpha  occ. eigenvalues --  -19.25706 -19.22067 -19.20584 -14.52464 -14.52241
 Alpha  occ. eigenvalues --  -14.48714 -14.48481 -14.48053 -14.47666 -14.46864
 Alpha  occ. eigenvalues --  -14.46576 -14.45524 -14.44218 -14.44194 -14.42162
 Alpha  occ. eigenvalues --  -14.41968 -14.41019 -14.40920 -14.40863 -14.40184
 Alpha  occ. eigenvalues --  -10.45276 -10.41192 -10.40103 -10.39868 -10.38201
 Alpha  occ. eigenvalues --  -10.38017 -10.37514 -10.37148 -10.35685 -10.35293
 Alpha  occ. eigenvalues --  -10.34868 -10.34301 -10.33934 -10.33755 -10.33361
 Alpha  occ. eigenvalues --  -10.33121 -10.32994 -10.32648 -10.30954 -10.30934
 Alpha  occ. eigenvalues --  -10.30805 -10.28255 -10.28077  -1.19276  -1.15201
 Alpha  occ. eigenvalues --   -1.13154  -1.13045  -1.11036  -1.10541  -1.09251
 Alpha  occ. eigenvalues --   -1.09109  -1.08511  -1.04906  -1.04722  -1.02348
 Alpha  occ. eigenvalues --   -1.00987  -1.00305  -0.99666  -0.98505  -0.96849
 Alpha  occ. eigenvalues --   -0.96605  -0.96548  -0.92583  -0.90874  -0.87604
 Alpha  occ. eigenvalues --   -0.85906  -0.84066  -0.83733  -0.83412  -0.82434
 Alpha  occ. eigenvalues --   -0.82153  -0.78696  -0.76996  -0.74784  -0.74568
 Alpha  occ. eigenvalues --   -0.73587  -0.73210  -0.72726  -0.70891  -0.70359
 Alpha  occ. eigenvalues --   -0.67330  -0.66759  -0.66358  -0.66130  -0.64382
 Alpha  occ. eigenvalues --   -0.64197  -0.63677  -0.62610  -0.62563  -0.61717
 Alpha  occ. eigenvalues --   -0.60676  -0.60452  -0.60289  -0.59398  -0.59296
 Alpha  occ. eigenvalues --   -0.58967  -0.58291  -0.56674  -0.56435  -0.56127
 Alpha  occ. eigenvalues --   -0.55861  -0.55436  -0.55184  -0.54276  -0.53999
 Alpha  occ. eigenvalues --   -0.53736  -0.53618  -0.53549  -0.53315  -0.52913
 Alpha  occ. eigenvalues --   -0.52756  -0.52267  -0.51651  -0.50592  -0.50150
 Alpha  occ. eigenvalues --   -0.50126  -0.49813  -0.49347  -0.48844  -0.48765
 Alpha  occ. eigenvalues --   -0.48703  -0.48538  -0.48344  -0.47556  -0.47309
 Alpha  occ. eigenvalues --   -0.46789  -0.45824  -0.45005  -0.44618  -0.43424
 Alpha  occ. eigenvalues --   -0.40914  -0.40694  -0.39303  -0.37773  -0.37522
 Alpha  occ. eigenvalues --   -0.37276  -0.37234  -0.36955  -0.36080  -0.34642
 Alpha  occ. eigenvalues --   -0.34293  -0.33955  -0.33298  -0.33223  -0.33169
 Alpha  occ. eigenvalues --   -0.32661  -0.32440  -0.32269  -0.31870  -0.30731
 Alpha  occ. eigenvalues --   -0.30346  -0.29397  -0.25648  -0.25298
 Alpha virt. eigenvalues --    0.03184   0.03962   0.07106   0.07961   0.08607
 Alpha virt. eigenvalues --    0.09295   0.09815   0.10467   0.11209   0.12205
 Alpha virt. eigenvalues --    0.12814   0.14204   0.14561   0.14593   0.14946

 Mulliken charges:
               1
     1  N   -0.311654
     2  C    0.179863
     3  C    0.064090
     4  N   -0.257460
     5  C    0.138710
     6  H    0.025767
     7  N   -0.295435
     8  C    0.134504
     9  H    0.011086
    10  N   -0.290243
    11  C    0.244152
    12  C    0.097577
    13  N   -0.050154
    14  H    0.112648
    15  H    0.083404
    16  H    0.025567
    17  H    0.030476
    18  H    0.023969
    19  N   -0.304681
    20  C    0.254123
    21  C    0.181437
    22  N   -0.118130
    23  H    0.115557
    24  H    0.116924
    25  N   -0.309662
    26  C    0.240457
    27  N   -0.146311
    28  H    0.120567
    29  C    0.188721
    30  O   -0.323066
    31  C   -0.015752
    32  N   -0.223051
    33  C    0.125950
    34  H    0.018715
    35  H    0.029372
    36  H    0.028628
    37  H    0.022811
    38  H    0.060564
    39  H    0.059770
    40  H    0.072970
    41  H    0.023948
    42  C   -0.106944
    43  O   -0.269197
    44  C    0.158458
    45  H    0.130980
    46  N   -0.112021
    47  O   -0.340862
    48  C    0.333469
    49  H    0.046684
    50  C    0.167711
    51  C    0.036552
    52  N   -0.276599
    53  H    0.034534
    54  H    0.039971
    55  H    0.026827
    56  H    0.127361
    57  H    0.115397
    58  N   -0.051314
    59  C    0.080849
    60  C    0.240290
    61  N   -0.271260
    62  H    0.035642
    63  C    0.162703
    64  N   -0.302762
    65  H    0.036884
    66  C    0.124985
    67  N   -0.259800
    68  C    0.027944
    69  C    0.181523
    70  N   -0.304730
 Sum of Mulliken charges =  -0.00000

 Dipole moment (field-independent basis, Debye):
    X=              7.2712    Y=              6.7366    Z=              2.3100  Tot=             10.1778
 Quadrupole moment (field-independent basis, Debye-Ang):
   XX=           -150.8348   YY=           -222.4648   ZZ=           -255.6833
   XY=              3.8717   XZ=             -2.1413   YZ=             -6.1984

 Normal termination of Gaussian 16 at Mon Jan 22 14:43:02 2018.
