 Gaussian 16, Revision A.03,
 Gaussian 16:  EM64L-G16RevA.03 25-Dec-2016

 ---------------------------------------
 #p wb97xd/cc-pvdz sp scf=(maxcycles=20)
 ---------------------------------------

 ------------------
 Base pair stacking
 ------------------
 Symbolic Z-matrix:
 Charge =  0 Multiplicity = 1

                         Standard orientation:
 ---------------------------------------------------------------------
 Center     Atomic      Atomic             Coordinates (Angstroms)
 Number     Number       Type             X           Y           Z
 ---------------------------------------------------------------------
      1          7           0        4.251306   -1.764326   -1.916822
      2          6           0        5.603769   -1.307143   -2.290740
      3          6           0        2.085821   -1.852026   -1.542232
      4          7           0        2.591240   -3.095135   -1.190134
      5          6           0        3.875631   -2.992538   -1.429899
      6          1           0        4.602116   -3.789405   -1.268146
      7          7           0        0.623122   -0.044704   -1.938497
      8          6           0        1.698473    0.637015   -2.346483
      9          1           0        1.505778    1.658612   -2.671229
     10          7           0        2.970147    0.248061   -2.413249
     11          6           0        3.097188   -1.021109   -1.991958
     12          6           0        0.784025   -1.319309   -1.520696
     13          7           0       -0.288216   -2.001441   -1.113054
     14          1           0       -0.215893   -2.947543   -0.795444
     15          1           0       -1.199845   -1.590256   -1.111230
     16          1           0        5.964628   -1.889896   -3.019003
     17          1           0        5.559766   -0.361834   -2.612576
     18          1           0        6.207225   -1.358817   -1.495019
     19          7           0        5.507363    1.892178    0.661361
     20          6           0        4.142956    1.863107    0.821317
     21          6           0        6.299179    3.084790    0.298870
     22          7           0        1.075767    3.491997    0.792315
     23          1           0        0.116510    3.261276    0.952996
     24          1           0        1.279954    4.441260    0.551653
     25          7           0        3.303161    2.910716    0.675392
     26          6           0        2.045465    2.570524    0.894711
     27          7           0        1.639186    1.302008    1.231303
     28          1           0        0.656221    1.133179    1.380465
     29          6           0        2.485806    0.208892    1.386898
     30          8           0        2.016981   -0.894498    1.692646
     31          6           0        3.840210    0.558822    1.154478
     32          7           0        4.991392   -0.215354    1.202712
     33          6           0        5.952814    0.615728    0.904083
     34          1           0        7.008676    0.349030    0.846620
     35          1           0        6.783240    2.917345   -0.559306
     36          1           0        5.687723    3.867173    0.188119
     37          1           0        6.960887    3.280010    1.021938
     38          1           0       -4.417632    0.804444    1.356361
     39          1           0       -4.225764    0.916620    3.104295
     40          1           0       -3.081708    1.732724    2.038238
     41          1           0       -3.061688   -3.695678    2.384417
     42          6           0       -2.618965   -2.705908    2.272306
     43          8           0       -0.398678   -3.518760    2.080749
     44          6           0       -1.202249   -2.586966    2.109158
     45          1           0        0.249812   -1.166735    1.858622
     46          7           0       -0.745930   -1.291099    1.975902
     47          8           0       -1.002715    0.962274    1.859474
     48          6           0       -1.498712   -0.143592    1.984888
     49          1           0       -4.461386   -1.641312    2.406222
     50          6           0       -3.379554   -1.605018    2.285137
     51          6           0       -3.700996    0.856832    2.162437
     52          7           0       -2.856032   -0.340476    2.146516
     53          1           0       -6.346847    3.690555   -2.325440
     54          1           0       -4.926478    3.834278   -1.535504
     55          1           0       -6.332038    3.934360   -0.711817
     56          1           0       -3.766580   -3.025201   -0.507110
     57          1           0       -5.431405   -2.655282   -0.547178
     58          7           0       -4.484796   -2.336148   -0.604634
     59          6           0       -4.194232   -1.048676   -0.802542
     60          6           0       -4.710141    1.248667   -1.145743
     61          7           0       -3.429827    1.648547   -1.218641
     62          1           0       -1.545659    0.848627   -1.115512
     63          6           0       -2.607752    0.611809   -1.069416
     64          7           0       -2.896815   -0.678429   -0.871113
     65          1           0       -7.930734    1.531141   -1.157621
     66          6           0       -6.901441    1.174016   -1.113377
     67          7           0       -6.553639   -0.075816   -0.927308
     68          6           0       -5.166816   -0.042439   -0.945689
     69          6           0       -5.862446    3.488841   -1.474163
     70          7           0       -5.836253    2.029889   -1.253313
 ---------------------------------------------------------------------

 SCF Done:  E(RwB97XD) =  -2048.74968193     A.U. after   15 cycles

 The electronic state is 1-A.
 Alpha  occ. eigenvalues --  -19.25357 -19.21495 -19.20713 -14.52642 -14.51806
 Alpha  occ. eigenvalues --  -14.49281 -14.48730 -14.48088 -14.47258 -14.46950
 Alpha  occ. eigenvalues --  -14.46788 -14.45559 -14.44937 -14.44786 -14.42718
 Alpha  occ. eigenvalues --  -14.42184 -14.41586 -14.40953 -14.40656 -14.40521
 Alpha  occ. eigenvalues --  -10.44902 -10.41399 -10.40473 -10.39615 -10.38391
 Alpha  occ. eigenvalues --  -10.38146 -10.37559 -10.37394 -10.36269 -10.35580
 Alpha  occ. eigenvalues --  -10.34716 -10.34369 -10.33956 -10.33955 -10.33444
 Alpha  occ. eigenvalues --  -10.33102 -10.33097 -10.33042 -10.31350 -10.30613
 Alpha  occ. eigenvalues --  -10.30217 -10.28482 -10.28287  -1.18875  -1.15446
 Alpha  occ. eigenvalues --   -1.13387  -1.12520  -1.10976  -1.10763  -1.09857
 Alpha  occ. eigenvalues --   -1.08772  -1.08643  -1.05312  -1.05119  -1.01899
 Alpha  occ. eigenvalues --   -1.01181  -1.00563  -0.99880  -0.98795  -0.97379
 Alpha  occ. eigenvalues --   -0.97021  -0.96414  -0.92828  -0.90563  -0.87967
 Alpha  occ. eigenvalues --   -0.86080  -0.84519  -0.83514  -0.83039  -0.82842
 Alpha  occ. eigenvalues --   -0.81831  -0.78371  -0.77393  -0.75231  -0.74935
 Alpha  occ. eigenvalues --   -0.73809  -0.72836  -0.72729  -0.70947  -0.70743
 Alpha  occ. eigenvalues --   -0.67607  -0.67185  -0.66147  -0.66055  -0.64565
 Alpha  occ. eigenvalues --   -0.64542  -0.63563  -0.62781  -0.62613  -0.62006
 Alpha  occ. eigenvalues --   -0.60874  -0.60593  -0.60294  -0.59659  -0.59125
 Alpha  occ. eigenvalues --   -0.58978  -0.58509  -0.57115  -0.56417  -0.55783
 Alpha  occ. eigenvalues --   -0.55638  -0.55619  -0.55391  -0.54779  -0.54247
 Alpha  occ. eigenvalues --   -0.53883  -0.53721  -0.53455  -0.53165  -0.53079
 Alpha  occ. eigenvalues --   -0.52353  -0.51816  -0.51334  -0.50486  -0.50346
 Alpha  occ. eigenvalues --   -0.50230  -0.49888  -0.49608  -0.49251  -0.48950
 Alpha  occ. eigenvalues --   -0.48708  -0.48257  -0.48157  -0.47797  -0.47230
 Alpha  occ. eigenvalues --   -0.46701  -0.45814  -0.45589  -0.44867  -0.43068
 Alpha  occ. eigenvalues --   -0.41202  -0.40970  -0.39086  -0.38172  -0.37916
 Alpha  occ. eigenvalues --   -0.37618  -0.37471  -0.36868  -0.35468  -0.35185
 Alpha  occ. eigenvalues --   -0.34787  -0.34180  -0.33384  -0.33290  -0.33125
 Alpha  occ. eigenvalues --   -0.32724  -0.32584  -0.32061  -0.31422  -0.30589
 Alpha  occ. eigenvalues --   -0.30463  -0.30349  -0.25890  -0.25692
 Alpha virt. eigenvalues --    0.03131   0.04000   0.06469   0.08060   0.08736
 Alpha virt. eigenvalues --    0.08979   0.09590   0.10297   0.11043   0.11857
 Alpha virt. eigenvalues --    0.13515   0.13939   0.14211   0.14811   0.14886

 Mulliken charges:
               1
     1  N   -0.305545
     2  C    0.182435
     3  C    0.058612
     4  N   -0.254810
     5  C    0.152227
     6  H    0.028368
     7  N   -0.295285
     8  C    0.125892
     9  H    0.010004
    10  N   -0.279733
    11  C    0.243075
    12  C    0.081590
    13  N   -0.067005
    14  H    0.116852
    15  H    0.083473
    16  H    0.022057
    17  H    0.028419
    18  H    0.026281
    19  N   -0.309977
    20  C    0.264109
    21  C    0.182313
    22  N   -0.123024
    23  H    0.120595
    24  H    0.118716
    25  N   -0.311490
    26  C    0.245623
    27  N   -0.141708
    28  H    0.120370
    29  C    0.190619
    30  O   -0.318667
    31  C   -0.017749
    32  N   -0.229902
    33  C    0.115998
    34  H    0.024053
    35  H    0.025708
    36  H    0.031562
    37  H    0.025500
    38  H    0.065431
    39  H    0.057268
    40  H    0.075448
    41  H    0.022041
    42  C   -0.121058
    43  O   -0.265911
    44  C    0.168249
    45  H    0.133916
    46  N   -0.123743
    47  O   -0.351825
    48  C    0.350106
    49  H    0.042550
    50  C    0.174404
    51  C    0.040136
    52  N   -0.277255
    53  H    0.034458
    54  H    0.041716
    55  H    0.029957
    56  H    0.120890
    57  H    0.118627
    58  N   -0.060541
    59  C    0.083355
    60  C    0.222829
    61  N   -0.260262
    62  H    0.031913
    63  C    0.166952
    64  N   -0.308508
    65  H    0.040213
    66  C    0.139829
    67  N   -0.257868
    68  C    0.024573
    69  C    0.180131
    70  N   -0.307578
 Sum of Mulliken charges =  -0.00000

 Dipole moment (field-independent basis, Debye):
    X=             -7.2132    Y=              7.5313    Z=             -0.8685  Tot=             10.4644
 Quadrupole moment (field-independent basis, Debye-Ang):
   XX=           -157.7741   YY=           -223.5344   ZZ=           -251.8335
   XY=              2.3994   XZ=            -16.4183   YZ=              8.9148

 Normal termination of Gaussian 16 at Mon Jan 22 17:49:20 2018.
