 Gaussian 16, Revision A.03,
 Gaussian 16:  EM64L-G16RevA.03 25-Dec-2016

 ---------------------------------------
 #p wb97xd/cc-pvdz sp scf=(maxcycles=20)
 ---------------------------------------

 ------------------
 Base pair stacking
 ------------------
 Symbolic Z-matrix:
 Charge =  0 Multiplicity = 1

                         Standard orientation:
 ---------------------------------------------------------------------
 Center     Atomic      Atomic             Coordinates (Angstroms)
 Number     Number       Type             X           Y           Z
 ---------------------------------------------------------------------
      1          7           0        4.564415   -1.792488   -1.761124
      2          6           0        5.923589   -1.333633   -2.107685
      3          6           0        2.389712   -1.888916   -1.447007
      4          7           0        2.894314   -3.118148   -1.048155
      5          6           0        4.184302   -3.010859   -1.253365
      6          1           0        4.911944   -3.797061   -1.049983
      7          7           0        0.925153   -0.104960   -1.932321
      8          6           0        2.006587    0.575105   -2.326778
      9          1           0        1.815478    1.586292   -2.683487
     10          7           0        3.282645    0.195398   -2.346659
     11          6           0        3.407239   -1.061325   -1.888901
     12          6           0        1.083738   -1.366919   -1.476933
     13          7           0        0.005431   -2.047387   -1.082729
     14          1           0        0.075830   -2.984317   -0.738592
     15          1           0       -0.909022   -1.644077   -1.117935
     16          1           0        6.309964   -1.931925   -2.809779
     17          1           0        5.881613   -0.397365   -2.455205
     18          1           0        6.504043   -1.359566   -1.293810
     19          7           0        5.218861    1.971339    0.785175
     20          6           0        3.850649    1.934796    0.906409
     21          6           0        6.011593    3.160876    0.414668
     22          7           0        0.773044    3.536212    0.746442
     23          1           0       -0.188656    3.301562    0.885349
     24          1           0        0.976756    4.480645    0.487080
     25          7           0        3.007342    2.971091    0.709030
     26          6           0        1.746482    2.625987    0.900780
     27          7           0        1.340454    1.363185    1.258500
     28          1           0        0.354910    1.189905    1.383599
     29          6           0        2.190656    0.281708    1.466927
     30          8           0        1.721725   -0.817359    1.787713
     31          6           0        3.548484    0.637031    1.264622
     32          7           0        4.703754   -0.125807    1.366231
     33          6           0        5.666965    0.705431    1.073864
     34          1           0        6.726091    0.446339    1.053873
     35          1           0        6.521673    2.975424   -0.424516
     36          1           0        5.397558    3.934899    0.265954
     37          1           0        6.650481    3.380366    1.151191
     38          1           0       -4.713395    0.817461    1.221725
     39          1           0       -4.573277    0.976431    2.970944
     40          1           0       -3.405096    1.774407    1.917400
     41          1           0       -3.353002   -3.642860    2.405554
     42          6           0       -2.914905   -2.652587    2.280471
     43          8           0       -0.683746   -3.451183    2.174320
     44          6           0       -1.495013   -2.525843    2.155210
     45          1           0       -0.047354   -1.100251    1.909689
     46          7           0       -1.045088   -1.230016    2.001402
     47          8           0       -1.315868    1.017324    1.818849
     48          6           0       -1.806693   -0.089105    1.958718
     49          1           0       -4.768649   -1.600612    2.333355
     50          6           0       -3.684070   -1.558250    2.242622
     51          6           0       -4.020913    0.896777    2.046497
     52          7           0       -3.166568   -0.293296    2.086206
     53          1           0       -6.059418    3.559551   -2.617521
     54          1           0       -4.663755    3.735738   -1.790961
     55          1           0       -6.093398    3.845121   -1.011055
     56          1           0       -3.481012   -3.084725   -0.550869
     57          1           0       -5.146798   -2.730150   -0.648586
     58          7           0       -4.201425   -2.404559   -0.687020
     59          6           0       -3.915237   -1.120208   -0.909994
     60          6           0       -4.438775    1.163015   -1.327770
     61          7           0       -3.160020    1.571757   -1.374124
     62          1           0       -1.273490    0.790847   -1.195836
     63          6           0       -2.334605    0.546262   -1.174243
     64          7           0       -2.619289   -0.740823   -0.950748
     65          1           0       -7.659758    1.417650   -1.439915
     66          6           0       -6.629445    1.070566   -1.356703
     67          7           0       -6.277505   -0.171029   -1.128125
     68          6           0       -4.891035   -0.126330   -1.107357
     69          6           0       -5.598407    3.384052   -1.747651
     70          7           0       -5.567311    1.931568   -1.488140
 ---------------------------------------------------------------------

 SCF Done:  E(RwB97XD) =  -2048.74954176     A.U. after   15 cycles

 The electronic state is 1-A.
 Alpha  occ. eigenvalues --  -19.25479 -19.21647 -19.20643 -14.52645 -14.52007
 Alpha  occ. eigenvalues --  -14.49124 -14.48545 -14.48123 -14.47368 -14.46896
 Alpha  occ. eigenvalues --  -14.46739 -14.45587 -14.44759 -14.44641 -14.42519
 Alpha  occ. eigenvalues --  -14.42124 -14.41403 -14.40854 -14.40693 -14.40397
 Alpha  occ. eigenvalues --  -10.45047 -10.41333 -10.40338 -10.39757 -10.38312
 Alpha  occ. eigenvalues --  -10.38150 -10.37503 -10.37494 -10.36178 -10.35459
 Alpha  occ. eigenvalues --  -10.34599 -10.34536 -10.33974 -10.33802 -10.33472
 Alpha  occ. eigenvalues --  -10.33010 -10.33003 -10.32983 -10.31216 -10.30679
 Alpha  occ. eigenvalues --  -10.30434 -10.28359 -10.28221  -1.19017  -1.15427
 Alpha  occ. eigenvalues --   -1.13301  -1.12663  -1.10844  -1.10767  -1.09733
 Alpha  occ. eigenvalues --   -1.08873  -1.08634  -1.05182  -1.05005  -1.02027
 Alpha  occ. eigenvalues --   -1.01168  -1.00427  -0.99821  -0.98698  -0.97250
 Alpha  occ. eigenvalues --   -0.96889  -0.96432  -0.92712  -0.90683  -0.87901
 Alpha  occ. eigenvalues --   -0.86067  -0.84392  -0.83519  -0.83149  -0.82757
 Alpha  occ. eigenvalues --   -0.81901  -0.78506  -0.77321  -0.75137  -0.74835
 Alpha  occ. eigenvalues --   -0.73738  -0.72943  -0.72681  -0.70874  -0.70664
 Alpha  occ. eigenvalues --   -0.67531  -0.67100  -0.66169  -0.66086  -0.64509
 Alpha  occ. eigenvalues --   -0.64453  -0.63647  -0.62726  -0.62544  -0.61933
 Alpha  occ. eigenvalues --   -0.60849  -0.60575  -0.60374  -0.59587  -0.59211
 Alpha  occ. eigenvalues --   -0.59020  -0.58460  -0.56981  -0.56380  -0.55813
 Alpha  occ. eigenvalues --   -0.55731  -0.55558  -0.55328  -0.54580  -0.54190
 Alpha  occ. eigenvalues --   -0.53839  -0.53678  -0.53525  -0.53112  -0.53047
 Alpha  occ. eigenvalues --   -0.52594  -0.51976  -0.51388  -0.50447  -0.50286
 Alpha  occ. eigenvalues --   -0.50206  -0.49865  -0.49523  -0.49237  -0.48937
 Alpha  occ. eigenvalues --   -0.48688  -0.48335  -0.48121  -0.47994  -0.47247
 Alpha  occ. eigenvalues --   -0.46682  -0.45764  -0.45619  -0.44677  -0.42987
 Alpha  occ. eigenvalues --   -0.41074  -0.40932  -0.39146  -0.38097  -0.37867
 Alpha  occ. eigenvalues --   -0.37505  -0.37413  -0.36840  -0.35619  -0.35085
 Alpha  occ. eigenvalues --   -0.34657  -0.34130  -0.33295  -0.33245  -0.32987
 Alpha  occ. eigenvalues --   -0.32714  -0.32634  -0.31995  -0.31727  -0.30555
 Alpha  occ. eigenvalues --   -0.30332  -0.30090  -0.25765  -0.25626
 Alpha virt. eigenvalues --    0.03195   0.03783   0.06499   0.08150   0.08848
 Alpha virt. eigenvalues --    0.09100   0.09651   0.10339   0.11113   0.11891
 Alpha virt. eigenvalues --    0.13278   0.13990   0.14332   0.14768   0.14802

 Mulliken charges:
               1
     1  N   -0.306730
     2  C    0.181505
     3  C    0.056882
     4  N   -0.256082
     5  C    0.149555
     6  H    0.027110
     7  N   -0.294368
     8  C    0.127456
     9  H    0.010428
    10  N   -0.281996
    11  C    0.246853
    12  C    0.085272
    13  N   -0.064152
    14  H    0.116405
    15  H    0.084927
    16  H    0.023532
    17  H    0.028834
    18  H    0.024804
    19  N   -0.309406
    20  C    0.264574
    21  C    0.182365
    22  N   -0.123954
    23  H    0.120193
    24  H    0.118431
    25  N   -0.311846
    26  C    0.246622
    27  N   -0.141416
    28  H    0.120043
    29  C    0.189736
    30  O   -0.320416
    31  C   -0.016920
    32  N   -0.227764
    33  C    0.116183
    34  H    0.022747
    35  H    0.026226
    36  H    0.031020
    37  H    0.024774
    38  H    0.067733
    39  H    0.058012
    40  H    0.075135
    41  H    0.021899
    42  C   -0.118712
    43  O   -0.267988
    44  C    0.170575
    45  H    0.132119
    46  N   -0.123805
    47  O   -0.349948
    48  C    0.350276
    49  H    0.042899
    50  C    0.170628
    51  C    0.038542
    52  N   -0.276584
    53  H    0.034580
    54  H    0.041434
    55  H    0.029184
    56  H    0.122870
    57  H    0.116867
    58  N   -0.056652
    59  C    0.090365
    60  C    0.227171
    61  N   -0.264792
    62  H    0.030203
    63  C    0.172344
    64  N   -0.312491
    65  H    0.039379
    66  C    0.135300
    67  N   -0.256019
    68  C    0.012046
    69  C    0.180846
    70  N   -0.304843
 Sum of Mulliken charges =  -0.00000

 Dipole moment (field-independent basis, Debye):
    X=             -7.2431    Y=              7.3806    Z=             -1.2581  Tot=             10.4172
 Quadrupole moment (field-independent basis, Debye-Ang):
   XX=           -156.0008   YY=           -223.0237   ZZ=           -253.3167
   XY=              0.3270   XZ=            -13.5461   YZ=              8.1788

 Normal termination of Gaussian 16 at Mon Jan 22 17:03:24 2018.
