 Gaussian 16, Revision A.03,
 Gaussian 16:  EM64L-G16RevA.03 25-Dec-2016

 ---------------------------------------
 #p wb97xd/cc-pvdz sp scf=(maxcycles=20)
 ---------------------------------------

 ------------------
 Base pair stacking
 ------------------
 Symbolic Z-matrix:
 Charge =  0 Multiplicity = 1

                         Standard orientation:
 ---------------------------------------------------------------------
 Center     Atomic      Atomic             Coordinates (Angstroms)
 Number     Number       Type             X           Y           Z
 ---------------------------------------------------------------------
      1          7           0        6.055973   -1.375524   -0.860040
      2          6           0        7.411725   -0.806488   -0.732927
      3          6           0        3.879844   -1.604708   -1.081953
      4          7           0        4.398337   -2.888519   -0.994143
      5          6           0        5.688619   -2.699061   -0.863968
      6          1           0        6.425602   -3.496674   -0.765961
      7          7           0        2.394306    0.215973   -1.285046
      8          6           0        3.469601    1.005191   -1.193048
      9          1           0        3.267329    2.074270   -1.242139
     10          7           0        4.751225    0.673622   -1.050176
     11          6           0        4.889560   -0.661613   -1.000833
     12          6           0        2.566741   -1.122877   -1.232037
     13          7           0        1.494578   -1.912334   -1.323711
     14          1           0        1.575202   -2.909093   -1.289250
     15          1           0        0.574705   -1.534567   -1.429900
     16          1           0        7.983830   -1.133488   -1.485210
     17          1           0        7.359564    0.191217   -0.764428
     18          1           0        7.814300   -1.090211    0.137387
     19          7           0        3.724397    1.998016    1.415043
     20          6           0        2.362419    1.893465    1.266219
     21          6           0        4.527268    3.198293    1.106111
     22          7           0       -0.681301    3.300577    0.362056
     23          1           0       -1.641088    3.023260    0.328123
     24          1           0       -0.467460    4.232096    0.066634
     25          7           0        1.535437    2.861858    0.816389
     26          6           0        0.276669    2.461726    0.784582
     27          7           0       -0.142263    1.209464    1.163838
     28          1           0       -1.125034    0.990805    1.106351
     29          6           0        0.691053    0.197347    1.629759
     30          8           0        0.211461   -0.898362    1.946239
     31          6           0        2.046437    0.612333    1.669539
     32          7           0        3.187091   -0.073601    2.063637
     33          6           0        4.155393    0.785749    1.895976
     34          1           0        5.206300    0.586352    2.108374
     35          1           0        5.203107    2.977563    0.403732
     36          1           0        3.925348    3.922392    0.771989
     37          1           0        4.995197    3.510073    1.932335
     38          1           0       -6.037530    0.320164   -0.020771
     39          1           0       -6.259499    0.621931    1.700937
     40          1           0       -4.935773    1.400793    0.833484
     41          1           0       -4.766321   -3.950648    1.793272
     42          6           0       -4.352004   -2.949804    1.671277
     43          8           0       -2.115119   -3.626438    2.078262
     44          6           0       -2.942260   -2.752859    1.818506
     45          1           0       -1.533095   -1.270805    1.740425
     46          7           0       -2.522808   -1.449430    1.644133
     47          8           0       -2.840988    0.758019    1.216215
     48          6           0       -3.305230   -0.360287    1.352368
     49          1           0       -6.218934   -2.003694    1.264756
     50          6           0       -5.140917   -1.907070    1.386803
     51          6           0       -5.529321    0.502305    0.914440
     52          7           0       -4.653588   -0.630750    1.225932
     53          1           0       -4.597934    3.789925   -2.293910
     54          1           0       -3.420713    3.705763   -1.167335
     55          1           0       -4.983157    3.529035   -0.729633
     56          1           0       -1.922609   -3.122303   -1.934499
     57          1           0       -3.558120   -2.781869   -2.279925
     58          7           0       -2.656943   -2.446848   -2.002692
     59          6           0       -2.444946   -1.156451   -1.735997
     60          6           0       -3.070336    1.128160   -1.509824
     61          7           0       -1.849754    1.549585   -1.139702
     62          1           0        0.021946    0.783655   -0.806968
     63          6           0       -0.995762    0.528805   -1.099524
     64          7           0       -1.206158   -0.764314   -1.366267
     65          1           0       -6.210678    1.354320   -2.244194
     66          6           0       -5.192538    1.015642   -2.050229
     67          7           0       -4.787163   -0.226111   -2.157062
     68          6           0       -3.443322   -0.168739   -1.817178
     69          6           0       -4.310136    3.344667   -1.446021
     70          7           0       -4.205460    1.888568   -1.662423
 ---------------------------------------------------------------------

 SCF Done:  E(RwB97XD) =  -2048.71187505     A.U. after   15 cycles

 The electronic state is 1-A.
 Alpha  occ. eigenvalues --  -19.25560 -19.21680 -19.20345 -14.52563 -14.52182
 Alpha  occ. eigenvalues --  -14.49125 -14.48179 -14.48036 -14.47571 -14.46311
 Alpha  occ. eigenvalues --  -14.45516 -14.45270 -14.44203 -14.43791 -14.42874
 Alpha  occ. eigenvalues --  -14.41721 -14.41567 -14.41442 -14.40654 -14.40475
 Alpha  occ. eigenvalues --  -10.45172 -10.40550 -10.39947 -10.39808 -10.38062
 Alpha  occ. eigenvalues --  -10.37805 -10.37510 -10.37193 -10.35890 -10.35476
 Alpha  occ. eigenvalues --  -10.34853 -10.34590 -10.34361 -10.33728 -10.33700
 Alpha  occ. eigenvalues --  -10.33524 -10.32886 -10.32537 -10.31425 -10.30812
 Alpha  occ. eigenvalues --  -10.30064 -10.28821 -10.27530  -1.19310  -1.15309
 Alpha  occ. eigenvalues --   -1.12920  -1.12725  -1.11691  -1.10177  -1.09332
 Alpha  occ. eigenvalues --   -1.09021  -1.08092  -1.05501  -1.04801  -1.02221
 Alpha  occ. eigenvalues --   -1.01147  -1.00987  -0.99030  -0.98230  -0.97366
 Alpha  occ. eigenvalues --   -0.96769  -0.96095  -0.93210  -0.90780  -0.87836
 Alpha  occ. eigenvalues --   -0.86277  -0.84351  -0.83554  -0.83445  -0.82724
 Alpha  occ. eigenvalues --   -0.81882  -0.78604  -0.77137  -0.75112  -0.74141
 Alpha  occ. eigenvalues --   -0.73343  -0.73197  -0.73047  -0.71552  -0.70576
 Alpha  occ. eigenvalues --   -0.67016  -0.66802  -0.66784  -0.66253  -0.64500
 Alpha  occ. eigenvalues --   -0.64197  -0.63413  -0.63197  -0.62616  -0.61172
 Alpha  occ. eigenvalues --   -0.61068  -0.60897  -0.60748  -0.59686  -0.59280
 Alpha  occ. eigenvalues --   -0.58745  -0.57889  -0.57384  -0.56882  -0.56428
 Alpha  occ. eigenvalues --   -0.55913  -0.55816  -0.55455  -0.54844  -0.54284
 Alpha  occ. eigenvalues --   -0.54043  -0.53564  -0.53226  -0.53155  -0.52566
 Alpha  occ. eigenvalues --   -0.52413  -0.52260  -0.52213  -0.51282  -0.50534
 Alpha  occ. eigenvalues --   -0.49731  -0.49620  -0.49227  -0.49104  -0.48664
 Alpha  occ. eigenvalues --   -0.48386  -0.48364  -0.47933  -0.47365  -0.47055
 Alpha  occ. eigenvalues --   -0.46942  -0.45548  -0.44919  -0.44342  -0.43503
 Alpha  occ. eigenvalues --   -0.41376  -0.41060  -0.39386  -0.37944  -0.37779
 Alpha  occ. eigenvalues --   -0.37726  -0.36893  -0.36821  -0.36011  -0.34392
 Alpha  occ. eigenvalues --   -0.34347  -0.33941  -0.33832  -0.32871  -0.32427
 Alpha  occ. eigenvalues --   -0.32374  -0.32264  -0.31824  -0.31536  -0.31193
 Alpha  occ. eigenvalues --   -0.30843  -0.29551  -0.26016  -0.24491
 Alpha virt. eigenvalues --    0.03297   0.03905   0.06913   0.07311   0.08685
 Alpha virt. eigenvalues --    0.09273   0.09816   0.10804   0.11015   0.11770
 Alpha virt. eigenvalues --    0.13039   0.13866   0.13935   0.14868   0.15003

 Mulliken charges:
               1
     1  N   -0.314500
     2  C    0.179623
     3  C    0.062048
     4  N   -0.260683
     5  C    0.134894
     6  H    0.027232
     7  N   -0.278004
     8  C    0.148349
     9  H    0.007977
    10  N   -0.287045
    11  C    0.241433
    12  C    0.103449
    13  N   -0.055421
    14  H    0.107999
    15  H    0.085673
    16  H    0.027125
    17  H    0.030492
    18  H    0.027215
    19  N   -0.275895
    20  C    0.199202
    21  C    0.179122
    22  N   -0.072460
    23  H    0.114620
    24  H    0.106369
    25  N   -0.292493
    26  C    0.186169
    27  N   -0.149248
    28  H    0.133071
    29  C    0.159468
    30  O   -0.323281
    31  C    0.023844
    32  N   -0.220164
    33  C    0.125032
    34  H    0.014643
    35  H    0.023924
    36  H    0.026057
    37  H    0.021845
    38  H    0.063184
    39  H    0.057055
    40  H    0.063948
    41  H    0.028904
    42  C   -0.113650
    43  O   -0.265524
    44  C    0.177322
    45  H    0.131327
    46  N   -0.126051
    47  O   -0.335357
    48  C    0.339721
    49  H    0.046402
    50  C    0.173536
    51  C    0.043736
    52  N   -0.283175
    53  H    0.037249
    54  H    0.030794
    55  H    0.026902
    56  H    0.123067
    57  H    0.118869
    58  N   -0.064364
    59  C    0.106012
    60  C    0.255039
    61  N   -0.298619
    62  H    0.054276
    63  C    0.153895
    64  N   -0.300520
    65  H    0.036731
    66  C    0.103197
    67  N   -0.252642
    68  C    0.012638
    69  C    0.182159
    70  N   -0.293748
 Sum of Mulliken charges =  -0.00000

 Dipole moment (field-independent basis, Debye):
    X=             -6.9057    Y=              6.1749    Z=             -3.9150  Tot=             10.0571
 Quadrupole moment (field-independent basis, Debye-Ang):
   XX=           -147.7131   YY=           -226.9251   ZZ=           -257.6618
   XY=             -7.3956   XZ=              3.1800   YZ=             12.8612

 Normal termination of Gaussian 16 at Mon Jan 22 09:49:17 2018.
