 Gaussian 16, Revision A.03,
 Gaussian 16:  EM64L-G16RevA.03 25-Dec-2016

 ---------------------------------------
 #p wb97xd/cc-pvdz sp scf=(maxcycles=20)
 ---------------------------------------

 ------------------
 Base pair stacking
 ------------------
 Symbolic Z-matrix:
 Charge =  0 Multiplicity = 1

                         Standard orientation:
 ---------------------------------------------------------------------
 Center     Atomic      Atomic             Coordinates (Angstroms)
 Number     Number       Type             X           Y           Z
 ---------------------------------------------------------------------
      1          7           0       -6.591522   -1.293156    0.500828
      2          6           0       -7.931258   -0.705870    0.305446
      3          6           0       -4.432375   -1.551660    0.830382
      4          7           0       -4.963820   -2.828470    0.720661
      5          6           0       -6.243353   -2.621635    0.526502
      6          1           0       -6.985696   -3.409309    0.394496
      7          7           0       -2.933333    0.248986    1.101450
      8          6           0       -3.991647    1.052672    0.954363
      9          1           0       -3.777102    2.119017    1.010406
     10          7           0       -5.269189    0.738375    0.749394
     11          6           0       -5.423589   -0.594981    0.696978
     12          6           0       -3.121651   -1.087532    1.043699
     13          7           0       -2.066453   -1.891425    1.190301
     14          1           0       -2.159223   -2.887091    1.154654
     15          1           0       -1.147734   -1.526057    1.340669
     16          1           0       -8.544253   -1.022327    1.029518
     17          1           0       -7.866772    0.291123    0.336736
     18          1           0       -8.294413   -0.986993   -0.582861
     19          7           0       -3.127295    2.049106   -1.537395
     20          6           0       -1.775898    1.926237   -1.321316
     21          6           0       -3.927542    3.261434   -1.271737
     22          7           0        1.238973    3.294215   -0.272079
     23          1           0        2.191947    3.003760   -0.190094
     24          1           0        1.023896    4.229609    0.009866
     25          7           0       -0.958607    2.884634   -0.833938
     26          6           0        0.291343    2.467245   -0.738989
     27          7           0        0.710894    1.208000   -1.093686
     28          1           0        1.686482    0.975960   -0.987204
     29          6           0       -0.112534    0.205908   -1.597328
     30          8           0        0.366684   -0.897408   -1.886750
     31          6           0       -1.458382    0.639474   -1.705028
     32          7           0       -2.587716   -0.031976   -2.152989
     33          6           0       -3.550992    0.841267   -2.035643
     34          1           0       -4.592844    0.655697   -2.299030
     35          1           0       -4.640167    3.052495   -0.602922
     36          1           0       -3.332742    3.978284   -0.910347
     37          1           0       -4.349797    3.576808   -2.120884
     38          1           0        6.527625    0.241319    0.382593
     39          1           0        6.838344    0.534047   -1.326914
     40          1           0        5.484519    1.334133   -0.527933
     41          1           0        5.287707   -4.017721   -1.480126
     42          6           0        4.881920   -3.010831   -1.381462
     43          8           0        2.658554   -3.657853   -1.896365
     44          6           0        3.484043   -2.794901   -1.598561
     45          1           0        2.093604   -1.293238   -1.594148
     46          7           0        3.074791   -1.485208   -1.448681
     47          8           0        3.402334    0.719088   -1.011690
     48          6           0        3.857032   -0.405996   -1.121701
     49          1           0        6.739617   -2.089251   -0.886007
     50          6           0        5.670377   -1.978144   -1.061321
     51          6           0        6.068698    0.427248   -0.577036
     52          7           0        5.193613   -0.694645   -0.928203
     53          1           0        4.050032    3.729312    2.443932
     54          1           0        2.928668    3.657569    1.260940
     55          1           0        4.508162    3.457731    0.901282
     56          1           0        1.299236   -3.146440    1.972146
     57          1           0        2.920344   -2.827482    2.396853
     58          7           0        2.038702   -2.480973    2.074601
     59          6           0        1.858167   -1.188699    1.794224
     60          6           0        2.525834    1.086248    1.592852
     61          7           0        1.330972    1.523236    1.161835
     62          1           0       -0.532586    0.782140    0.739340
     63          6           0        0.465805    0.514241    1.082413
     64          7           0        0.644701   -0.780738    1.362788
     65          1           0        5.629041    1.271472    2.480514
     66          6           0        4.617051    0.946240    2.237532
     67          7           0        4.189582   -0.289405    2.327684
     68          6           0        2.865053   -0.214614    1.921794
     69          6           0        3.798139    3.285161    1.584128
     70          7           0        3.662577    1.831409    1.799118
 ---------------------------------------------------------------------

 SCF Done:  E(RwB97XD) =  -2048.66667169     A.U. after   15 cycles

 The electronic state is 1-A.
 Alpha  occ. eigenvalues --  -19.25941 -19.21888 -19.20541 -14.52438 -14.51871
 Alpha  occ. eigenvalues --  -14.49422 -14.48456 -14.47890 -14.47432 -14.46306
 Alpha  occ. eigenvalues --  -14.45356 -14.44895 -14.43520 -14.42946 -14.42092
 Alpha  occ. eigenvalues --  -14.42052 -14.41890 -14.41744 -14.40745 -14.40659
 Alpha  occ. eigenvalues --  -10.45538 -10.40608 -10.40021 -10.39162 -10.37993
 Alpha  occ. eigenvalues --  -10.37703 -10.37483 -10.36459 -10.36127 -10.35487
 Alpha  occ. eigenvalues --  -10.35229 -10.34690 -10.34424 -10.34153 -10.34079
 Alpha  occ. eigenvalues --  -10.33822 -10.33086 -10.31631 -10.31554 -10.31004
 Alpha  occ. eigenvalues --  -10.30324 -10.29189 -10.27964  -1.19573  -1.14705
 Alpha  occ. eigenvalues --   -1.13337  -1.12940  -1.12010  -1.10477  -1.09334
 Alpha  occ. eigenvalues --   -1.08929  -1.08173  -1.05690  -1.04066  -1.02493
 Alpha  occ. eigenvalues --   -1.01193  -1.00650  -0.99473  -0.98547  -0.97616
 Alpha  occ. eigenvalues --   -0.96504  -0.95951  -0.93366  -0.91007  -0.87297
 Alpha  occ. eigenvalues --   -0.85926  -0.84631  -0.83891  -0.83783  -0.82965
 Alpha  occ. eigenvalues --   -0.82218  -0.78844  -0.76582  -0.74751  -0.74399
 Alpha  occ. eigenvalues --   -0.73601  -0.73414  -0.73365  -0.71840  -0.70076
 Alpha  occ. eigenvalues --   -0.67316  -0.67023  -0.66599  -0.66398  -0.64447
 Alpha  occ. eigenvalues --   -0.64006  -0.63649  -0.63415  -0.62951  -0.61634
 Alpha  occ. eigenvalues --   -0.61003  -0.60747  -0.60165  -0.59543  -0.59272
 Alpha  occ. eigenvalues --   -0.59094  -0.58251  -0.57671  -0.57056  -0.56766
 Alpha  occ. eigenvalues --   -0.56053  -0.55898  -0.55446  -0.54947  -0.54333
 Alpha  occ. eigenvalues --   -0.54253  -0.53495  -0.53124  -0.52698  -0.52586
 Alpha  occ. eigenvalues --   -0.52534  -0.52347  -0.51932  -0.51437  -0.50709
 Alpha  occ. eigenvalues --   -0.49959  -0.49758  -0.49413  -0.49104  -0.48599
 Alpha  occ. eigenvalues --   -0.48534  -0.48248  -0.48002  -0.47698  -0.47441
 Alpha  occ. eigenvalues --   -0.47293  -0.46168  -0.45362  -0.43879  -0.43217
 Alpha  occ. eigenvalues --   -0.41873  -0.40751  -0.39584  -0.37984  -0.37667
 Alpha  occ. eigenvalues --   -0.37279  -0.37200  -0.36322  -0.35737  -0.34464
 Alpha  occ. eigenvalues --   -0.34308  -0.34162  -0.33824  -0.33080  -0.32585
 Alpha  occ. eigenvalues --   -0.32335  -0.31869  -0.31755  -0.31573  -0.31132
 Alpha  occ. eigenvalues --   -0.30475  -0.28178  -0.26441  -0.25010
 Alpha virt. eigenvalues --    0.03183   0.04541   0.07242   0.07518   0.08684
 Alpha virt. eigenvalues --    0.09207   0.09949   0.10310   0.11084   0.11672
 Alpha virt. eigenvalues --    0.13086   0.13596   0.14164   0.14600   0.14704

 Mulliken charges:
               1
     1  N   -0.312676
     2  C    0.180330
     3  C    0.050187
     4  N   -0.259716
     5  C    0.134373
     6  H    0.028405
     7  N   -0.276055
     8  C    0.134205
     9  H    0.009353
    10  N   -0.291749
    11  C    0.235382
    12  C    0.110269
    13  N   -0.052419
    14  H    0.107338
    15  H    0.087453
    16  H    0.027231
    17  H    0.032621
    18  H    0.027275
    19  N   -0.294865
    20  C    0.233150
    21  C    0.172828
    22  N   -0.055465
    23  H    0.098619
    24  H    0.110550
    25  N   -0.283913
    26  C    0.191137
    27  N   -0.121794
    28  H    0.123995
    29  C    0.129918
    30  O   -0.319655
    31  C    0.036383
    32  N   -0.218812
    33  C    0.113959
    34  H    0.024055
    35  H    0.031933
    36  H    0.026767
    37  H    0.022470
    38  H    0.057874
    39  H    0.062640
    40  H    0.067299
    41  H    0.030974
    42  C   -0.113837
    43  O   -0.264703
    44  C    0.180454
    45  H    0.133728
    46  N   -0.133421
    47  O   -0.346708
    48  C    0.357846
    49  H    0.047146
    50  C    0.177166
    51  C    0.043963
    52  N   -0.289205
    53  H    0.038003
    54  H    0.011988
    55  H    0.028902
    56  H    0.120681
    57  H    0.117798
    58  N   -0.068526
    59  C    0.115294
    60  C    0.254757
    61  N   -0.314351
    62  H    0.038907
    63  C    0.197527
    64  N   -0.307528
    65  H    0.032049
    66  C    0.109166
    67  N   -0.254311
    68  C   -0.000688
    69  C    0.179514
    70  N   -0.303467
 Sum of Mulliken charges =  -0.00000

 Dipole moment (field-independent basis, Debye):
    X=              6.4187    Y=              5.9229    Z=              3.8427  Tot=              9.5419
 Quadrupole moment (field-independent basis, Debye-Ang):
   XX=           -144.4203   YY=           -227.3955   ZZ=           -256.8536
   XY=              9.6175   XZ=              9.2686   YZ=            -12.1071

 Normal termination of Gaussian 16 at Mon Jan 22 11:24:10 2018.
