 Gaussian 16, Revision A.03,
 Gaussian 16:  EM64L-G16RevA.03 25-Dec-2016

 ---------------------------------------
 #p wb97xd/cc-pvdz sp scf=(maxcycles=20)
 ---------------------------------------

 ------------------
 Base pair stacking
 ------------------
 Symbolic Z-matrix:
 Charge =  0 Multiplicity = 1

                         Standard orientation:
 ---------------------------------------------------------------------
 Center     Atomic      Atomic             Coordinates (Angstroms)
 Number     Number       Type             X           Y           Z
 ---------------------------------------------------------------------
      1          7           0       -6.094591   -1.464680    0.834549
      2          6           0       -7.458664   -0.902077    0.862956
      3          6           0       -3.911129   -1.702475    0.949633
      4          7           0       -4.419590   -2.947213    0.607863
      5          6           0       -5.714697   -2.754139    0.552206
      6          1           0       -6.446470   -3.524625    0.307674
      7          7           0       -2.437971    0.057642    1.492558
      8          6           0       -3.522839    0.832406    1.594442
      9          1           0       -3.329476    1.870524    1.861230
     10          7           0       -4.804681    0.518812    1.417085
     11          6           0       -4.931604   -0.778536    1.092752
     12          6           0       -2.599048   -1.242999    1.164720
     13          7           0       -1.517332   -2.017983    1.062534
     14          1           0       -1.589383   -2.986615    0.822168
     15          1           0       -0.598529   -1.656982    1.222660
     16          1           0       -8.006847   -1.387657    1.544037
     17          1           0       -7.415150    0.067670    1.101330
     18          1           0       -7.882165   -1.003629   -0.037224
     19          7           0       -3.668577    2.176444   -1.443622
     20          6           0       -2.304719    2.063410   -1.320467
     21          6           0       -4.452906    3.395841   -1.163258
     22          7           0        0.771539    3.471945   -0.536636
     23          1           0        1.729134    3.186118   -0.512974
     24          1           0        0.573208    4.416139   -0.272310
     25          7           0       -1.458776    3.039465   -0.925830
     26          6           0       -0.203510    2.627729   -0.906090
     27          7           0        0.194941    1.357714   -1.246423
     28          1           0        1.176598    1.131161   -1.201955
     29          6           0       -0.658106    0.337442   -1.655336
     30          8           0       -0.196141   -0.774388   -1.940217
     31          6           0       -2.010005    0.764719   -1.681513
     32          7           0       -3.165587    0.076288   -2.024425
     33          6           0       -4.121679    0.951405   -1.868633
     34          1           0       -5.178870    0.755080   -2.050471
     35          1           0       -5.115181    3.208893   -0.438514
     36          1           0       -3.836854    4.125748   -0.870052
     37          1           0       -4.935918    3.681010   -1.990418
     38          1           0        6.106083    0.452506   -0.156814
     39          1           0        6.292942    0.686602   -1.893168
     40          1           0        4.996181    1.511464   -1.027499
     41          1           0        4.754314   -3.870392   -1.779108
     42          6           0        4.352397   -2.861384   -1.686322
     43          8           0        2.100707   -3.529594   -2.018713
     44          6           0        2.941709   -2.655477   -1.810370
     45          1           0        1.548880   -1.156929   -1.758221
     46          7           0        2.538724   -1.342093   -1.676666
     47          8           0        2.887398    0.876534   -1.340033
     48          6           0        3.337784   -0.250895   -1.443560
     49          1           0        6.236821   -1.920081   -1.356624
     50          6           0        5.157357   -1.816919   -1.458886
     51          6           0        5.579155    0.604426   -1.087046
     52          7           0        4.685953   -0.530411   -1.336171
     53          1           0        4.544938    3.446379    3.053882
     54          1           0        3.338200    3.581886    1.964144
     55          1           0        4.889709    3.524035    1.460609
     56          1           0        1.926636   -3.277429    1.321720
     57          1           0        3.567661   -2.992190    1.690180
     58          7           0        2.656101   -2.620193    1.511614
     59          6           0        2.424636   -1.305891    1.526298
     60          6           0        3.021853    0.984661    1.768009
     61          7           0        1.787652    1.455762    1.524625
     62          1           0       -0.085078    0.748270    1.085341
     63          6           0        0.942622    0.453222    1.292783
     64          7           0        1.172519   -0.863781    1.277625
     65          1           0        6.178804    1.099464    2.455490
     66          6           0        5.159004    0.793559    2.220181
     67          7           0        4.768540   -0.449042    2.074698
     68          6           0        3.415418   -0.342089    1.787718
     69          6           0        4.238302    3.183903    2.138962
     70          7           0        4.153436    1.713340    2.048266
 ---------------------------------------------------------------------

 SCF Done:  E(RwB97XD) =  -2048.74981622     A.U. after   15 cycles

 The electronic state is 1-A.
 Alpha  occ. eigenvalues --  -19.25747 -19.21900 -19.20461 -14.52308 -14.52268
 Alpha  occ. eigenvalues --  -14.48960 -14.48429 -14.47784 -14.47692 -14.46640
 Alpha  occ. eigenvalues --  -14.46184 -14.45328 -14.43935 -14.43902 -14.42530
 Alpha  occ. eigenvalues --  -14.41788 -14.41530 -14.41268 -14.40631 -14.40470
 Alpha  occ. eigenvalues --  -10.45345 -10.40895 -10.40021 -10.39632 -10.38005
 Alpha  occ. eigenvalues --  -10.37854 -10.37640 -10.36955 -10.35660 -10.35451
 Alpha  occ. eigenvalues --  -10.35046 -10.34204 -10.34071 -10.34021 -10.33533
 Alpha  occ. eigenvalues --  -10.33361 -10.33094 -10.32354 -10.31266 -10.30936
 Alpha  occ. eigenvalues --  -10.30433 -10.28667 -10.27801  -1.19340  -1.15015
 Alpha  occ. eigenvalues --   -1.12999  -1.12920  -1.11511  -1.10327  -1.09169
 Alpha  occ. eigenvalues --   -1.08936  -1.08294  -1.05258  -1.04478  -1.02354
 Alpha  occ. eigenvalues --   -1.00825  -1.00701  -0.99387  -0.98326  -0.97163
 Alpha  occ. eigenvalues --   -0.96480  -0.96289  -0.92936  -0.90892  -0.87471
 Alpha  occ. eigenvalues --   -0.85873  -0.84149  -0.83786  -0.83508  -0.82538
 Alpha  occ. eigenvalues --   -0.82141  -0.78705  -0.76807  -0.74626  -0.74313
 Alpha  occ. eigenvalues --   -0.73389  -0.73203  -0.73117  -0.71293  -0.70193
 Alpha  occ. eigenvalues --   -0.67087  -0.66565  -0.66532  -0.66360  -0.64292
 Alpha  occ. eigenvalues --   -0.64046  -0.63524  -0.62955  -0.62518  -0.61442
 Alpha  occ. eigenvalues --   -0.60655  -0.60552  -0.60307  -0.59371  -0.59289
 Alpha  occ. eigenvalues --   -0.58844  -0.58019  -0.56893  -0.56722  -0.56264
 Alpha  occ. eigenvalues --   -0.55833  -0.55698  -0.55223  -0.54497  -0.54180
 Alpha  occ. eigenvalues --   -0.53951  -0.53406  -0.53285  -0.53013  -0.52675
 Alpha  occ. eigenvalues --   -0.52489  -0.52340  -0.52014  -0.51012  -0.50447
 Alpha  occ. eigenvalues --   -0.49924  -0.49658  -0.49305  -0.49016  -0.48667
 Alpha  occ. eigenvalues --   -0.48602  -0.48386  -0.48087  -0.47343  -0.47207
 Alpha  occ. eigenvalues --   -0.47157  -0.45525  -0.45005  -0.44480  -0.43722
 Alpha  occ. eigenvalues --   -0.41354  -0.40614  -0.39345  -0.37547  -0.37484
 Alpha  occ. eigenvalues --   -0.37403  -0.37063  -0.36937  -0.35928  -0.34510
 Alpha  occ. eigenvalues --   -0.34145  -0.33832  -0.33652  -0.33240  -0.33076
 Alpha  occ. eigenvalues --   -0.32492  -0.32237  -0.31887  -0.31685  -0.31137
 Alpha  occ. eigenvalues --   -0.30689  -0.29581  -0.25921  -0.25011
 Alpha virt. eigenvalues --    0.03145   0.04276   0.07228   0.07658   0.08670
 Alpha virt. eigenvalues --    0.09300   0.09976   0.10658   0.10912   0.11492
 Alpha virt. eigenvalues --    0.13024   0.14078   0.14298   0.14736   0.15011

 Mulliken charges:
               1
     1  N   -0.313046
     2  C    0.180042
     3  C    0.061128
     4  N   -0.258994
     5  C    0.134621
     6  H    0.026864
     7  N   -0.285600
     8  C    0.135883
     9  H    0.011997
    10  N   -0.289298
    11  C    0.237095
    12  C    0.106701
    13  N   -0.051494
    14  H    0.109983
    15  H    0.087058
    16  H    0.026655
    17  H    0.031449
    18  H    0.025468
    19  N   -0.297563
    20  C    0.243364
    21  C    0.179647
    22  N   -0.099539
    23  H    0.112242
    24  H    0.112967
    25  N   -0.303585
    26  C    0.218544
    27  N   -0.143496
    28  H    0.126571
    29  C    0.167447
    30  O   -0.323330
    31  C    0.001869
    32  N   -0.223845
    33  C    0.128341
    34  H    0.018872
    35  H    0.028838
    36  H    0.026513
    37  H    0.022037
    38  H    0.059469
    39  H    0.059687
    40  H    0.068604
    41  H    0.027643
    42  C   -0.115635
    43  O   -0.268238
    44  C    0.170684
    45  H    0.133031
    46  N   -0.123050
    47  O   -0.340374
    48  C    0.340568
    49  H    0.047095
    50  C    0.176719
    51  C    0.039803
    52  N   -0.282342
    53  H    0.035438
    54  H    0.036388
    55  H    0.024786
    56  H    0.126043
    57  H    0.117286
    58  N   -0.059987
    59  C    0.100707
    60  C    0.251186
    61  N   -0.278660
    62  H    0.041453
    63  C    0.155906
    64  N   -0.300338
    65  H    0.036078
    66  C    0.117222
    67  N   -0.257282
    68  C    0.011130
    69  C    0.179754
    70  N   -0.303179
 Sum of Mulliken charges =  -0.00000

 Dipole moment (field-independent basis, Debye):
    X=              7.0364    Y=              6.2782    Z=              3.0945  Tot=              9.9249
 Quadrupole moment (field-independent basis, Debye-Ang):
   XX=           -147.5931   YY=           -224.2333   ZZ=           -256.3939
   XY=              6.6761   XZ=              4.3980   YZ=             -9.1152

 Normal termination of Gaussian 16 at Mon Jan 22 14:07:55 2018.
