 Gaussian 16, Revision A.03,
 Gaussian 16:  EM64L-G16RevA.03 25-Dec-2016

 ---------------------------------------
 #p wb97xd/cc-pvdz sp scf=(maxcycles=20)
 ---------------------------------------

 ------------------
 Base pair stacking
 ------------------
 Symbolic Z-matrix:
 Charge =  0 Multiplicity = 1

                         Standard orientation:
 ---------------------------------------------------------------------
 Center     Atomic      Atomic             Coordinates (Angstroms)
 Number     Number       Type             X           Y           Z
 ---------------------------------------------------------------------
      1          7           0       -7.122002   -1.215564    0.183544
      2          6           0       -8.452319   -0.610271   -0.021128
      3          6           0       -4.974978   -1.504721    0.562967
      4          7           0       -5.509465   -2.770796    0.372964
      5          6           0       -6.781576   -2.545915    0.151968
      6          1           0       -7.523692   -3.320968   -0.041660
      7          7           0       -3.475431    0.269920    0.969137
      8          6           0       -4.524771    1.087019    0.831952
      9          1           0       -4.306523    2.147721    0.948362
     10          7           0       -5.797251    0.791979    0.573765
     11          6           0       -5.956856   -0.535965    0.449195
     12          6           0       -3.668806   -1.060683    0.838075
     13          7           0       -2.622576   -1.877944    0.974670
     14          1           0       -2.719342   -2.869888    0.885803
     15          1           0       -1.706874   -1.526750    1.170385
     16          1           0       -9.088184   -0.958898    0.667580
     17          1           0       -8.383681    0.383407    0.062627
     18          1           0       -8.790327   -0.843667   -0.932863
     19          7           0       -2.519585    2.114315   -1.611625
     20          6           0       -1.177703    1.974261   -1.351302
     21          6           0       -3.304460    3.348478   -1.407857
     22          7           0        1.830024    3.320727   -0.254781
     23          1           0        2.774549    3.016074   -0.135221
     24          1           0        1.624289    4.268241   -0.008554
     25          7           0       -0.357315    2.932853   -0.869506
     26          6           0        0.881241    2.496449   -0.724128
     27          7           0        1.287389    1.219376   -1.026843
     28          1           0        2.254895    0.973478   -0.883933
     29          6           0        0.460534    0.216731   -1.523719
     30          8           0        0.927321   -0.903531   -1.764262
     31          6           0       -0.873180    0.670593   -1.685233
     32          7           0       -2.001194    0.005575   -2.145924
     33          6           0       -2.950973    0.899105   -2.084716
     34          1           0       -3.987900    0.723910   -2.373445
     35          1           0       -4.040303    3.173476   -0.754626
     36          1           0       -2.707247    4.065657   -1.051134
     37          1           0       -3.695493    3.644385   -2.278687
     38          1           0        7.038895    0.196268    0.652942
     39          1           0        7.405343    0.429357   -1.054695
     40          1           0        6.043778    1.278234   -0.321959
     41          1           0        5.774838   -4.096638   -1.113328
     42          6           0        5.385269   -3.080063   -1.058166
     43          8           0        3.166333   -3.703292   -1.619397
     44          6           0        3.998703   -2.846222   -1.323795
     45          1           0        2.637133   -1.320632   -1.407738
     46          7           0        3.609820   -1.525373   -1.226948
     47          8           0        3.965609    0.685431   -0.848830
     48          6           0        4.402185   -0.450484   -0.910193
     49          1           0        7.244493   -2.176549   -0.535868
     50          6           0        6.183164   -2.051998   -0.746611
     51          6           0        6.612048    0.359983   -0.325352
     52          7           0        5.726819   -0.756660   -0.667736
     53          1           0        3.482666    3.631488    2.691629
     54          1           0        2.396632    3.627128    1.474009
     55          1           0        3.985079    3.435280    1.151333
     56          1           0        0.711895   -3.193206    1.790542
     57          1           0        2.321270   -2.906890    2.278440
     58          7           0        1.451378   -2.538685    1.948377
     59          6           0        1.285899   -1.232717    1.728785
     60          6           0        1.970922    1.045035    1.662938
     61          7           0        0.791662    1.511183    1.219672
     62          1           0       -1.062292    0.804787    0.705406
     63          6           0       -0.075925    0.513254    1.063683
     64          7           0        0.087910   -0.795404    1.283077
     65          1           0        5.047267    1.164530    2.649837
     66          6           0        4.041298    0.858722    2.360953
     67          7           0        3.604998   -0.377041    2.375629
     68          6           0        2.293526   -0.273032    1.935245
     69          6           0        3.254193    3.233088    1.803331
     70          7           0        3.104837    1.771240    1.940152
 ---------------------------------------------------------------------

 SCF Done:  E(RwB97XD) =  -2048.66121187     A.U. after   15 cycles

 The electronic state is 1-A.
 Alpha  occ. eigenvalues --  -19.25973 -19.21898 -19.20389 -14.52464 -14.51815
 Alpha  occ. eigenvalues --  -14.49699 -14.48495 -14.47842 -14.46993 -14.46177
 Alpha  occ. eigenvalues --  -14.45852 -14.44681 -14.43187 -14.43079 -14.42456
 Alpha  occ. eigenvalues --  -14.42377 -14.42011 -14.41633 -14.41132 -14.40597
 Alpha  occ. eigenvalues --  -10.45560 -10.41312 -10.40024 -10.38787 -10.37969
 Alpha  occ. eigenvalues --  -10.37721 -10.37290 -10.36392 -10.36129 -10.35651
 Alpha  occ. eigenvalues --  -10.35027 -10.34388 -10.34303 -10.34192 -10.34145
 Alpha  occ. eigenvalues --  -10.33291 -10.33074 -10.31713 -10.31688 -10.31020
 Alpha  occ. eigenvalues --  -10.30458 -10.29570 -10.27941  -1.19522  -1.14687
 Alpha  occ. eigenvalues --   -1.13188  -1.12941  -1.12317  -1.10408  -1.09352
 Alpha  occ. eigenvalues --   -1.08898  -1.08098  -1.05992  -1.03743  -1.02476
 Alpha  occ. eigenvalues --   -1.01414  -1.01159  -0.99549  -0.98353  -0.97879
 Alpha  occ. eigenvalues --   -0.96419  -0.95785  -0.93638  -0.91026  -0.87190
 Alpha  occ. eigenvalues --   -0.85776  -0.84891  -0.83937  -0.83837  -0.83199
 Alpha  occ. eigenvalues --   -0.82305  -0.78861  -0.76256  -0.74812  -0.74096
 Alpha  occ. eigenvalues --   -0.73880  -0.73604  -0.73343  -0.72100  -0.69657
 Alpha  occ. eigenvalues --   -0.67740  -0.67249  -0.66576  -0.66090  -0.64447
 Alpha  occ. eigenvalues --   -0.63779  -0.63742  -0.63514  -0.62865  -0.62235
 Alpha  occ. eigenvalues --   -0.61138  -0.60421  -0.59954  -0.59627  -0.59482
 Alpha  occ. eigenvalues --   -0.58817  -0.58395  -0.57530  -0.57224  -0.57051
 Alpha  occ. eigenvalues --   -0.56364  -0.55921  -0.55665  -0.54512  -0.54362
 Alpha  occ. eigenvalues --   -0.53741  -0.53476  -0.53108  -0.52762  -0.52629
 Alpha  occ. eigenvalues --   -0.52571  -0.52310  -0.51830  -0.51662  -0.51038
 Alpha  occ. eigenvalues --   -0.50005  -0.49935  -0.49428  -0.49363  -0.48703
 Alpha  occ. eigenvalues --   -0.48573  -0.48162  -0.48118  -0.47799  -0.47396
 Alpha  occ. eigenvalues --   -0.47242  -0.45938  -0.45421  -0.43980  -0.42560
 Alpha  occ. eigenvalues --   -0.42188  -0.39593  -0.39420  -0.38182  -0.37288
 Alpha  occ. eigenvalues --   -0.37080  -0.36857  -0.36281  -0.35793  -0.35115
 Alpha  occ. eigenvalues --   -0.34481  -0.34410  -0.33091  -0.32859  -0.32636
 Alpha  occ. eigenvalues --   -0.32325  -0.32100  -0.31915  -0.31710  -0.31595
 Alpha  occ. eigenvalues --   -0.31267  -0.28211  -0.26784  -0.25033
 Alpha virt. eigenvalues --    0.03212   0.04348   0.06952   0.07672   0.08357
 Alpha virt. eigenvalues --    0.09253   0.09713   0.09882   0.11287   0.12429
 Alpha virt. eigenvalues --    0.12840   0.13316   0.14315   0.14507   0.14809

 Mulliken charges:
               1
     1  N   -0.312173
     2  C    0.180589
     3  C    0.037337
     4  N   -0.258604
     5  C    0.135084
     6  H    0.029818
     7  N   -0.276272
     8  C    0.109096
     9  H    0.024172
    10  N   -0.285484
    11  C    0.239257
    12  C    0.113099
    13  N   -0.051181
    14  H    0.107297
    15  H    0.088074
    16  H    0.027533
    17  H    0.035281
    18  H    0.027572
    19  N   -0.297778
    20  C    0.213270
    21  C    0.185758
    22  N   -0.084985
    23  H    0.098193
    24  H    0.113967
    25  N   -0.267455
    26  C    0.186626
    27  N   -0.102447
    28  H    0.124227
    29  C    0.130402
    30  O   -0.320602
    31  C    0.008114
    32  N   -0.219892
    33  C    0.124692
    34  H    0.028636
    35  H    0.016951
    36  H    0.026319
    37  H    0.023651
    38  H    0.059395
    39  H    0.063429
    40  H    0.069297
    41  H    0.031453
    42  C   -0.110410
    43  O   -0.266251
    44  C    0.180691
    45  H    0.134698
    46  N   -0.136984
    47  O   -0.352519
    48  C    0.365164
    49  H    0.047128
    50  C    0.174845
    51  C    0.037580
    52  N   -0.294048
    53  H    0.026606
    54  H    0.023798
    55  H    0.013546
    56  H    0.119748
    57  H    0.118135
    58  N   -0.066891
    59  C    0.127285
    60  C    0.224514
    61  N   -0.264694
    62  H    0.074757
    63  C    0.145335
    64  N   -0.300122
    65  H    0.026757
    66  C    0.128935
    67  N   -0.259905
    68  C    0.018476
    69  C    0.191678
    70  N   -0.309572
 Sum of Mulliken charges =  -0.00000

 Dipole moment (field-independent basis, Debye):
    X=              6.0827    Y=              5.6745    Z=              3.9254  Tot=              9.1982
 Quadrupole moment (field-independent basis, Debye-Ang):
   XX=           -139.9491   YY=           -227.3901   ZZ=           -255.1118
   XY=             12.2967   XZ=             15.3654   YZ=            -10.9788

 Normal termination of Gaussian 16 at Mon Jan 22 08:38:43 2018.
