 Gaussian 16, Revision A.03,
 Gaussian 16:  EM64L-G16RevA.03 25-Dec-2016

 ---------------------------------------
 #p wb97xd/cc-pvdz sp scf=(maxcycles=20)
 ---------------------------------------

 ------------------
 Base pair stacking
 ------------------
 Symbolic Z-matrix:
 Charge =  0 Multiplicity = 1

                         Standard orientation:
 ---------------------------------------------------------------------
 Center     Atomic      Atomic             Coordinates (Angstroms)
 Number     Number       Type             X           Y           Z
 ---------------------------------------------------------------------
      1          7           0        4.901839   -1.438600   -1.580242
      2          6           0        6.277867   -0.905500   -1.598898
      3          6           0        2.709389   -1.610069   -1.547473
      4          7           0        3.199992   -2.907705   -1.560795
      5          6           0        4.501235   -2.752461   -1.580002
      6          1           0        5.222958   -3.569669   -1.594711
      7          7           0        1.259646    0.250103   -1.516959
      8          6           0        2.359051    1.010827   -1.530364
      9          1           0        2.181151    2.085337   -1.522818
     10          7           0        3.639204    0.645251   -1.551587
     11          6           0        3.746548   -0.693719   -1.559232
     12          6           0        1.401155   -1.093395   -1.525145
     13          7           0        0.304898   -1.854445   -1.511795
     14          1           0        0.362263   -2.853393   -1.517155
     15          1           0       -0.610606   -1.452260   -1.495984
     16          1           0        6.747717   -1.220597   -2.423606
     17          1           0        6.249131    0.093634   -1.593980
     18          1           0        6.773091   -1.227006   -0.791812
     19          7           0        4.913998    1.815413    0.980772
     20          6           0        3.541679    1.747273    0.992589
     21          6           0        5.706470    3.006393    0.614357
     22          7           0        0.451049    3.253309    0.501028
     23          1           0       -0.513080    2.999478    0.573640
     24          1           0        0.653254    4.188892    0.210289
     25          7           0        2.693447    2.748805    0.674015
     26          6           0        1.429522    2.379087    0.780742
     27          7           0        1.025085    1.124979    1.169552
     28          1           0        0.036917    0.931066    1.223283
     29          6           0        1.880324    0.079092    1.502016
     30          8           0        1.412433   -1.015112    1.840457
     31          6           0        3.241508    0.461156    1.392104
     32          7           0        4.402025   -0.263545    1.626390
     33          6           0        5.366315    0.578312    1.370175
     34          1           0        6.429267    0.347823    1.449473
     35          1           0        6.288041    2.793431   -0.170009
     36          1           0        5.088821    3.754815    0.376405
     37          1           0        6.277305    3.279853    1.387776
     38          1           0       -4.990807    0.411506    0.671233
     39          1           0       -4.998790    0.661309    2.415424
     40          1           0       -3.766902    1.437642    1.419880
     41          1           0       -3.628441   -3.945048    2.191436
     42          6           0       -3.204822   -2.950541    2.050942
     43          8           0       -0.954421   -3.691662    2.167390
     44          6           0       -1.782793   -2.791136    2.034617
     45          1           0       -0.353581   -1.340214    1.833355
     46          7           0       -1.352170   -1.492692    1.850623
     47          8           0       -1.659508    0.734439    1.530241
     48          6           0       -2.134161   -0.376745    1.687216
     49          1           0       -5.080733   -1.948724    1.898862
     50          6           0       -3.993643   -1.881063    1.894154
     51          6           0       -4.370543    0.550909    1.544116
     52          7           0       -3.494766   -0.611710    1.714638
     53          1           0       -5.704452    4.015759   -1.575821
     54          1           0       -4.404591    3.867321   -0.600940
     55          1           0       -5.908264    3.712328    0.014719
     56          1           0       -3.191845   -2.964454   -1.746191
     57          1           0       -4.847049   -2.575158   -1.883461
     58          7           0       -3.910694   -2.270339   -1.705889
     59          6           0       -3.634005   -0.994687   -1.427800
     60          6           0       -4.166614    1.295032   -1.060064
     61          7           0       -2.899878    1.675740   -0.825862
     62          1           0       -1.023157    0.856276   -0.742163
     63          6           0       -2.074846    0.634761   -0.918610
     64          7           0       -2.350029   -0.643650   -1.197041
     65          1           0       -7.364692    1.617697   -1.407034
     66          6           0       -6.340180    1.249394   -1.346303
     67          7           0       -5.983817    0.002829   -1.538024
     68          6           0       -4.608093    0.017935   -1.359481
     69          6           0       -5.330154    3.536229   -0.782131
     70          7           0       -5.291002    2.086045   -1.053102
 ---------------------------------------------------------------------

 SCF Done:  E(RwB97XD) =  -2048.71648588     A.U. after   15 cycles

 The electronic state is 1-A.
 Alpha  occ. eigenvalues --  -19.25178 -19.21405 -19.20379 -14.52938 -14.51819
 Alpha  occ. eigenvalues --  -14.48780 -14.48622 -14.48561 -14.47270 -14.46573
 Alpha  occ. eigenvalues --  -14.46455 -14.45929 -14.44802 -14.44588 -14.42975
 Alpha  occ. eigenvalues --  -14.41830 -14.41229 -14.41028 -14.41011 -14.40586
 Alpha  occ. eigenvalues --  -10.44837 -10.41013 -10.40548 -10.39525 -10.38421
 Alpha  occ. eigenvalues --  -10.37984 -10.37642 -10.37248 -10.36497 -10.35807
 Alpha  occ. eigenvalues --  -10.34316 -10.34181 -10.33952 -10.33737 -10.33472
 Alpha  occ. eigenvalues --  -10.33356 -10.32927 -10.32914 -10.30943 -10.30861
 Alpha  occ. eigenvalues --  -10.30595 -10.28583 -10.27921  -1.19047  -1.15820
 Alpha  occ. eigenvalues --   -1.13057  -1.12456  -1.11195  -1.10448  -1.09869
 Alpha  occ. eigenvalues --   -1.08767  -1.08429  -1.05408  -1.05347  -1.01886
 Alpha  occ. eigenvalues --   -1.01481  -1.00847  -0.99584  -0.98428  -0.97464
 Alpha  occ. eigenvalues --   -0.96902  -0.96532  -0.93080  -0.90513  -0.88250
 Alpha  occ. eigenvalues --   -0.86380  -0.84060  -0.83953  -0.82948  -0.82415
 Alpha  occ. eigenvalues --   -0.82365  -0.78333  -0.77589  -0.75452  -0.74510
 Alpha  occ. eigenvalues --   -0.73497  -0.73104  -0.72815  -0.71277  -0.70939
 Alpha  occ. eigenvalues --   -0.67373  -0.67260  -0.66536  -0.66055  -0.64812
 Alpha  occ. eigenvalues --   -0.64218  -0.63638  -0.62994  -0.62546  -0.61706
 Alpha  occ. eigenvalues --   -0.61535  -0.60962  -0.60791  -0.59983  -0.59139
 Alpha  occ. eigenvalues --   -0.58729  -0.58228  -0.57403  -0.56726  -0.56117
 Alpha  occ. eigenvalues --   -0.55877  -0.55795  -0.55595  -0.54884  -0.54178
 Alpha  occ. eigenvalues --   -0.53988  -0.53868  -0.53354  -0.53164  -0.52859
 Alpha  occ. eigenvalues --   -0.52033  -0.51953  -0.51838  -0.50786  -0.50528
 Alpha  occ. eigenvalues --   -0.49990  -0.49876  -0.49428  -0.49110  -0.49056
 Alpha  occ. eigenvalues --   -0.48649  -0.48166  -0.47984  -0.47873  -0.47144
 Alpha  occ. eigenvalues --   -0.47022  -0.45418  -0.44889  -0.44510  -0.42592
 Alpha  occ. eigenvalues --   -0.41307  -0.41225  -0.39080  -0.38189  -0.38154
 Alpha  occ. eigenvalues --   -0.37507  -0.37183  -0.37118  -0.35504  -0.35201
 Alpha  occ. eigenvalues --   -0.34840  -0.34466  -0.33613  -0.33273  -0.32774
 Alpha  occ. eigenvalues --   -0.32453  -0.32165  -0.31744  -0.31428  -0.30716
 Alpha  occ. eigenvalues --   -0.30393  -0.30072  -0.26072  -0.25173
 Alpha virt. eigenvalues --    0.03496   0.03577   0.06246   0.07718   0.08960
 Alpha virt. eigenvalues --    0.09480   0.09790   0.09927   0.10773   0.12405
 Alpha virt. eigenvalues --    0.12888   0.14053   0.14255   0.14432   0.14627

 Mulliken charges:
               1
     1  N   -0.309753
     2  C    0.179834
     3  C    0.065395
     4  N   -0.262337
     5  C    0.144170
     6  H    0.027270
     7  N   -0.278422
     8  C    0.115374
     9  H    0.022630
    10  N   -0.273009
    11  C    0.250192
    12  C    0.078525
    13  N   -0.059634
    14  H    0.109805
    15  H    0.081372
    16  H    0.027100
    17  H    0.026558
    18  H    0.027336
    19  N   -0.290275
    20  C    0.251324
    21  C    0.183913
    22  N   -0.106013
    23  H    0.119967
    24  H    0.116515
    25  N   -0.286265
    26  C    0.189314
    27  N   -0.100944
    28  H    0.113578
    29  C    0.162787
    30  O   -0.321607
    31  C   -0.007042
    32  N   -0.220648
    33  C    0.102790
    34  H    0.018406
    35  H    0.022391
    36  H    0.029543
    37  H    0.022870
    38  H    0.059127
    39  H    0.048395
    40  H    0.078501
    41  H    0.026317
    42  C   -0.107382
    43  O   -0.265002
    44  C    0.176350
    45  H    0.130547
    46  N   -0.122750
    47  O   -0.340370
    48  C    0.338291
    49  H    0.045360
    50  C    0.162559
    51  C    0.060622
    52  N   -0.277457
    53  H    0.036556
    54  H    0.039020
    55  H    0.029578
    56  H    0.120556
    57  H    0.119551
    58  N   -0.061649
    59  C    0.100679
    60  C    0.185656
    61  N   -0.261081
    62  H   -0.000914
    63  C    0.200077
    64  N   -0.309494
    65  H    0.037761
    66  C    0.122595
    67  N   -0.245825
    68  C    0.012555
    69  C    0.181904
    70  N   -0.293646
 Sum of Mulliken charges =  -0.00000

 Dipole moment (field-independent basis, Debye):
    X=             -7.1225    Y=              6.9594    Z=             -2.7589  Tot=             10.3331
 Quadrupole moment (field-independent basis, Debye-Ang):
   XX=           -155.0812   YY=           -226.6307   ZZ=           -256.0881
   XY=              0.7795   XZ=            -11.5030   YZ=             14.7731

 Normal termination of Gaussian 16 at Mon Jan 22 11:36:34 2018.
