 Gaussian 16, Revision A.03,
 Gaussian 16:  EM64L-G16RevA.03 25-Dec-2016

 ---------------------------------------
 #p wb97xd/cc-pvdz sp scf=(maxcycles=20)
 ---------------------------------------

 ------------------
 Base pair stacking
 ------------------
 Symbolic Z-matrix:
 Charge =  0 Multiplicity = 1

                         Standard orientation:
 ---------------------------------------------------------------------
 Center     Atomic      Atomic             Coordinates (Angstroms)
 Number     Number       Type             X           Y           Z
 ---------------------------------------------------------------------
      1          7           0       -6.659439   -1.347957    0.448226
      2          6           0       -8.015599   -0.765852    0.447052
      3          6           0       -4.486816   -1.626701    0.646529
      4          7           0       -4.996322   -2.842816    0.215027
      5          6           0       -6.284862   -2.626212    0.112830
      6          1           0       -7.015330   -3.370492   -0.205597
      7          7           0       -3.015705    0.077595    1.349506
      8          6           0       -4.093383    0.863053    1.445583
      9          1           0       -3.898076    1.882004    1.777048
     10          7           0       -5.370095    0.580158    1.194858
     11          6           0       -5.500002   -0.695559    0.794735
     12          6           0       -3.179597   -1.200675    0.944215
     13          7           0       -2.105053   -1.986298    0.847681
     14          1           0       -2.179435   -2.939236    0.551743
     15          1           0       -1.189549   -1.649295    1.067771
     16          1           0       -8.600466   -1.278655    1.075652
     17          1           0       -7.969633    0.188771    0.739812
     18          1           0       -8.399507   -0.811782   -0.475177
     19          7           0       -3.019911    2.285081   -1.593804
     20          6           0       -1.666224    2.141938   -1.406472
     21          6           0       -3.783967    3.530967   -1.382403
     22          7           0        1.407890    3.495805   -0.524054
     23          1           0        2.355757    3.187198   -0.449605
     24          1           0        1.222623    4.451749   -0.294823
     25          7           0       -0.813507    3.107640   -1.001061
     26          6           0        0.428554    2.665752   -0.913702
     27          7           0        0.808563    1.377116   -1.200945
     28          1           0        1.781087    1.127734   -1.106245
     29          6           0       -0.051757    0.366991   -1.619709
     30          8           0        0.393352   -0.763578   -1.853044
     31          6           0       -1.389631    0.826621   -1.718253
     32          7           0       -2.546395    0.157454   -2.093778
     33          6           0       -3.485405    1.060000   -2.005079
     34          1           0       -4.538265    0.884749   -2.228789
     35          1           0       -4.482254    3.381154   -0.683298
     36          1           0       -3.162747    4.253490   -1.081888
     37          1           0       -4.222377    3.804306   -2.237904
     38          1           0        6.640283    0.357553    0.177423
     39          1           0        6.909725    0.537423   -1.554541
     40          1           0        5.597804    1.418386   -0.770866
     41          1           0        5.249834   -3.975073   -1.385128
     42          6           0        4.870530   -2.954216   -1.338118
     43          8           0        2.619159   -3.575794   -1.752923
     44          6           0        3.472521   -2.717135   -1.530992
     45          1           0        2.118106   -1.183761   -1.582450
     46          7           0        3.098236   -1.390930   -1.451485
     47          8           0        3.489138    0.827100   -1.160320
     48          6           0        3.914259   -0.313599   -1.212655
     49          1           0        6.762332   -2.050746   -0.949978
     50          6           0        5.691483   -1.923896   -1.103396
     51          6           0        6.159111    0.495894   -0.779346
     52          7           0        5.248646   -0.623168   -1.037206
     53          1           0        3.935456    3.264286    3.401011
     54          1           0        2.780950    3.477869    2.268050
     55          1           0        4.352622    3.422377    1.831175
     56          1           0        1.306237   -3.313120    1.189551
     57          1           0        2.932758   -3.074631    1.645242
     58          7           0        2.035318   -2.678915    1.447170
     59          6           0        1.821385   -1.363775    1.523497
     60          6           0        2.438330    0.900469    1.916318
     61          7           0        1.222883    1.403810    1.644768
     62          1           0       -0.637655    0.751303    1.085087
     63          6           0        0.375541    0.428982    1.321297
     64          7           0        0.587888   -0.888797    1.244285
     65          1           0        5.562418    0.927177    2.747917
     66          6           0        4.550164    0.650868    2.451383
     67          7           0        4.149710   -0.575617    2.221016
     68          6           0        2.812468   -0.431555    1.880792
     69          6           0        3.666758    3.056608    2.460443
     70          7           0        3.565998    1.594645    2.285770
 ---------------------------------------------------------------------

 SCF Done:  E(RwB97XD) =  -2048.74598992     A.U. after   15 cycles

 The electronic state is 1-A.
 Alpha  occ. eigenvalues --  -19.25968 -19.22068 -19.20619 -14.52443 -14.51725
 Alpha  occ. eigenvalues --  -14.49182 -14.48623 -14.47928 -14.46943 -14.46770
 Alpha  occ. eigenvalues --  -14.46634 -14.44771 -14.43215 -14.43068 -14.42492
 Alpha  occ. eigenvalues --  -14.42042 -14.41802 -14.41393 -14.40716 -14.40527
 Alpha  occ. eigenvalues --  -10.45562 -10.41124 -10.40192 -10.38865 -10.38182
 Alpha  occ. eigenvalues --  -10.37797 -10.37322 -10.36288 -10.35776 -10.35464
 Alpha  occ. eigenvalues --  -10.34839 -10.34462 -10.34288 -10.33776 -10.33685
 Alpha  occ. eigenvalues --  -10.33517 -10.33165 -10.31681 -10.31357 -10.31066
 Alpha  occ. eigenvalues --  -10.30584 -10.28925 -10.28052  -1.19517  -1.14406
 Alpha  occ. eigenvalues --   -1.13199  -1.13095  -1.11758  -1.10493  -1.09338
 Alpha  occ. eigenvalues --   -1.08532  -1.08192  -1.05365  -1.03757  -1.02556
 Alpha  occ. eigenvalues --   -1.00801  -1.00234  -0.99721  -0.98500  -0.97342
 Alpha  occ. eigenvalues --   -0.96445  -0.95784  -0.93016  -0.91056  -0.86871
 Alpha  occ. eigenvalues --   -0.85350  -0.84340  -0.83998  -0.83765  -0.82700
 Alpha  occ. eigenvalues --   -0.82318  -0.78888  -0.76159  -0.74553  -0.73902
 Alpha  occ. eigenvalues --   -0.73633  -0.73408  -0.73268  -0.71455  -0.69556
 Alpha  occ. eigenvalues --   -0.67340  -0.66674  -0.66583  -0.65894  -0.64473
 Alpha  occ. eigenvalues --   -0.63717  -0.63444  -0.63035  -0.62673  -0.61688
 Alpha  occ. eigenvalues --   -0.60578  -0.60158  -0.59709  -0.59516  -0.58926
 Alpha  occ. eigenvalues --   -0.58769  -0.58318  -0.56930  -0.56835  -0.56506
 Alpha  occ. eigenvalues --   -0.56024  -0.55722  -0.54867  -0.54582  -0.54392
 Alpha  occ. eigenvalues --   -0.53647  -0.53596  -0.52953  -0.52853  -0.52583
 Alpha  occ. eigenvalues --   -0.52549  -0.52123  -0.52000  -0.51168  -0.50571
 Alpha  occ. eigenvalues --   -0.50096  -0.49535  -0.49466  -0.48955  -0.48767
 Alpha  occ. eigenvalues --   -0.48748  -0.48234  -0.47977  -0.47634  -0.47397
 Alpha  occ. eigenvalues --   -0.47340  -0.45529  -0.45316  -0.44024  -0.43580
 Alpha  occ. eigenvalues --   -0.41591  -0.39996  -0.39521  -0.37588  -0.37308
 Alpha  occ. eigenvalues --   -0.37220  -0.36851  -0.36565  -0.35896  -0.34165
 Alpha  occ. eigenvalues --   -0.34059  -0.33848  -0.33628  -0.33260  -0.33106
 Alpha  occ. eigenvalues --   -0.32660  -0.32242  -0.32003  -0.31799  -0.31342
 Alpha  occ. eigenvalues --   -0.30764  -0.28832  -0.26150  -0.25394
 Alpha virt. eigenvalues --    0.03032   0.04866   0.07574   0.07725   0.08918
 Alpha virt. eigenvalues --    0.09121   0.09630   0.10523   0.10979   0.11428
 Alpha virt. eigenvalues --    0.12904   0.13802   0.14432   0.14684   0.14941

 Mulliken charges:
               1
     1  N   -0.311793
     2  C    0.180437
     3  C    0.046552
     4  N   -0.257790
     5  C    0.133138
     6  H    0.027573
     7  N   -0.283830
     8  C    0.127658
     9  H    0.013224
    10  N   -0.290868
    11  C    0.232989
    12  C    0.113139
    13  N   -0.049405
    14  H    0.109003
    15  H    0.089233
    16  H    0.026820
    17  H    0.033687
    18  H    0.025663
    19  N   -0.305773
    20  C    0.246630
    21  C    0.179753
    22  N   -0.104578
    23  H    0.110831
    24  H    0.115259
    25  N   -0.299587
    26  C    0.226282
    27  N   -0.126053
    28  H    0.116101
    29  C    0.147852
    30  O   -0.320252
    31  C    0.011928
    32  N   -0.223413
    33  C    0.124592
    34  H    0.026150
    35  H    0.030833
    36  H    0.026963
    37  H    0.023054
    38  H    0.057029
    39  H    0.062478
    40  H    0.070404
    41  H    0.029699
    42  C   -0.115138
    43  O   -0.270786
    44  C    0.169823
    45  H    0.136506
    46  N   -0.130719
    47  O   -0.349445
    48  C    0.355480
    49  H    0.047606
    50  C    0.182219
    51  C    0.040027
    52  N   -0.287298
    53  H    0.035002
    54  H    0.035011
    55  H    0.022654
    56  H    0.124678
    57  H    0.116888
    58  N   -0.057567
    59  C    0.110265
    60  C    0.238095
    61  N   -0.270294
    62  H    0.043293
    63  C    0.165840
    64  N   -0.300700
    65  H    0.031057
    66  C    0.123092
    67  N   -0.259051
    68  C    0.005541
    69  C    0.175055
    70  N   -0.308742
 Sum of Mulliken charges =  -0.00000

 Dipole moment (field-independent basis, Debye):
    X=              6.9274    Y=              6.0940    Z=              2.8659  Tot=              9.6612
 Quadrupole moment (field-independent basis, Debye-Ang):
   XX=           -144.0389   YY=           -224.3409   ZZ=           -254.6206
   XY=              8.6177   XZ=             11.1838   YZ=             -7.7993

 Normal termination of Gaussian 16 at Sun Jan 21 23:38:57 2018.
