 Gaussian 16, Revision A.03,
 Gaussian 16:  EM64L-G16RevA.03 25-Dec-2016

 ---------------------------------------
 #p wb97xd/cc-pvdz sp scf=(maxcycles=20)
 ---------------------------------------

 ------------------
 Base pair stacking
 ------------------
 Symbolic Z-matrix:
 Charge =  0 Multiplicity = 1

                         Standard orientation:
 ---------------------------------------------------------------------
 Center     Atomic      Atomic             Coordinates (Angstroms)
 Number     Number       Type             X           Y           Z
 ---------------------------------------------------------------------
      1          7           0       -6.149253   -1.683989    0.594921
      2          6           0       -7.520350   -1.237561    0.909258
      3          6           0       -3.959081   -1.873133    0.526412
      4          7           0       -4.460192   -2.859844   -0.310254
      5          6           0       -5.759629   -2.706403   -0.235494
      6          1           0       -6.487809   -3.317066   -0.770090
      7          7           0       -2.494587   -0.478081    1.739678
      8          6           0       -3.587281    0.136476    2.204335
      9          1           0       -3.400593    0.959470    2.892880
     10          7           0       -4.869953   -0.111789    1.947354
     11          6           0       -4.988274   -1.140325    1.091461
     12          6           0       -2.647107   -1.509208    0.880271
     13          7           0       -1.557556   -2.123938    0.415354
     14          1           0       -1.623128   -2.891875   -0.222768
     15          1           0       -0.639100   -1.837992    0.688885
     16          1           0       -8.030360   -1.990512    1.325359
     17          1           0       -7.483384   -0.468740    1.546956
     18          1           0       -7.980263   -0.949831    0.069206
     19          7           0       -3.573694    2.649335   -1.184607
     20          6           0       -2.208456    2.506405   -1.123316
     21          6           0       -4.321242    3.870613   -0.823573
     22          7           0        0.925045    3.825449   -0.414051
     23          1           0        1.876886    3.521377   -0.441894
     24          1           0        0.756697    4.761688   -0.104487
     25          7           0       -1.327610    3.450041   -0.726180
     26          6           0       -0.081085    3.014872   -0.775403
     27          7           0        0.277504    1.752530   -1.182123
     28          1           0        1.255431    1.506388   -1.187859
     29          6           0       -0.611898    0.765423   -1.594957
     30          8           0       -0.184403   -0.342303   -1.942717
     31          6           0       -1.954905    1.218153   -1.547497
     32          7           0       -3.137177    0.565449   -1.868622
     33          6           0       -4.068327    1.450968   -1.638384
     34          1           0       -5.135832    1.281582   -1.783356
     35          1           0       -4.956732    3.666757   -0.079663
     36          1           0       -3.679155    4.576663   -0.527806
     37          1           0       -4.832088    4.197746   -1.617824
     38          1           0        6.209188    0.695728   -0.378004
     39          1           0        6.329056    0.996242   -2.110044
     40          1           0        5.085812    1.809161   -1.158804
     41          1           0        4.705518   -3.532623   -2.111951
     42          6           0        4.328043   -2.520981   -1.962543
     43          8           0        2.051649   -3.133791   -2.226407
     44          6           0        2.917846   -2.284365   -2.019083
     45          1           0        1.558625   -0.763839   -1.849335
     46          7           0        2.547076   -0.970281   -1.816747
     47          8           0        2.953657    1.226182   -1.407515
     48          6           0        3.376746    0.095768   -1.574362
     49          1           0        6.242902   -1.628501   -1.675175
     50          6           0        5.162432   -1.501492   -1.727914
     51          6           0        5.647561    0.894714   -1.278587
     52          7           0        4.722320   -0.212556   -1.534733
     53          1           0        4.489366    2.124417    4.410606
     54          1           0        3.234836    2.681198    3.528418
     55          1           0        4.764083    2.902549    3.002598
     56          1           0        1.915572   -3.251035   -0.010444
     57          1           0        3.565737   -3.099476    0.394661
     58          7           0        2.641070   -2.718348    0.425508
     59          6           0        2.387796   -1.551501    1.021754
     60          6           0        2.955225    0.421902    2.224017
     61          7           0        1.703773    0.909348    2.250067
     62          1           0       -0.173589    0.401328    1.603511
     63          6           0        0.867004    0.080715    1.628717
     64          7           0        1.118732   -1.088407    1.030901
     65          1           0        6.136311    0.332810    2.794035
     66          6           0        5.112789    0.125774    2.480223
     67          7           0        4.737929   -0.940777    1.817171
     68          6           0        3.372105   -0.765607    1.648187
     69          6           0        4.148339    2.277985    3.483175
     70          7           0        4.085044    0.993077    2.759983
 ---------------------------------------------------------------------

 SCF Done:  E(RwB97XD) =  -2048.73989713     A.U. after   15 cycles

 The electronic state is 1-A.
 Alpha  occ. eigenvalues --  -19.26122 -19.22398 -19.20835 -14.52615 -14.51873
 Alpha  occ. eigenvalues --  -14.48879 -14.48537 -14.47994 -14.47167 -14.46915
 Alpha  occ. eigenvalues --  -14.46527 -14.45004 -14.43522 -14.43419 -14.42211
 Alpha  occ. eigenvalues --  -14.41802 -14.41074 -14.40980 -14.40681 -14.39943
 Alpha  occ. eigenvalues --  -10.45737 -10.41443 -10.40782 -10.38947 -10.38429
 Alpha  occ. eigenvalues --  -10.38083 -10.37496 -10.36511 -10.35324 -10.35080
 Alpha  occ. eigenvalues --  -10.35024 -10.34483 -10.33773 -10.33481 -10.33430
 Alpha  occ. eigenvalues --  -10.33058 -10.32856 -10.31963 -10.31303 -10.30929
 Alpha  occ. eigenvalues --  -10.30923 -10.28249 -10.28185  -1.19688  -1.14594
 Alpha  occ. eigenvalues --   -1.13748  -1.13399  -1.11072  -1.10724  -1.09546
 Alpha  occ. eigenvalues --   -1.08773  -1.08376  -1.04715  -1.03940  -1.02812
 Alpha  occ. eigenvalues --   -1.00357  -1.00100  -0.99974  -0.98726  -0.96705
 Alpha  occ. eigenvalues --   -0.96688  -0.95973  -0.92363  -0.91346  -0.86984
 Alpha  occ. eigenvalues --   -0.85347  -0.84238  -0.83815  -0.83710  -0.82593
 Alpha  occ. eigenvalues --   -0.82099  -0.79165  -0.76292  -0.74783  -0.74057
 Alpha  occ. eigenvalues --   -0.73865  -0.73660  -0.72613  -0.70778  -0.69673
 Alpha  occ. eigenvalues --   -0.67584  -0.66823  -0.66011  -0.65986  -0.64725
 Alpha  occ. eigenvalues --   -0.63969  -0.63472  -0.62854  -0.62411  -0.61939
 Alpha  occ. eigenvalues --   -0.60363  -0.60033  -0.59734  -0.59682  -0.58931
 Alpha  occ. eigenvalues --   -0.58766  -0.58590  -0.56705  -0.56297  -0.56257
 Alpha  occ. eigenvalues --   -0.56218  -0.55127  -0.54884  -0.54666  -0.54570
 Alpha  occ. eigenvalues --   -0.53859  -0.53657  -0.53138  -0.52969  -0.52958
 Alpha  occ. eigenvalues --   -0.52670  -0.52137  -0.51582  -0.50563  -0.50393
 Alpha  occ. eigenvalues --   -0.49994  -0.49766  -0.49571  -0.49325  -0.49165
 Alpha  occ. eigenvalues --   -0.48547  -0.48515  -0.47878  -0.47656  -0.47579
 Alpha  occ. eigenvalues --   -0.46713  -0.45736  -0.44750  -0.44196  -0.43614
 Alpha  occ. eigenvalues --   -0.40856  -0.40064  -0.39679  -0.37435  -0.37429
 Alpha  occ. eigenvalues --   -0.36895  -0.36852  -0.36738  -0.36333  -0.34401
 Alpha  occ. eigenvalues --   -0.34125  -0.33822  -0.33550  -0.33233  -0.33137
 Alpha  occ. eigenvalues --   -0.32729  -0.32550  -0.32352  -0.32025  -0.30669
 Alpha  occ. eigenvalues --   -0.30160  -0.29087  -0.25626  -0.25356
 Alpha virt. eigenvalues --    0.02446   0.04870   0.07268   0.08284   0.08665
 Alpha virt. eigenvalues --    0.08992   0.09611   0.10959   0.11318   0.12094
 Alpha virt. eigenvalues --    0.13127   0.14256   0.14564   0.14646   0.15727

 Mulliken charges:
               1
     1  N   -0.312200
     2  C    0.180513
     3  C    0.055741
     4  N   -0.255513
     5  C    0.131454
     6  H    0.024930
     7  N   -0.294249
     8  C    0.133298
     9  H    0.010529
    10  N   -0.292475
    11  C    0.235156
    12  C    0.106297
    13  N   -0.046032
    14  H    0.113065
    15  H    0.091882
    16  H    0.025735
    17  H    0.032925
    18  H    0.022723
    19  N   -0.310949
    20  C    0.254161
    21  C    0.180309
    22  N   -0.121602
    23  H    0.114260
    24  H    0.117986
    25  N   -0.310511
    26  C    0.246378
    27  N   -0.148191
    28  H    0.119621
    29  C    0.187677
    30  O   -0.324740
    31  C   -0.010133
    32  N   -0.224474
    33  C    0.132909
    34  H    0.023622
    35  H    0.031606
    36  H    0.028706
    37  H    0.023859
    38  H    0.059184
    39  H    0.060038
    40  H    0.072090
    41  H    0.028715
    42  C   -0.119125
    43  O   -0.282870
    44  C    0.134874
    45  H    0.136418
    46  N   -0.107121
    47  O   -0.344773
    48  C    0.342948
    49  H    0.049386
    50  C    0.191692
    51  C    0.041146
    52  N   -0.282220
    53  H    0.033058
    54  H    0.042146
    55  H    0.024212
    56  H    0.129139
    57  H    0.113260
    58  N   -0.045207
    59  C    0.090472
    60  C    0.251501
    61  N   -0.274144
    62  H    0.036688
    63  C    0.165338
    64  N   -0.302046
    65  H    0.033444
    66  C    0.129695
    67  N   -0.264391
    68  C    0.012618
    69  C    0.180363
    70  N   -0.310798
 Sum of Mulliken charges =  -0.00000

 Dipole moment (field-independent basis, Debye):
    X=              7.5779    Y=              6.6289    Z=              2.3353  Tot=             10.3354
 Quadrupole moment (field-independent basis, Debye-Ang):
   XX=           -147.5588   YY=           -223.1087   ZZ=           -252.4493
   XY=              4.0728   XZ=              6.7480   YZ=             -0.3133

 Normal termination of Gaussian 16 at Mon Jan 22 10:13:08 2018.
