 Gaussian 16, Revision A.03,
 Gaussian 16:  EM64L-G16RevA.03 25-Dec-2016

 ---------------------------------------
 #p wb97xd/cc-pvdz sp scf=(maxcycles=20)
 ---------------------------------------

 ------------------
 Base pair stacking
 ------------------
 Symbolic Z-matrix:
 Charge =  0 Multiplicity = 1

                         Standard orientation:
 ---------------------------------------------------------------------
 Center     Atomic      Atomic             Coordinates (Angstroms)
 Number     Number       Type             X           Y           Z
 ---------------------------------------------------------------------
      1          7           0       -5.537852   -1.972925    0.930385
      2          6           0       -6.903395   -1.600545    1.348283
      3          6           0       -3.350596   -2.062115    0.717664
      4          7           0       -3.862746   -3.035645   -0.127709
      5          6           0       -5.159995   -2.942952    0.034284
      6          1           0       -5.894877   -3.563263   -0.479633
      7          7           0       -1.870725   -0.653487    1.896096
      8          6           0       -2.956062   -0.106999    2.453766
      9          1           0       -2.760076    0.695145    3.163991
     10          7           0       -4.241101   -0.401232    2.266705
     11          6           0       -4.371096   -1.398810    1.376550
     12          6           0       -2.034931   -1.655029    1.004454
     13          7           0       -0.952750   -2.201818    0.446716
     14          1           0       -1.027044   -2.945664   -0.218407
     15          1           0       -0.031366   -1.886735    0.674560
     16          1           0       -7.353950   -2.391402    1.762659
     17          1           0       -6.857702   -0.857049    2.014804
     18          1           0       -7.427714   -1.299951    0.551584
     19          7           0       -4.247392    2.530124   -0.872619
     20          6           0       -2.876269    2.445365   -0.902593
     21          6           0       -5.020458    3.701665   -0.413759
     22          7           0        0.238612    3.872156   -0.333843
     23          1           0        1.198542    3.611838   -0.433874
     24          1           0        0.051627    4.786853    0.025433
     25          7           0       -2.011832    3.410324   -0.520974
     26          6           0       -0.753994    3.033034   -0.666280
     27          7           0       -0.369970    1.805135   -1.148250
     28          1           0        0.614977    1.602910   -1.225368
     29          6           0       -1.242149    0.797020   -1.546849
     30          8           0       -0.792083   -0.275850   -1.967688
     31          6           0       -2.597029    1.187658   -1.396544
     32          7           0       -3.769250    0.496716   -1.671143
     33          6           0       -4.719785    1.330243   -1.345656
     34          1           0       -5.786411    1.119754   -1.431046
     35          1           0       -5.597981    3.440216    0.358837
     36          1           0       -4.390681    4.422979   -0.128542
     37          1           0       -5.594275    4.037509   -1.159927
     38          1           0        5.639845    0.980266   -0.760861
     39          1           0        5.635971    1.355073   -2.482541
     40          1           0        4.423428    2.073372   -1.421810
     41          1           0        4.205449   -3.237445   -2.577461
     42          6           0        3.796562   -2.250293   -2.361649
     43          8           0        1.535413   -2.952090   -2.509348
     44          6           0        2.377019   -2.074194   -2.320125
     45          1           0        0.969378   -0.623306   -2.001114
     46          7           0        1.965620   -0.786974   -2.038972
     47          8           0        2.305841    1.407123   -1.562092
     48          6           0        2.764031    0.304142   -1.803240
     49          1           0        5.687104   -1.286257   -2.156019
     50          6           0        4.601120   -1.205148   -2.135921
     51          6           0        5.013926    1.190207   -1.615390
     52          7           0        4.121039    0.054271   -1.860679
     53          1           0        5.155556    2.146020    4.236270
     54          1           0        3.825057    2.681743    3.458536
     55          1           0        5.306969    2.991419    2.848533
     56          1           0        2.529861   -3.156209   -0.242310
     57          1           0        4.194840   -2.948204    0.065435
     58          7           0        3.258992   -2.609886    0.170072
     59          6           0        2.996094   -1.480262    0.830375
     60          6           0        3.556741    0.466455    2.078452
     61          7           0        2.290325    0.896649    2.203199
     62          1           0        0.398184    0.332463    1.653559
     63          6           0        1.450697    0.057422    1.600192
     64          7           0        1.712048   -1.074478    0.938321
     65          1           0        6.768734    0.495331    2.445050
     66          6           0        5.736728    0.255988    2.186960
     67          7           0        5.364883   -0.798623    1.503429
     68          6           0        3.984933   -0.677377    1.427438
     69          6           0        4.749770    2.321449    3.339293
     70          7           0        4.693813    1.065063    2.567047
 ---------------------------------------------------------------------

 SCF Done:  E(RwB97XD) =  -2048.73678899     A.U. after   15 cycles

 The electronic state is 1-A.
 Alpha  occ. eigenvalues --  -19.26017 -19.22794 -19.20816 -14.52510 -14.52159
 Alpha  occ. eigenvalues --  -14.48965 -14.48219 -14.48059 -14.47553 -14.47132
 Alpha  occ. eigenvalues --  -14.46897 -14.45294 -14.43917 -14.43867 -14.42213
 Alpha  occ. eigenvalues --  -14.41682 -14.41109 -14.40711 -14.40513 -14.39864
 Alpha  occ. eigenvalues --  -10.45590 -10.41456 -10.40721 -10.39510 -10.38430
 Alpha  occ. eigenvalues --  -10.37758 -10.37546 -10.36840 -10.35382 -10.35088
 Alpha  occ. eigenvalues --  -10.34921 -10.34543 -10.33633 -10.33551 -10.33463
 Alpha  occ. eigenvalues --  -10.32819 -10.32694 -10.32375 -10.31333 -10.31046
 Alpha  occ. eigenvalues --  -10.30716 -10.28309 -10.27945  -1.19577  -1.14906
 Alpha  occ. eigenvalues --   -1.13789  -1.13402  -1.10788  -1.10751  -1.09464
 Alpha  occ. eigenvalues --   -1.08939  -1.08774  -1.04582  -1.04501  -1.02787
 Alpha  occ. eigenvalues --   -1.00733  -0.99974  -0.99918  -0.98747  -0.96784
 Alpha  occ. eigenvalues --   -0.96590  -0.96318  -0.92230  -0.91222  -0.87319
 Alpha  occ. eigenvalues --   -0.85624  -0.84307  -0.83669  -0.83459  -0.82674
 Alpha  occ. eigenvalues --   -0.81874  -0.79060  -0.76731  -0.74832  -0.74500
 Alpha  occ. eigenvalues --   -0.73864  -0.73613  -0.72406  -0.70580  -0.70128
 Alpha  occ. eigenvalues --   -0.67605  -0.66841  -0.66406  -0.65798  -0.64784
 Alpha  occ. eigenvalues --   -0.64138  -0.63757  -0.62851  -0.62223  -0.61974
 Alpha  occ. eigenvalues --   -0.60548  -0.60184  -0.60017  -0.59517  -0.59129
 Alpha  occ. eigenvalues --   -0.59054  -0.58587  -0.56783  -0.56174  -0.56132
 Alpha  occ. eigenvalues --   -0.55989  -0.55114  -0.54876  -0.54548  -0.54312
 Alpha  occ. eigenvalues --   -0.53885  -0.53670  -0.53423  -0.53275  -0.53187
 Alpha  occ. eigenvalues --   -0.52557  -0.52488  -0.51375  -0.50441  -0.50338
 Alpha  occ. eigenvalues --   -0.49873  -0.49727  -0.49526  -0.49344  -0.49187
 Alpha  occ. eigenvalues --   -0.48634  -0.48467  -0.48093  -0.47831  -0.47609
 Alpha  occ. eigenvalues --   -0.46509  -0.45941  -0.45013  -0.44447  -0.43430
 Alpha  occ. eigenvalues --   -0.40614  -0.40411  -0.39591  -0.37705  -0.37481
 Alpha  occ. eigenvalues --   -0.37465  -0.37195  -0.36648  -0.36337  -0.34466
 Alpha  occ. eigenvalues --   -0.34225  -0.33902  -0.33882  -0.33085  -0.32981
 Alpha  occ. eigenvalues --   -0.32813  -0.32693  -0.32480  -0.32080  -0.30436
 Alpha  occ. eigenvalues --   -0.30012  -0.28833  -0.25763  -0.25078
 Alpha virt. eigenvalues --    0.02702   0.04456   0.07489   0.08010   0.08307
 Alpha virt. eigenvalues --    0.09203   0.09583   0.10736   0.11499   0.12202
 Alpha virt. eigenvalues --    0.13123   0.14196   0.14511   0.14741   0.15398

 Mulliken charges:
               1
     1  N   -0.312102
     2  C    0.180568
     3  C    0.060423
     4  N   -0.254712
     5  C    0.136916
     6  H    0.024420
     7  N   -0.298014
     8  C    0.133724
     9  H    0.009571
    10  N   -0.292131
    11  C    0.242359
    12  C    0.099494
    13  N   -0.047996
    14  H    0.115285
    15  H    0.084131
    16  H    0.024895
    17  H    0.031665
    18  H    0.021965
    19  N   -0.310355
    20  C    0.255893
    21  C    0.180831
    22  N   -0.122903
    23  H    0.116279
    24  H    0.118535
    25  N   -0.311395
    26  C    0.247836
    27  N   -0.151270
    28  H    0.121167
    29  C    0.196643
    30  O   -0.323420
    31  C   -0.016073
    32  N   -0.223136
    33  C    0.129594
    34  H    0.020829
    35  H    0.029990
    36  H    0.029456
    37  H    0.024137
    38  H    0.061439
    39  H    0.059607
    40  H    0.072732
    41  H    0.024546
    42  C   -0.119373
    43  O   -0.271371
    44  C    0.147848
    45  H    0.131215
    46  N   -0.103001
    47  O   -0.343637
    48  C    0.334831
    49  H    0.047302
    50  C    0.175449
    51  C    0.039248
    52  N   -0.276325
    53  H    0.033583
    54  H    0.042137
    55  H    0.026282
    56  H    0.125414
    57  H    0.113962
    58  N   -0.041490
    59  C    0.076681
    60  C    0.246246
    61  N   -0.274138
    62  H    0.035463
    63  C    0.167891
    64  N   -0.306145
    65  H    0.035714
    66  C    0.131069
    67  N   -0.265475
    68  C    0.027911
    69  C    0.180952
    70  N   -0.309671
 Sum of Mulliken charges =  -0.00000

 Dipole moment (field-independent basis, Debye):
    X=              7.4010    Y=              6.8798    Z=              2.1952  Tot=             10.3405
 Quadrupole moment (field-independent basis, Debye-Ang):
   XX=           -151.2567   YY=           -222.2394   ZZ=           -252.9306
   XY=              3.3642   XZ=             -0.5494   YZ=              0.8217

 Normal termination of Gaussian 16 at Mon Jan 22 10:24:22 2018.
