 Gaussian 16, Revision A.03,
 Gaussian 16:  EM64L-G16RevA.03 25-Dec-2016

 ---------------------------------------
 #p wb97xd/cc-pvdz sp scf=(maxcycles=20)
 ---------------------------------------

 ------------------
 Base pair stacking
 ------------------
 Symbolic Z-matrix:
 Charge =  0 Multiplicity = 1

                         Standard orientation:
 ---------------------------------------------------------------------
 Center     Atomic      Atomic             Coordinates (Angstroms)
 Number     Number       Type             X           Y           Z
 ---------------------------------------------------------------------
      1          7           0        4.236972   -2.025325   -1.826874
      2          6           0        5.573823   -1.652376   -2.328619
      3          6           0        2.085750   -2.034454   -1.369179
      4          7           0        2.608918   -3.185494   -0.798094
      5          6           0        3.884006   -3.133924   -1.096694
      6          1           0        4.619503   -3.884949   -0.806936
      7          7           0        0.601535   -0.337160   -2.061442
      8          6           0        1.659164    0.249775   -2.631114
      9          1           0        1.450558    1.188422   -3.142666
     10          7           0        2.929814   -0.146824   -2.663580
     11          6           0        3.077273   -1.309260   -2.006750
     12          6           0        0.782757   -1.505672   -1.408120
     13          7           0       -0.271763   -2.093085   -0.838835
     14          1           0       -0.184090   -2.958886   -0.344950
     15          1           0       -1.184872   -1.687982   -0.886557
     16          1           0        5.912931   -2.366940   -2.940647
     17          1           0        5.514302   -0.788223   -2.827442
     18          1           0        6.203885   -1.548379   -1.559083
     19          7           0        5.508790    1.995778    0.530195
     20          6           0        4.147941    1.989566    0.720195
     21          6           0        6.307262    3.166097    0.113679
     22          7           0        1.101343    3.656831    0.705997
     23          1           0        0.143016    3.443801    0.894360
     24          1           0        1.312002    4.595419    0.431439
     25          7           0        3.318246    3.043059    0.559601
     26          6           0        2.061513    2.726345    0.816376
     27          7           0        1.646934    1.474308    1.201120
     28          1           0        0.665440    1.323083    1.376521
     29          6           0        2.483097    0.375541    1.372658
     30          8           0        2.007387   -0.711591    1.722749
     31          6           0        3.836348    0.700325    1.100414
     32          7           0        4.978597   -0.087010    1.148159
     33          6           0        5.943517    0.721742    0.803129
     34          1           0        6.994475    0.439577    0.731429
     35          1           0        6.770349    2.965792   -0.749008
     36          1           0        5.703309    3.952618   -0.008359
     37          1           0        6.986978    3.374956    0.815939
     38          1           0       -4.411423    1.060289    1.471491
     39          1           0       -4.180061    1.224087    3.210536
     40          1           0       -3.049491    1.991684    2.095197
     41          1           0       -3.089414   -3.423174    2.610531
     42          6           0       -2.636961   -2.443235    2.458043
     43          8           0       -0.431665   -3.290680    2.244461
     44          6           0       -1.222787   -2.347993    2.260922
     45          1           0        0.241003   -0.955369    1.935002
     46          7           0       -0.753409   -1.062976    2.077434
     47          8           0       -0.984637    1.188877    1.896103
     48          6           0       -1.491477    0.094031    2.066649
     49          1           0       -4.462648   -1.350946    2.598050
     50          6           0       -3.383347   -1.332612    2.452730
     51          6           0       -3.676764    1.128251    2.259976
     52          7           0       -2.847290   -0.079942    2.263423
     53          1           0       -6.396105    3.261767   -2.934960
     54          1           0       -4.950756    3.554898   -2.237017
     55          1           0       -6.328362    3.816520   -1.401638
     56          1           0       -3.722653   -2.972746    0.073198
     57          1           0       -5.389723   -2.615058    0.018024
     58          7           0       -4.447184   -2.314897   -0.132800
     59          6           0       -4.169885   -1.091512   -0.588423
     60          6           0       -4.708520    1.095150   -1.356627
     61          7           0       -3.433391    1.470910   -1.549686
     62          1           0       -1.542834    0.703504   -1.356034
     63          6           0       -2.601588    0.482035   -1.228540
     64          7           0       -2.877367   -0.743983   -0.772032
     65          1           0       -7.929070    1.375185   -1.314341
     66          6           0       -6.897095    1.031910   -1.236026
     67          7           0       -6.536991   -0.157944   -0.821004
     68          6           0       -5.151752   -0.131117   -0.892561
     69          6           0       -5.882397    3.229692   -2.077599
     70          7           0       -5.841497    1.842093   -1.576684
 ---------------------------------------------------------------------

 SCF Done:  E(RwB97XD) =  -2048.74598371     A.U. after   15 cycles

 The electronic state is 1-A.
 Alpha  occ. eigenvalues --  -19.25581 -19.21756 -19.20821 -14.52509 -14.52131
 Alpha  occ. eigenvalues --  -14.49360 -14.48545 -14.47864 -14.47463 -14.47108
 Alpha  occ. eigenvalues --  -14.46933 -14.45456 -14.44804 -14.44634 -14.42326
 Alpha  occ. eigenvalues --  -14.42321 -14.41646 -14.40683 -14.40372 -14.40249
 Alpha  occ. eigenvalues --  -10.45144 -10.41546 -10.40315 -10.39882 -10.38504
 Alpha  occ. eigenvalues --  -10.38043 -10.37688 -10.37436 -10.36122 -10.35282
 Alpha  occ. eigenvalues --  -10.34828 -10.34740 -10.34016 -10.33837 -10.33183
 Alpha  occ. eigenvalues --  -10.32973 -10.32850 -10.32800 -10.31409 -10.30782
 Alpha  occ. eigenvalues --  -10.30106 -10.28590 -10.28018  -1.19105  -1.15313
 Alpha  occ. eigenvalues --   -1.13511  -1.12797  -1.11068  -1.10525  -1.09749
 Alpha  occ. eigenvalues --   -1.08981  -1.08820  -1.05183  -1.04843  -1.02131
 Alpha  occ. eigenvalues --   -1.01067  -1.00263  -1.00026  -0.98917  -0.97236
 Alpha  occ. eigenvalues --   -0.97115  -0.96170  -0.92549  -0.90843  -0.87819
 Alpha  occ. eigenvalues --   -0.85954  -0.84613  -0.83301  -0.83264  -0.82962
 Alpha  occ. eigenvalues --   -0.81636  -0.78632  -0.77274  -0.75096  -0.75047
 Alpha  occ. eigenvalues --   -0.73947  -0.73075  -0.72476  -0.70723  -0.70578
 Alpha  occ. eigenvalues --   -0.67735  -0.67077  -0.66304  -0.65891  -0.64674
 Alpha  occ. eigenvalues --   -0.64438  -0.63789  -0.62923  -0.62344  -0.62129
 Alpha  occ. eigenvalues --   -0.60762  -0.60440  -0.60104  -0.59467  -0.59327
 Alpha  occ. eigenvalues --   -0.59119  -0.58654  -0.57138  -0.56173  -0.55957
 Alpha  occ. eigenvalues --   -0.55490  -0.55426  -0.55201  -0.54678  -0.54344
 Alpha  occ. eigenvalues --   -0.53811  -0.53754  -0.53682  -0.53300  -0.52985
 Alpha  occ. eigenvalues --   -0.52707  -0.52121  -0.51138  -0.50509  -0.50275
 Alpha  occ. eigenvalues --   -0.50072  -0.49701  -0.49573  -0.49398  -0.49103
 Alpha  occ. eigenvalues --   -0.48523  -0.48415  -0.48255  -0.48009  -0.47394
 Alpha  occ. eigenvalues --   -0.46469  -0.45796  -0.45685  -0.44644  -0.43166
 Alpha  occ. eigenvalues --   -0.40912  -0.40840  -0.39280  -0.38077  -0.37774
 Alpha  occ. eigenvalues --   -0.37725  -0.37604  -0.36618  -0.35620  -0.35103
 Alpha  occ. eigenvalues --   -0.34644  -0.34302  -0.33336  -0.33110  -0.33026
 Alpha  occ. eigenvalues --   -0.32864  -0.32647  -0.32162  -0.31787  -0.30375
 Alpha  occ. eigenvalues --   -0.30205  -0.30095  -0.25965  -0.25451
 Alpha virt. eigenvalues --    0.03044   0.03846   0.06662   0.08297   0.08678
 Alpha virt. eigenvalues --    0.08847   0.09453   0.10375   0.11316   0.11695
 Alpha virt. eigenvalues --    0.13533   0.13891   0.14228   0.15009   0.15075

 Mulliken charges:
               1
     1  N   -0.306843
     2  C    0.182483
     3  C    0.053825
     4  N   -0.251286
     5  C    0.152202
     6  H    0.027380
     7  N   -0.298723
     8  C    0.128542
     9  H    0.009122
    10  N   -0.283490
    11  C    0.244961
    12  C    0.084148
    13  N   -0.067985
    14  H    0.117387
    15  H    0.084857
    16  H    0.021550
    17  H    0.029006
    18  H    0.025021
    19  N   -0.310458
    20  C    0.259933
    21  C    0.181700
    22  N   -0.123903
    23  H    0.119280
    24  H    0.119260
    25  N   -0.313021
    26  C    0.250880
    27  N   -0.148257
    28  H    0.121009
    29  C    0.197651
    30  O   -0.318036
    31  C   -0.017799
    32  N   -0.230557
    33  C    0.119514
    34  H    0.024214
    35  H    0.026659
    36  H    0.031442
    37  H    0.025797
    38  H    0.065428
    39  H    0.058562
    40  H    0.075235
    41  H    0.022788
    42  C   -0.130486
    43  O   -0.267234
    44  C    0.167232
    45  H    0.133584
    46  N   -0.122629
    47  O   -0.352901
    48  C    0.353592
    49  H    0.041811
    50  C    0.182382
    51  C    0.039337
    52  N   -0.278097
    53  H    0.034176
    54  H    0.042419
    55  H    0.029455
    56  H    0.121180
    57  H    0.117279
    58  N   -0.060290
    59  C    0.085686
    60  C    0.234377
    61  N   -0.265412
    62  H    0.033935
    63  C    0.171627
    64  N   -0.312159
    65  H    0.039649
    66  C    0.140035
    67  N   -0.260113
    68  C    0.021494
    69  C    0.180116
    70  N   -0.309523
 Sum of Mulliken charges =  -0.00000

 Dipole moment (field-independent basis, Debye):
    X=             -7.1357    Y=              7.7722    Z=             -0.6432  Tot=             10.5706
 Quadrupole moment (field-independent basis, Debye-Ang):
   XX=           -157.6474   YY=           -222.5531   ZZ=           -250.8592
   XY=              0.4705   XZ=            -15.8948   YZ=              4.9405

 Normal termination of Gaussian 16 at Mon Jan 22 09:12:46 2018.
