 Gaussian 16, Revision A.03,
 Gaussian 16:  EM64L-G16RevA.03 25-Dec-2016

 ---------------------------------------
 #p wb97xd/cc-pvdz sp scf=(maxcycles=20)
 ---------------------------------------

 ------------------
 Base pair stacking
 ------------------
 Symbolic Z-matrix:
 Charge =  0 Multiplicity = 1

                         Standard orientation:
 ---------------------------------------------------------------------
 Center     Atomic      Atomic             Coordinates (Angstroms)
 Number     Number       Type             X           Y           Z
 ---------------------------------------------------------------------
      1          7           0        4.882201   -1.903305   -1.529721
      2          6           0        6.242664   -1.473279   -1.906817
      3          6           0        2.703314   -1.987333   -1.242062
      4          7           0        3.213009   -3.153212   -0.689204
      5          6           0        4.505303   -3.055923   -0.884628
      6          1           0        5.237037   -3.802962   -0.575695
      7          7           0        1.229864   -0.292863   -1.963643
      8          6           0        2.311294    0.347594   -2.419611
      9          1           0        2.116470    1.305915   -2.899113
     10          7           0        3.591236   -0.016300   -2.372418
     11          6           0        3.720219   -1.206951   -1.764017
     12          6           0        1.392934   -1.488591   -1.356404
     13          7           0        0.314644   -2.129435   -0.900581
     14          1           0        0.388272   -3.017022   -0.444520
     15          1           0       -0.603039   -1.744392   -0.999358
     16          1           0        6.647432   -2.147276   -2.524936
     17          1           0        6.197521   -0.586410   -2.365685
     18          1           0        6.808775   -1.393723   -1.086343
     19          7           0        4.914506    2.131708    0.847462
     20          6           0        3.544240    2.088683    0.939984
     21          6           0        5.706591    3.312785    0.449515
     22          7           0        0.459382    3.657906    0.651940
     23          1           0       -0.503445    3.420886    0.778566
     24          1           0        0.661931    4.593472    0.361426
     25          7           0        2.698003    3.109907    0.684966
     26          6           0        1.435748    2.762090    0.862026
     27          7           0        1.031065    1.510458    1.258452
     28          1           0        0.044286    1.334047    1.368414
     29          6           0        1.884275    0.444561    1.526379
     30          8           0        1.416346   -0.645352    1.878313
     31          6           0        3.243643    0.802988    1.340516
     32          7           0        4.401889    0.053922    1.496304
     33          6           0        5.365280    0.881304    1.193756
     34          1           0        6.426437    0.630233    1.206831
     35          1           0        6.236503    3.099883   -0.370647
     36          1           0        5.090400    4.075627    0.258091
     37          1           0        6.327352    3.565131    1.190984
     38          1           0       -5.016351    0.914668    1.109811
     39          1           0       -4.916258    1.140777    2.854376
     40          1           0       -3.730813    1.907806    1.797139
     41          1           0       -3.650170   -3.486535    2.491668
     42          6           0       -3.216613   -2.498173    2.338699
     43          8           0       -0.977898   -3.282105    2.311858
     44          6           0       -1.795252   -2.364758    2.239848
     45          1           0       -0.352905   -0.937772    1.972149
     46          7           0       -1.351463   -1.072067    2.046846
     47          8           0       -1.634452    1.164502    1.773202
     48          6           0       -2.120204    0.060205    1.944201
     49          1           0       -5.078677   -1.460018    2.310972
     50          6           0       -3.992679   -1.412330    2.242484
     51          6           0       -4.342933    1.030711    1.945940
     52          7           0       -3.481054   -0.150034    2.049531
     53          1           0       -5.777688    3.177472   -3.201904
     54          1           0       -4.398791    3.469035   -2.379872
     55          1           0       -5.843101    3.654529   -1.642558
     56          1           0       -3.170174   -3.136961   -0.304587
     57          1           0       -4.837415   -2.816933   -0.471877
     58          7           0       -3.894811   -2.486970   -0.533849
     59          6           0       -3.617565   -1.235588   -0.905805
     60          6           0       -4.156374    0.973974   -1.605248
     61          7           0       -2.881155    1.389547   -1.679652
     62          1           0       -0.990379    0.658719   -1.377201
     63          6           0       -2.049215    0.405733   -1.343638
     64          7           0       -2.324952   -0.848279   -0.970825
     65          1           0       -7.377239    1.174300   -1.800358
     66          6           0       -6.345155    0.852275   -1.658834
     67          7           0       -5.984938   -0.348286   -1.275989
     68          6           0       -4.599576   -0.284670   -1.237957
     69          6           0       -5.330499    3.113888   -2.309730
     70          7           0       -5.289507    1.703869   -1.875953
 ---------------------------------------------------------------------

 SCF Done:  E(RwB97XD) =  -2048.74647690     A.U. after   15 cycles

 The electronic state is 1-A.
 Alpha  occ. eigenvalues --  -19.25668 -19.21994 -19.20666 -14.52516 -14.52292
 Alpha  occ. eigenvalues --  -14.49040 -14.48215 -14.48109 -14.47572 -14.46949
 Alpha  occ. eigenvalues --  -14.46771 -14.45518 -14.44464 -14.44375 -14.42166
 Alpha  occ. eigenvalues --  -14.42136 -14.41275 -14.40691 -14.40651 -14.40183
 Alpha  occ. eigenvalues --  -10.45259 -10.41359 -10.40074 -10.40040 -10.38326
 Alpha  occ. eigenvalues --  -10.38046 -10.37612 -10.37298 -10.35936 -10.35229
 Alpha  occ. eigenvalues --  -10.34846 -10.34566 -10.33886 -10.33697 -10.33432
 Alpha  occ. eigenvalues --  -10.32905 -10.32865 -10.32777 -10.31132 -10.30864
 Alpha  occ. eigenvalues --  -10.30561 -10.28326 -10.28081  -1.19226  -1.15277
 Alpha  occ. eigenvalues --   -1.13307  -1.12973  -1.10794  -1.10714  -1.09536
 Alpha  occ. eigenvalues --   -1.09069  -1.08662  -1.04952  -1.04804  -1.02269
 Alpha  occ. eigenvalues --   -1.01046  -1.00198  -0.99847  -0.98689  -0.97013
 Alpha  occ. eigenvalues --   -0.96828  -0.96372  -0.92505  -0.90899  -0.87706
 Alpha  occ. eigenvalues --   -0.85938  -0.84338  -0.83465  -0.83389  -0.82708
 Alpha  occ. eigenvalues --   -0.81883  -0.78737  -0.77139  -0.74927  -0.74812
 Alpha  occ. eigenvalues --   -0.73756  -0.73164  -0.72544  -0.70727  -0.70484
 Alpha  occ. eigenvalues --   -0.67534  -0.66929  -0.66358  -0.65945  -0.64529
 Alpha  occ. eigenvalues --   -0.64319  -0.63788  -0.62754  -0.62388  -0.61931
 Alpha  occ. eigenvalues --   -0.60722  -0.60470  -0.60263  -0.59424  -0.59341
 Alpha  occ. eigenvalues --   -0.59093  -0.58485  -0.56875  -0.56263  -0.55926
 Alpha  occ. eigenvalues --   -0.55813  -0.55395  -0.55146  -0.54390  -0.54122
 Alpha  occ. eigenvalues --   -0.53749  -0.53677  -0.53610  -0.53202  -0.53108
 Alpha  occ. eigenvalues --   -0.52841  -0.52224  -0.51369  -0.50403  -0.50273
 Alpha  occ. eigenvalues --   -0.50095  -0.49757  -0.49401  -0.49247  -0.48962
 Alpha  occ. eigenvalues --   -0.48649  -0.48485  -0.48402  -0.47920  -0.47353
 Alpha  occ. eigenvalues --   -0.46591  -0.45846  -0.45531  -0.44496  -0.43032
 Alpha  occ. eigenvalues --   -0.40841  -0.40776  -0.39292  -0.37905  -0.37683
 Alpha  occ. eigenvalues --   -0.37473  -0.37417  -0.36734  -0.35864  -0.34841
 Alpha  occ. eigenvalues --   -0.34408  -0.34100  -0.33275  -0.33115  -0.32888
 Alpha  occ. eigenvalues --   -0.32838  -0.32701  -0.32263  -0.32000  -0.30500
 Alpha  occ. eigenvalues --   -0.30186  -0.29515  -0.25717  -0.25452
 Alpha virt. eigenvalues --    0.02979   0.03912   0.06666   0.08290   0.08940
 Alpha virt. eigenvalues --    0.09077   0.09605   0.10421   0.11289   0.11904
 Alpha virt. eigenvalues --    0.13100   0.14007   0.14456   0.14760   0.14861

 Mulliken charges:
               1
     1  N   -0.308799
     2  C    0.180710
     3  C    0.056577
     4  N   -0.255744
     5  C    0.145927
     6  H    0.025903
     7  N   -0.296002
     8  C    0.131514
     9  H    0.009952
    10  N   -0.286755
    11  C    0.248253
    12  C    0.089231
    13  N   -0.057896
    14  H    0.116215
    15  H    0.084768
    16  H    0.024125
    17  H    0.029706
    18  H    0.023475
    19  N   -0.309253
    20  C    0.261961
    21  C    0.181896
    22  N   -0.124188
    23  H    0.118846
    24  H    0.118403
    25  N   -0.312429
    26  C    0.250006
    27  N   -0.145686
    28  H    0.118903
    29  C    0.192197
    30  O   -0.321105
    31  C   -0.016886
    32  N   -0.225857
    33  C    0.119889
    34  H    0.021335
    35  H    0.027624
    36  H    0.030393
    37  H    0.024361
    38  H    0.065336
    39  H    0.059370
    40  H    0.074757
    41  H    0.022055
    42  C   -0.117416
    43  O   -0.269344
    44  C    0.167848
    45  H    0.130788
    46  N   -0.118836
    47  O   -0.347566
    48  C    0.345892
    49  H    0.043782
    50  C    0.169332
    51  C    0.039079
    52  N   -0.275603
    53  H    0.034367
    54  H    0.041474
    55  H    0.028150
    56  H    0.125202
    57  H    0.114277
    58  N   -0.050508
    59  C    0.090415
    60  C    0.237424
    61  N   -0.269764
    62  H    0.032011
    63  C    0.171144
    64  N   -0.313467
    65  H    0.037877
    66  C    0.131494
    67  N   -0.258203
    68  C    0.010841
    69  C    0.181224
    70  N   -0.305001
 Sum of Mulliken charges =  -0.00000

 Dipole moment (field-independent basis, Debye):
    X=             -7.2579    Y=              7.2522    Z=             -1.5156  Tot=             10.3715
 Quadrupole moment (field-independent basis, Debye-Ang):
   XX=           -154.2025   YY=           -222.1194   ZZ=           -254.0311
   XY=             -1.8263   XZ=             -9.7793   YZ=              5.2214

 Normal termination of Gaussian 16 at Mon Jan 22 03:21:27 2018.
