 Gaussian 16, Revision A.03,
 Gaussian 16:  EM64L-G16RevA.03 25-Dec-2016

 ---------------------------------------
 #p wb97xd/cc-pvdz sp scf=(maxcycles=20)
 ---------------------------------------

 ------------------
 Base pair stacking
 ------------------
 Symbolic Z-matrix:
 Charge =  0 Multiplicity = 1

                         Standard orientation:
 ---------------------------------------------------------------------
 Center     Atomic      Atomic             Coordinates (Angstroms)
 Number     Number       Type             X           Y           Z
 ---------------------------------------------------------------------
      1          7           0        6.082117   -1.432500   -0.848025
      2          6           0        7.443750   -0.863854   -0.823492
      3          6           0        3.900818   -1.670020   -0.999129
      4          7           0        4.412161   -2.934327   -0.744558
      5          6           0        5.705847   -2.740615   -0.663706
      6          1           0        6.439097   -3.523947   -0.469606
      7          7           0        2.424130    0.119064   -1.425156
      8          6           0        3.506210    0.903542   -1.460882
      9          1           0        3.310294    1.957567   -1.652996
     10          7           0        4.787957    0.582999   -1.295695
     11          6           0        4.918174   -0.734030   -1.065662
     12          6           0        2.588478   -1.201349   -1.191578
     13          7           0        1.509536   -1.986055   -1.155544
     14          1           0        1.584060   -2.969338   -0.985784
     15          1           0        0.590451   -1.618025   -1.296934
     16          1           0        7.999884   -1.296291   -1.533355
     17          1           0        7.397750    0.120507   -0.990943
     18          1           0        7.860159   -1.029069    0.070545
     19          7           0        3.687478    2.110783    1.441011
     20          6           0        2.324155    2.001437    1.308862
     21          6           0        4.478355    3.324421    1.154153
     22          7           0       -0.740989    3.413053    0.487921
     23          1           0       -1.699435    3.130465    0.460034
     24          1           0       -0.537217    4.353789    0.215527
     25          7           0        1.484770    2.976483    0.898057
     26          6           0        0.228168    2.569114    0.873156
     27          7           0       -0.177475    1.304071    1.223362
     28          1           0       -1.159605    1.080630    1.173878
     29          6           0        0.668744    0.284921    1.648927
     30          8           0        0.200582   -0.822279    1.941605
     31          6           0        2.021979    0.707552    1.680832
     32          7           0        3.172440    0.018461    2.039295
     33          6           0        4.132886    0.888491    1.881775
     34          1           0        5.187978    0.690198    2.073455
     35          1           0        5.145285    3.127728    0.436289
     36          1           0        3.867189    4.053548    0.848989
     37          1           0        4.956269    3.616224    1.981957
     38          1           0       -6.083690    0.409229    0.099005
     39          1           0       -6.282534    0.661626    1.831458
     40          1           0       -4.976370    1.472960    0.967157
     41          1           0       -4.759941   -3.901824    1.775023
     42          6           0       -4.353636   -2.895278    1.675016
     43          8           0       -2.106941   -3.568223    2.030915
     44          6           0       -2.943146   -2.693223    1.807466
     45          1           0       -1.544452   -1.200332    1.750507
     46          7           0       -2.534341   -1.382730    1.663465
     47          8           0       -2.872309    0.833611    1.301790
     48          6           0       -3.327611   -0.291073    1.413383
     49          1           0       -6.232067   -1.950560    1.321784
     50          6           0       -5.153025   -1.850268    1.431016
     51          6           0       -5.563111    0.568680    1.031554
     52          7           0       -4.675970   -0.566791    1.298791
     53          1           0       -4.561059    3.584593   -2.796140
     54          1           0       -3.364149    3.645130   -1.688960
     55          1           0       -4.919540    3.544508   -1.204505
     56          1           0       -1.926260   -3.237056   -1.535783
     57          1           0       -3.565446   -2.932292   -1.896746
     58          7           0       -2.657142   -2.570650   -1.683616
     59          6           0       -2.431647   -1.257856   -1.600486
     60          6           0       -3.037426    1.041803   -1.679845
     61          7           0       -1.807511    1.498854   -1.392052
     62          1           0        0.064730    0.768744   -0.989204
     63          6           0       -0.959820    0.485476   -1.226525
     64          7           0       -1.183732   -0.830040   -1.309372
     65          1           0       -6.189002    1.193774   -2.384586
     66          6           0       -5.169809    0.875611   -2.163322
     67          7           0       -4.774817   -0.372703   -2.105375
     68          6           0       -3.424666   -0.281537   -1.799604
     69          6           0       -4.260899    3.257356   -1.900145
     70          7           0       -4.169989    1.784435   -1.916100
 ---------------------------------------------------------------------

 SCF Done:  E(RwB97XD) =  -2048.74364409     A.U. after   15 cycles

 The electronic state is 1-A.
 Alpha  occ. eigenvalues --  -19.25687 -19.21817 -19.20408 -14.52392 -14.52234
 Alpha  occ. eigenvalues --  -14.49035 -14.48311 -14.47924 -14.47651 -14.46525
 Alpha  occ. eigenvalues --  -14.45937 -14.45386 -14.44025 -14.43897 -14.42663
 Alpha  occ. eigenvalues --  -14.41710 -14.41612 -14.41365 -14.40567 -14.40554
 Alpha  occ. eigenvalues --  -10.45289 -10.40772 -10.39939 -10.39736 -10.37926
 Alpha  occ. eigenvalues --  -10.37918 -10.37591 -10.37029 -10.35760 -10.35485
 Alpha  occ. eigenvalues --  -10.34994 -10.34278 -10.34225 -10.33916 -10.33618
 Alpha  occ. eigenvalues --  -10.33443 -10.33022 -10.32413 -10.31330 -10.30890
 Alpha  occ. eigenvalues --  -10.30312 -10.28746 -10.27704  -1.19313  -1.15102
 Alpha  occ. eigenvalues --   -1.12943  -1.12843  -1.11590  -1.10256  -1.09160
 Alpha  occ. eigenvalues --   -1.09012  -1.08206  -1.05357  -1.04578  -1.02304
 Alpha  occ. eigenvalues --   -1.00923  -1.00812  -0.99254  -0.98267  -0.97248
 Alpha  occ. eigenvalues --   -0.96575  -0.96209  -0.93043  -0.90847  -0.87578
 Alpha  occ. eigenvalues --   -0.85995  -0.84230  -0.83694  -0.83481  -0.82617
 Alpha  occ. eigenvalues --   -0.82044  -0.78663  -0.76911  -0.74753  -0.74235
 Alpha  occ. eigenvalues --   -0.73307  -0.73213  -0.73142  -0.71391  -0.70310
 Alpha  occ. eigenvalues --   -0.66996  -0.66672  -0.66630  -0.66320  -0.64269
 Alpha  occ. eigenvalues --   -0.64154  -0.63455  -0.63057  -0.62506  -0.61333
 Alpha  occ. eigenvalues --   -0.60789  -0.60660  -0.60450  -0.59456  -0.59284
 Alpha  occ. eigenvalues --   -0.58809  -0.57911  -0.57032  -0.56789  -0.56277
 Alpha  occ. eigenvalues --   -0.55814  -0.55764  -0.55333  -0.54545  -0.54148
 Alpha  occ. eigenvalues --   -0.54077  -0.53389  -0.53309  -0.53043  -0.52589
 Alpha  occ. eigenvalues --   -0.52492  -0.52309  -0.52094  -0.51100  -0.50514
 Alpha  occ. eigenvalues --   -0.49846  -0.49667  -0.49258  -0.49077  -0.48635
 Alpha  occ. eigenvalues --   -0.48516  -0.48399  -0.48025  -0.47300  -0.47181
 Alpha  occ. eigenvalues --   -0.47142  -0.45511  -0.45013  -0.44479  -0.43654
 Alpha  occ. eigenvalues --   -0.41408  -0.40767  -0.39329  -0.37647  -0.37611
 Alpha  occ. eigenvalues --   -0.37515  -0.36996  -0.36884  -0.35923  -0.34500
 Alpha  occ. eigenvalues --   -0.34232  -0.33872  -0.33743  -0.33018  -0.32987
 Alpha  occ. eigenvalues --   -0.32436  -0.32220  -0.31856  -0.31626  -0.31192
 Alpha  occ. eigenvalues --   -0.30775  -0.29598  -0.25995  -0.24854
 Alpha virt. eigenvalues --    0.03214   0.04161   0.07160   0.07519   0.08679
 Alpha virt. eigenvalues --    0.09312   0.09998   0.10641   0.10897   0.11561
 Alpha virt. eigenvalues --    0.13031   0.13989   0.14141   0.14791   0.15012

 Mulliken charges:
               1
     1  N   -0.313409
     2  C    0.179899
     3  C    0.061851
     4  N   -0.259596
     5  C    0.134952
     6  H    0.027117
     7  N   -0.283205
     8  C    0.138396
     9  H    0.011667
    10  N   -0.288159
    11  C    0.238038
    12  C    0.105897
    13  N   -0.052694
    14  H    0.109338
    15  H    0.086576
    16  H    0.026846
    17  H    0.031140
    18  H    0.026085
    19  N   -0.291025
    20  C    0.232708
    21  C    0.179333
    22  N   -0.090935
    23  H    0.112799
    24  H    0.111229
    25  N   -0.300506
    26  C    0.207647
    27  N   -0.144170
    28  H    0.129137
    29  C    0.164001
    30  O   -0.323325
    31  C    0.007477
    32  N   -0.222980
    33  C    0.127331
    34  H    0.017531
    35  H    0.027277
    36  H    0.026042
    37  H    0.021931
    38  H    0.060324
    39  H    0.059136
    40  H    0.067440
    41  H    0.028106
    42  C   -0.114699
    43  O   -0.267117
    44  C    0.173260
    45  H    0.132431
    46  N   -0.124120
    47  O   -0.338928
    48  C    0.339999
    49  H    0.046847
    50  C    0.175296
    51  C    0.040485
    52  N   -0.282530
    53  H    0.036071
    54  H    0.034559
    55  H    0.025172
    56  H    0.124981
    57  H    0.117795
    58  N   -0.061573
    59  C    0.103005
    60  C    0.252093
    61  N   -0.283586
    62  H    0.044086
    63  C    0.154746
    64  N   -0.300343
    65  H    0.036372
    66  C    0.112918
    67  N   -0.255806
    68  C    0.011208
    69  C    0.180106
    70  N   -0.299974
 Sum of Mulliken charges =  -0.00000

 Dipole moment (field-independent basis, Debye):
    X=             -6.9645    Y=              6.2248    Z=             -3.3643  Tot=              9.9283
 Quadrupole moment (field-independent basis, Debye-Ang):
   XX=           -147.5901   YY=           -225.0029   ZZ=           -256.8849
   XY=             -6.9815   XZ=              3.9203   YZ=             10.4668

 Normal termination of Gaussian 16 at Mon Jan 22 01:12:24 2018.
