 Gaussian 16, Revision A.03,
 Gaussian 16:  EM64L-G16RevA.03 25-Dec-2016

 ---------------------------------------
 #p wb97xd/cc-pvdz sp scf=(maxcycles=20)
 ---------------------------------------

 ------------------
 Base pair stacking
 ------------------
 Symbolic Z-matrix:
 Charge =  0 Multiplicity = 1

                         Standard orientation:
 ---------------------------------------------------------------------
 Center     Atomic      Atomic             Coordinates (Angstroms)
 Number     Number       Type             X           Y           Z
 ---------------------------------------------------------------------
      1          7           0        4.317564   -1.394707   -1.833323
      2          6           0        5.694337   -0.868837   -1.910483
      3          6           0        2.128812   -1.555029   -1.688518
      4          7           0        2.608965   -2.854443   -1.764049
      5          6           0        3.908385   -2.705848   -1.848270
      6          1           0        4.622611   -3.526251   -1.924136
      7          7           0        0.695726    0.311461   -1.529049
      8          6           0        1.798130    1.066236   -1.579887
      9          1           0        1.628371    2.141061   -1.533005
     10          7           0        3.072778    0.694394   -1.679474
     11          6           0        3.170223   -0.644400   -1.730057
     12          6           0        0.827241   -1.032030   -1.582119
     13          7           0       -0.272038   -1.787149   -1.531513
     14          1           0       -0.221997   -2.785849   -1.567697
     15          1           0       -1.182579   -1.380555   -1.455749
     16          1           0        6.117491   -1.163177   -2.767494
     17          1           0        5.672861    0.129909   -1.876253
     18          1           0        6.229492   -1.215626   -1.140186
     19          7           0        5.467661    1.733823    0.720983
     20          6           0        4.097468    1.672887    0.804029
     21          6           0        6.247829    2.930275    0.346096
     22          7           0        0.995648    3.209058    0.519990
     23          1           0        0.035003    2.958556    0.636803
     24          1           0        1.188632    4.151325    0.245003
     25          7           0        3.240509    2.687625    0.559100
     26          6           0        1.981488    2.321969    0.722732
     27          7           0        1.589565    1.059653    1.097517
     28          1           0        0.604320    0.869722    1.198444
     29          6           0        2.453948    0.000157    1.354721
     30          8           0        1.997093   -1.100562    1.687059
     31          6           0        3.809998    0.377706    1.183071
     32          7           0        4.976254   -0.359635    1.334918
     33          6           0        5.931404    0.483793    1.051164
     34          1           0        6.995436    0.245349    1.067248
     35          1           0        6.785403    2.736302   -0.473771
     36          1           0        5.623628    3.688475    0.162314
     37          1           0        6.860833    3.178747    1.095296
     38          1           0       -4.449137    0.393424    0.900959
     39          1           0       -4.362689    0.594100    2.649363
     40          1           0       -3.180058    1.391377    1.611529
     41          1           0       -3.038296   -4.011570    2.224658
     42          6           0       -2.615822   -3.015843    2.089479
     43          8           0       -0.367630   -3.772255    2.065149
     44          6           0       -1.195596   -2.863824    2.001822
     45          1           0        0.230974   -1.415660    1.765080
     46          7           0       -0.766317   -1.563091    1.831297
     47          8           0       -1.074726    0.673821    1.589801
     48          6           0       -1.548102   -0.438731    1.740901
     49          1           0       -4.490137   -1.999878    2.065534
     50          6           0       -3.404393   -1.938075    2.004761
     51          6           0       -3.782414    0.504810    1.743067
     52          7           0       -2.906931   -0.666923    1.834269
     53          1           0       -6.235274    4.115349   -1.111885
     54          1           0       -4.886511    3.932427   -0.212173
     55          1           0       -6.356390    3.768402    0.478209
     56          1           0       -3.783943   -2.870952   -1.609956
     57          1           0       -5.441350   -2.468893   -1.647920
     58          7           0       -4.494775   -2.174326   -1.512104
     59          6           0       -4.194831   -0.908545   -1.213796
     60          6           0       -4.691192    1.372815   -0.754676
     61          7           0       -3.411173    1.739837   -0.577834
     62          1           0       -1.538407    0.908077   -0.617122
     63          6           0       -2.599510    0.697380   -0.743351
     64          7           0       -2.897988   -0.571166   -1.042141
     65          1           0       -7.900854    1.722607   -0.921575
     66          6           0       -6.877161    1.347148   -0.925802
     67          7           0       -6.540177    0.104526   -1.170826
     68          6           0       -5.156832    0.107078   -1.065524
     69          6           0       -5.822684    3.611641   -0.352907
     70          7           0       -5.808084    2.169458   -0.665805
 ---------------------------------------------------------------------

 SCF Done:  E(RwB97XD) =  -2048.70663852     A.U. after   15 cycles

 The electronic state is 1-A.
 Alpha  occ. eigenvalues --  -19.24941 -19.20991 -19.20516 -14.53046 -14.51161
 Alpha  occ. eigenvalues --  -14.49150 -14.49118 -14.48538 -14.46926 -14.46594
 Alpha  occ. eigenvalues --  -14.46540 -14.45897 -14.45291 -14.44848 -14.43338
 Alpha  occ. eigenvalues --  -14.41886 -14.41446 -14.41224 -14.41213 -14.40773
 Alpha  occ. eigenvalues --  -10.44436 -10.41075 -10.40899 -10.39128 -10.38434
 Alpha  occ. eigenvalues --  -10.38145 -10.37781 -10.36825 -10.36365 -10.36078
 Alpha  occ. eigenvalues --  -10.34437 -10.34278 -10.33929 -10.33832 -10.33439
 Alpha  occ. eigenvalues --  -10.33392 -10.33239 -10.32609 -10.31289 -10.30443
 Alpha  occ. eigenvalues --  -10.30184 -10.28721 -10.28236  -1.18571  -1.15888
 Alpha  occ. eigenvalues --   -1.13262  -1.12050  -1.11202  -1.10824  -1.10310
 Alpha  occ. eigenvalues --   -1.08623  -1.08171  -1.05779  -1.05579  -1.01559
 Alpha  occ. eigenvalues --   -1.01454  -1.01110  -0.99704  -0.98592  -0.97849
 Alpha  occ. eigenvalues --   -0.96948  -0.96810  -0.93291  -0.90020  -0.88482
 Alpha  occ. eigenvalues --   -0.86445  -0.84418  -0.83945  -0.82801  -0.82320
 Alpha  occ. eigenvalues --   -0.82225  -0.77956  -0.77701  -0.75640  -0.74762
 Alpha  occ. eigenvalues --   -0.73714  -0.73210  -0.72440  -0.71483  -0.71218
 Alpha  occ. eigenvalues --   -0.67545  -0.67428  -0.66667  -0.65647  -0.64958
 Alpha  occ. eigenvalues --   -0.64353  -0.63391  -0.63145  -0.62555  -0.61870
 Alpha  occ. eigenvalues --   -0.61401  -0.61050  -0.60878  -0.60186  -0.58936
 Alpha  occ. eigenvalues --   -0.58674  -0.58314  -0.57668  -0.56937  -0.56228
 Alpha  occ. eigenvalues --   -0.55942  -0.55805  -0.55565  -0.55093  -0.54324
 Alpha  occ. eigenvalues --   -0.54288  -0.53989  -0.53477  -0.53018  -0.52805
 Alpha  occ. eigenvalues --   -0.51825  -0.51708  -0.50920  -0.50773  -0.50491
 Alpha  occ. eigenvalues --   -0.50188  -0.49951  -0.49800  -0.49213  -0.49029
 Alpha  occ. eigenvalues --   -0.48687  -0.48177  -0.47875  -0.47165  -0.46993
 Alpha  occ. eigenvalues --   -0.46913  -0.45333  -0.44987  -0.44858  -0.42438
 Alpha  occ. eigenvalues --   -0.41522  -0.41174  -0.38915  -0.38468  -0.38415
 Alpha  occ. eigenvalues --   -0.38242  -0.37218  -0.36449  -0.35447  -0.35229
 Alpha  occ. eigenvalues --   -0.35058  -0.34433  -0.33773  -0.33512  -0.32982
 Alpha  occ. eigenvalues --   -0.32557  -0.32233  -0.31818  -0.30882  -0.30753
 Alpha  occ. eigenvalues --   -0.30471  -0.30351  -0.26200  -0.25573
 Alpha virt. eigenvalues --    0.02939   0.04392   0.05854   0.07241   0.08813
 Alpha virt. eigenvalues --    0.09038   0.09569   0.09918   0.11007   0.12180
 Alpha virt. eigenvalues --    0.13384   0.13942   0.14386   0.14539   0.14637

 Mulliken charges:
               1
     1  N   -0.306311
     2  C    0.189861
     3  C    0.071449
     4  N   -0.261808
     5  C    0.149004
     6  H    0.029096
     7  N   -0.282393
     8  C    0.127290
     9  H    0.011216
    10  N   -0.267512
    11  C    0.236830
    12  C    0.073010
    13  N   -0.065854
    14  H    0.111252
    15  H    0.081792
    16  H    0.022265
    17  H    0.023774
    18  H    0.030067
    19  N   -0.303144
    20  C    0.274222
    21  C    0.184581
    22  N   -0.090857
    23  H    0.124827
    24  H    0.118246
    25  N   -0.273962
    26  C    0.133981
    27  N   -0.097420
    28  H    0.121140
    29  C    0.158532
    30  O   -0.317602
    31  C   -0.004565
    32  N   -0.224083
    33  C    0.095438
    34  H    0.022405
    35  H    0.021035
    36  H    0.031679
    37  H    0.025295
    38  H    0.056659
    39  H    0.042803
    40  H    0.082842
    41  H    0.024176
    42  C   -0.114483
    43  O   -0.266353
    44  C    0.175941
    45  H    0.133951
    46  N   -0.126839
    47  O   -0.346840
    48  C    0.339477
    49  H    0.043349
    50  C    0.167703
    51  C    0.054397
    52  N   -0.275421
    53  H    0.035404
    54  H    0.040705
    55  H    0.031867
    56  H    0.120081
    57  H    0.121517
    58  N   -0.063807
    59  C    0.089033
    60  C    0.204124
    61  N   -0.256280
    62  H    0.030297
    63  C    0.150075
    64  N   -0.297670
    65  H    0.041590
    66  C    0.137856
    67  N   -0.252807
    68  C    0.028201
    69  C    0.180491
    70  N   -0.304816
 Sum of Mulliken charges =  -0.00000

 Dipole moment (field-independent basis, Debye):
    X=             -7.3095    Y=              7.3090    Z=             -2.3641  Tot=             10.6037
 Quadrupole moment (field-independent basis, Debye-Ang):
   XX=           -157.3554   YY=           -227.6468   ZZ=           -253.6739
   XY=              5.1670   XZ=            -16.7664   YZ=             15.6736

 Normal termination of Gaussian 16 at Mon Jan 22 13:10:20 2018.
