 Gaussian 16, Revision A.03,
 Gaussian 16:  EM64L-G16RevA.03 25-Dec-2016

 ---------------------------------------
 #p wb97xd/cc-pvdz sp scf=(maxcycles=20)
 ---------------------------------------

 ------------------
 Base pair stacking
 ------------------
 Symbolic Z-matrix:
 Charge =  0 Multiplicity = 1

                         Standard orientation:
 ---------------------------------------------------------------------
 Center     Atomic      Atomic             Coordinates (Angstroms)
 Number     Number       Type             X           Y           Z
 ---------------------------------------------------------------------
      1          7           0       -5.205002   -1.860864    1.329122
      2          6           0       -6.571000   -1.415862    1.666831
      3          6           0       -3.019073   -1.973991    1.114155
      4          7           0       -3.526903   -3.123048    0.525501
      5          6           0       -4.823521   -3.008903    0.678580
      6          1           0       -5.555330   -3.739616    0.332947
      7          7           0       -1.546037   -0.314001    1.912622
      8          6           0       -2.632733    0.335828    2.342011
      9          1           0       -2.440137    1.283383    2.843314
     10          7           0       -3.915605   -0.007471    2.245569
     11          6           0       -4.041457   -1.186287    1.613932
     12          6           0       -1.706069   -1.497384    1.280899
     13          7           0       -0.622508   -2.147570    0.851548
     14          1           0       -0.693739   -3.026647    0.378924
     15          1           0        0.296894   -1.778343    0.987598
     16          1           0       -7.006617   -2.093156    2.259859
     17          1           0       -6.528341   -0.537107    2.141283
     18          1           0       -7.107532   -1.314707    0.829031
     19          7           0       -4.598318    2.229979   -0.975555
     20          6           0       -3.226486    2.167265   -1.022283
     21          6           0       -5.385846    3.416749   -0.585583
     22          7           0       -0.130235    3.683962   -0.604459
     23          1           0        0.832716    3.434123   -0.702199
     24          1           0       -0.328618    4.617874   -0.305846
     25          7           0       -2.374331    3.171176   -0.722210
     26          6           0       -1.112087    2.806737   -0.861998
     27          7           0       -0.712804    1.555379   -1.264732
     28          1           0        0.274430    1.365503   -1.344038
     29          6           0       -1.572144    0.507122   -1.578655
     30          8           0       -1.108768   -0.584233   -1.932153
     31          6           0       -2.931568    0.883520   -1.433181
     32          7           0       -4.094856    0.154968   -1.640254
     33          6           0       -5.055578    0.992265   -1.357165
     34          1           0       -6.119305    0.757840   -1.410250
     35          1           0       -5.946561    3.199198    0.212590
     36          1           0       -4.765253    4.166890   -0.361044
     37          1           0       -5.977120    3.690249   -1.343484
     38          1           0        5.316471    0.864051   -0.920917
     39          1           0        5.279365    1.119040   -2.663976
     40          1           0        4.070074    1.887581   -1.635223
     41          1           0        3.932860   -3.493300   -2.419452
     42          6           0        3.509104   -2.500887   -2.265250
     43          8           0        1.259343   -3.250499   -2.327004
     44          6           0        2.087340   -2.347115   -2.212483
     45          1           0        0.658109   -0.902412   -1.970717
     46          7           0        1.656517   -1.050922   -2.013698
     47          8           0        1.963281    1.176441   -1.694397
     48          6           0        2.438094    0.067603   -1.866708
     49          1           0        5.384389   -1.492175   -2.157619
     50          6           0        4.297519   -1.428797   -2.125198
     51          6           0        4.673793    1.003591   -1.777396
     52          7           0        3.798463   -0.161953   -1.929256
     53          1           0        5.466083    3.027878    3.443747
     54          1           0        4.120536    3.353566    2.580305
     55          1           0        5.591771    3.528294    1.895454
     56          1           0        2.865224   -3.199283    0.357747
     57          1           0        4.530364   -2.907693    0.586598
     58          7           0        3.591206   -2.564241    0.621942
     59          6           0        3.320094   -1.314719    1.004519
     60          6           0        3.867566    0.875010    1.757561
     61          7           0        2.596880    1.308999    1.795424
     62          1           0        0.706854    0.612282    1.417272
     63          6           0        1.762334    0.343540    1.415513
     64          7           0        2.031927   -0.908572    1.031968
     65          1           0        7.082526    1.022500    2.064920
     66          6           0        6.051186    0.718714    1.883301
     67          7           0        5.686411   -0.469994    1.469052
     68          6           0        4.304257   -0.384413    1.385141
     69          6           0        5.048701    2.985224    2.536019
     70          7           0        5.001550    1.582980    2.078306
 ---------------------------------------------------------------------

 SCF Done:  E(RwB97XD) =  -2048.74684810     A.U. after   15 cycles

 The electronic state is 1-A.
 Alpha  occ. eigenvalues --  -19.25734 -19.22197 -19.20655 -14.52442 -14.52339
 Alpha  occ. eigenvalues --  -14.48911 -14.48241 -14.48068 -14.47702 -14.46941
 Alpha  occ. eigenvalues --  -14.46728 -14.45490 -14.44274 -14.44208 -14.42086
 Alpha  occ. eigenvalues --  -14.42045 -14.41118 -14.40773 -14.40702 -14.40118
 Alpha  occ. eigenvalues --  -10.45322 -10.41317 -10.40184 -10.39908 -10.38294
 Alpha  occ. eigenvalues --  -10.37986 -10.37538 -10.37160 -10.35753 -10.35176
 Alpha  occ. eigenvalues --  -10.34916 -10.34472 -10.33856 -10.33555 -10.33538
 Alpha  occ. eigenvalues --  -10.32953 -10.32867 -10.32653 -10.31007 -10.30996
 Alpha  occ. eigenvalues --  -10.30727 -10.28235 -10.28101  -1.19305  -1.15188
 Alpha  occ. eigenvalues --   -1.13263  -1.13146  -1.10818  -1.10696  -1.09393
 Alpha  occ. eigenvalues --   -1.09108  -1.08626  -1.04818  -1.04753  -1.02397
 Alpha  occ. eigenvalues --   -1.00975  -1.00162  -0.99803  -0.98628  -0.96862
 Alpha  occ. eigenvalues --   -0.96720  -0.96446  -0.92467  -0.90950  -0.87596
 Alpha  occ. eigenvalues --   -0.85870  -0.84236  -0.83544  -0.83459  -0.82606
 Alpha  occ. eigenvalues --   -0.81969  -0.78788  -0.77020  -0.74800  -0.74727
 Alpha  occ. eigenvalues --   -0.73711  -0.73264  -0.72567  -0.70739  -0.70378
 Alpha  occ. eigenvalues --   -0.67474  -0.66828  -0.66397  -0.65966  -0.64516
 Alpha  occ. eigenvalues --   -0.64224  -0.63782  -0.62714  -0.62403  -0.61864
 Alpha  occ. eigenvalues --   -0.60659  -0.60424  -0.60225  -0.59381  -0.59338
 Alpha  occ. eigenvalues --   -0.59061  -0.58436  -0.56768  -0.56288  -0.55973
 Alpha  occ. eigenvalues --   -0.55931  -0.55344  -0.55099  -0.54353  -0.53956
 Alpha  occ. eigenvalues --   -0.53734  -0.53686  -0.53578  -0.53393  -0.53059
 Alpha  occ. eigenvalues --   -0.52765  -0.52306  -0.51462  -0.50435  -0.50254
 Alpha  occ. eigenvalues --   -0.50059  -0.49745  -0.49438  -0.48991  -0.48901
 Alpha  occ. eigenvalues --   -0.48751  -0.48493  -0.48478  -0.47772  -0.47382
 Alpha  occ. eigenvalues --   -0.46633  -0.45885  -0.45326  -0.44487  -0.43194
 Alpha  occ. eigenvalues --   -0.40793  -0.40685  -0.39341  -0.37814  -0.37559
 Alpha  occ. eigenvalues --   -0.37392  -0.37358  -0.36781  -0.36037  -0.34655
 Alpha  occ. eigenvalues --   -0.34297  -0.34024  -0.33350  -0.33144  -0.32985
 Alpha  occ. eigenvalues --   -0.32796  -0.32599  -0.32443  -0.31967  -0.30559
 Alpha  occ. eigenvalues --   -0.30197  -0.29258  -0.25684  -0.25342
 Alpha virt. eigenvalues --    0.02997   0.04042   0.06884   0.08177   0.08791
 Alpha virt. eigenvalues --    0.09179   0.09656   0.10466   0.11302   0.12120
 Alpha virt. eigenvalues --    0.12933   0.14079   0.14596   0.14683   0.14847

 Mulliken charges:
               1
     1  N   -0.310271
     2  C    0.180266
     3  C    0.060095
     4  N   -0.256285
     5  C    0.142041
     6  H    0.025514
     7  N   -0.296428
     8  C    0.133330
     9  H    0.010194
    10  N   -0.289329
    11  C    0.246447
    12  C    0.092677
    13  N   -0.051639
    14  H    0.114862
    15  H    0.083244
    16  H    0.024775
    17  H    0.030258
    18  H    0.023263
    19  N   -0.308061
    20  C    0.258924
    21  C    0.181642
    22  N   -0.122580
    23  H    0.117697
    24  H    0.118004
    25  N   -0.311643
    26  C    0.247862
    27  N   -0.147034
    28  H    0.118617
    29  C    0.192500
    30  O   -0.322114
    31  C   -0.016836
    32  N   -0.224019
    33  C    0.123023
    34  H    0.020044
    35  H    0.028715
    36  H    0.029676
    37  H    0.023768
    38  H    0.061981
    39  H    0.059701
    40  H    0.074056
    41  H    0.022911
    42  C   -0.110314
    43  O   -0.269357
    44  C    0.160474
    45  H    0.130314
    46  N   -0.112245
    47  O   -0.344430
    48  C    0.338138
    49  H    0.045391
    50  C    0.167640
    51  C    0.038982
    52  N   -0.275455
    53  H    0.034278
    54  H    0.041048
    55  H    0.027388
    56  H    0.125902
    57  H    0.114023
    58  N   -0.047120
    59  C    0.083543
    60  C    0.239478
    61  N   -0.271581
    62  H    0.032795
    63  C    0.168722
    64  N   -0.308698
    65  H    0.036822
    66  C    0.128265
    67  N   -0.259692
    68  C    0.019462
    69  C    0.181469
    70  N   -0.305090
 Sum of Mulliken charges =  -0.00000

 Dipole moment (field-independent basis, Debye):
    X=              7.2803    Y=              7.0022    Z=              1.8672  Tot=             10.2723
 Quadrupole moment (field-independent basis, Debye-Ang):
   XX=           -152.5558   YY=           -221.9559   ZZ=           -254.7682
   XY=              2.8803   XZ=             -5.8462   YZ=             -4.4589

 Normal termination of Gaussian 16 at Mon Jan 22 02:34:23 2018.
