 Gaussian 16, Revision A.03,
 Gaussian 16:  EM64L-G16RevA.03 25-Dec-2016

 ---------------------------------------
 #p wb97xd/cc-pvdz sp scf=(maxcycles=20)
 ---------------------------------------

 ------------------
 Base pair stacking
 ------------------
 Symbolic Z-matrix:
 Charge =  0 Multiplicity = 1

                         Standard orientation:
 ---------------------------------------------------------------------
 Center     Atomic      Atomic             Coordinates (Angstroms)
 Number     Number       Type             X           Y           Z
 ---------------------------------------------------------------------
      1          7           0        5.510096   -1.638507   -1.215700
      2          6           0        6.881339   -1.120670   -1.387548
      3          6           0        3.319056   -1.819644   -1.153705
      4          7           0        3.821603   -3.048180   -0.750133
      5          6           0        5.121510   -2.889878   -0.803640
      6          1           0        5.850795   -3.660143   -0.551072
      7          7           0        1.852131   -0.064728   -1.729346
      8          6           0        2.944639    0.667040   -1.971264
      9          1           0        2.756867    1.686224   -2.306303
     10          7           0        4.228250    0.330431   -1.861955
     11          6           0        4.347877   -0.940572   -1.443999
     12          6           0        2.005982   -1.339740   -1.310119
     13          7           0        0.916621   -2.071790   -1.068109
     14          1           0        0.983162   -3.020222   -0.756210
     15          1           0       -0.002636   -1.697377   -1.190257
     16          1           0        7.365770   -1.674408   -2.064942
     17          1           0        6.843430   -0.171822   -1.699622
     18          1           0        7.367883   -1.163594   -0.514946
     19          7           0        4.294488    2.146362    1.209299
     20          6           0        2.923213    2.062552    1.183745
     21          6           0        5.082546    3.349988    0.876245
     22          7           0       -0.170506    3.538501    0.625001
     23          1           0       -1.133212    3.273010    0.669256
     24          1           0        0.028485    4.479282    0.349243
     25          7           0        2.072202    3.057670    0.852751
     26          6           0        0.810254    2.672555    0.921919
     27          7           0        0.410202    1.409966    1.287088
     28          1           0       -0.576726    1.204323    1.312428
     29          6           0        1.268375    0.370425    1.631706
     30          8           0        0.804378   -0.732465    1.946449
     31          6           0        2.627472    0.769025    1.562075
     32          7           0        3.789685    0.055120    1.819964
     33          6           0        4.750613    0.910473    1.598125
     34          1           0        5.813680    0.691236    1.703469
     35          1           0        5.687217    3.151819    0.105591
     36          1           0        4.462800    4.093811    0.629446
     37          1           0        5.629384    3.621835    1.667364
     38          1           0       -5.581611    0.633580    0.620997
     39          1           0       -5.638905    0.865115    2.366780
     40          1           0       -4.390057    1.665674    1.412404
     41          1           0       -4.209707   -3.722840    2.132955
     42          6           0       -3.794067   -2.722192    2.013886
     43          8           0       -1.539110   -3.438940    2.182942
     44          6           0       -2.374056   -2.546515    2.037190
     45          1           0       -0.956932   -1.077474    1.888863
     46          7           0       -1.953788   -1.241427    1.877894
     47          8           0       -2.278322    0.985284    1.571934
     48          6           0       -2.744057   -0.132779    1.704936
     49          1           0       -5.676761   -1.740169    1.821868
     50          6           0       -4.590798   -1.660151    1.846890
     51          6           0       -4.986454    0.770899    1.511499
     52          7           0       -4.102088   -0.383428    1.693608
     53          1           0       -5.144435    3.396589   -3.052078
     54          1           0       -3.857340    3.581524   -2.066557
     55          1           0       -5.368171    3.609608   -1.449589
     56          1           0       -2.566154   -3.244846   -0.976193
     57          1           0       -4.222715   -2.940867   -1.247341
     58          7           0       -3.291800   -2.583214   -1.165462
     59          6           0       -3.030745   -1.281609   -1.302756
     60          6           0       -3.589398    0.999545   -1.684823
     61          7           0       -2.329653    1.451461   -1.569750
     62          1           0       -0.446933    0.725419   -1.210815
     63          6           0       -1.493932    0.445616   -1.319236
     64          7           0       -1.753448   -0.858696   -1.181368
     65          1           0       -6.784992    1.153638   -2.150214
     66          6           0       -5.758147    0.837034   -1.965043
     67          7           0       -5.387741   -0.401310   -1.748287
     68          6           0       -4.014903   -0.312352   -1.569051
     69          6           0       -4.777157    3.197946   -2.143427
     70          7           0       -4.720929    1.737208   -1.940746
 ---------------------------------------------------------------------

 SCF Done:  E(RwB97XD) =  -2048.75335354     A.U. after   15 cycles

 The electronic state is 1-A.
 Alpha  occ. eigenvalues --  -19.25604 -19.21894 -19.20522 -14.52567 -14.52157
 Alpha  occ. eigenvalues --  -14.48618 -14.48567 -14.48186 -14.47567 -14.46778
 Alpha  occ. eigenvalues --  -14.46463 -14.45607 -14.44317 -14.44296 -14.42316
 Alpha  occ. eigenvalues --  -14.41895 -14.41122 -14.40975 -14.40851 -14.40275
 Alpha  occ. eigenvalues --  -10.45179 -10.41111 -10.39984 -10.39960 -10.38132
 Alpha  occ. eigenvalues --  -10.38100 -10.37476 -10.37250 -10.35781 -10.35411
 Alpha  occ. eigenvalues --  -10.34785 -10.34216 -10.34038 -10.33851 -10.33290
 Alpha  occ. eigenvalues --  -10.33222 -10.33079 -10.32741 -10.31007 -10.30867
 Alpha  occ. eigenvalues --  -10.30711 -10.28355 -10.27997  -1.19197  -1.15305
 Alpha  occ. eigenvalues --   -1.13077  -1.12887  -1.11129  -1.10458  -1.09320
 Alpha  occ. eigenvalues --   -1.09054  -1.08429  -1.05012  -1.04814  -1.02240
 Alpha  occ. eigenvalues --   -1.01085  -1.00427  -0.99566  -0.98431  -0.96947
 Alpha  occ. eigenvalues --   -0.96704  -0.96466  -0.92694  -0.90792  -0.87706
 Alpha  occ. eigenvalues --   -0.86007  -0.83985  -0.83820  -0.83343  -0.82348
 Alpha  occ. eigenvalues --   -0.82244  -0.78611  -0.77094  -0.74889  -0.74489
 Alpha  occ. eigenvalues --   -0.73500  -0.73111  -0.72829  -0.70991  -0.70458
 Alpha  occ. eigenvalues --   -0.67241  -0.66848  -0.66291  -0.66227  -0.64326
 Alpha  occ. eigenvalues --   -0.64262  -0.63602  -0.62679  -0.62539  -0.61631
 Alpha  occ. eigenvalues --   -0.60794  -0.60561  -0.60390  -0.59497  -0.59241
 Alpha  occ. eigenvalues --   -0.58905  -0.58190  -0.56706  -0.56523  -0.56127
 Alpha  occ. eigenvalues --   -0.55780  -0.55552  -0.55293  -0.54226  -0.53922
 Alpha  occ. eigenvalues --   -0.53832  -0.53654  -0.53478  -0.53296  -0.52854
 Alpha  occ. eigenvalues --   -0.52802  -0.52201  -0.51743  -0.50668  -0.50227
 Alpha  occ. eigenvalues --   -0.50049  -0.49901  -0.49253  -0.48913  -0.48720
 Alpha  occ. eigenvalues --   -0.48631  -0.48546  -0.48247  -0.47458  -0.47228
 Alpha  occ. eigenvalues --   -0.46875  -0.45807  -0.44971  -0.44659  -0.43381
 Alpha  occ. eigenvalues --   -0.40992  -0.40797  -0.39228  -0.37832  -0.37629
 Alpha  occ. eigenvalues --   -0.37267  -0.37165  -0.37015  -0.36023  -0.34730
 Alpha  occ. eigenvalues --   -0.34384  -0.33900  -0.33402  -0.33243  -0.33076
 Alpha  occ. eigenvalues --   -0.32593  -0.32357  -0.32176  -0.31804  -0.30820
 Alpha  occ. eigenvalues --   -0.30451  -0.29505  -0.25693  -0.25276
 Alpha virt. eigenvalues --    0.03290   0.03840   0.06979   0.07853   0.08751
 Alpha virt. eigenvalues --    0.09312   0.09882   0.10370   0.11133   0.12190
 Alpha virt. eigenvalues --    0.12764   0.14180   0.14439   0.14534   0.14963

 Mulliken charges:
               1
     1  N   -0.311527
     2  C    0.179519
     3  C    0.065342
     4  N   -0.258356
     5  C    0.139108
     6  H    0.026153
     7  N   -0.293900
     8  C    0.134497
     9  H    0.011765
    10  N   -0.288889
    11  C    0.244263
    12  C    0.096109
    13  N   -0.050718
    14  H    0.111750
    15  H    0.083258
    16  H    0.025826
    17  H    0.030116
    18  H    0.024742
    19  N   -0.301132
    20  C    0.250361
    21  C    0.181752
    22  N   -0.115245
    23  H    0.114927
    24  H    0.116265
    25  N   -0.307914
    26  C    0.236022
    27  N   -0.144161
    28  H    0.119791
    29  C    0.186285
    30  O   -0.323067
    31  C   -0.014959
    32  N   -0.222920
    33  C    0.124841
    34  H    0.017916
    35  H    0.028645
    36  H    0.028212
    37  H    0.022310
    38  H    0.059836
    39  H    0.059702
    40  H    0.073204
    41  H    0.024590
    42  C   -0.106149
    43  O   -0.268517
    44  C    0.162222
    45  H    0.130883
    46  N   -0.114170
    47  O   -0.339271
    48  C    0.332700
    49  H    0.046527
    50  C    0.166336
    51  C    0.036415
    52  N   -0.276951
    53  H    0.034926
    54  H    0.039072
    55  H    0.027074
    56  H    0.126632
    57  H    0.116112
    58  N   -0.053574
    59  C    0.083604
    60  C    0.235900
    61  N   -0.269248
    62  H    0.036493
    63  C    0.160172
    64  N   -0.301816
    65  H    0.037222
    66  C    0.122764
    67  N   -0.257831
    68  C    0.028336
    69  C    0.181867
    70  N   -0.302045
 Sum of Mulliken charges =  -0.00000

 Dipole moment (field-independent basis, Debye):
    X=             -7.2302    Y=              6.6815    Z=             -2.5014  Tot=             10.1575
 Quadrupole moment (field-independent basis, Debye-Ang):
   XX=           -150.7813   YY=           -223.0379   ZZ=           -256.1758
   XY=             -3.9600   XZ=             -2.6046   YZ=              8.0885

 Normal termination of Gaussian 16 at Sun Jan 21 23:03:43 2018.
