 Gaussian 16, Revision A.03,
 Gaussian 16:  EM64L-G16RevA.03 25-Dec-2016

 ---------------------------------------
 #p wb97xd/cc-pvdz sp scf=(maxcycles=20)
 ---------------------------------------

 ------------------
 Base pair stacking
 ------------------
 Symbolic Z-matrix:
 Charge =  0 Multiplicity = 1

                         Standard orientation:
 ---------------------------------------------------------------------
 Center     Atomic      Atomic             Coordinates (Angstroms)
 Number     Number       Type             X           Y           Z
 ---------------------------------------------------------------------
      1          7           0        4.895831   -1.492461   -1.599020
      2          6           0        6.271011   -0.962129   -1.674038
      3          6           0        2.704215   -1.660925   -1.523183
      4          7           0        3.195657   -2.956463   -1.454055
      5          6           0        4.496356   -2.803119   -1.502515
      6          1           0        5.218483   -3.619513   -1.471174
      7          7           0        1.253512    0.197156   -1.600217
      8          6           0        2.351981    0.954982   -1.681733
      9          1           0        2.173310    2.027481   -1.745715
     10          7           0        3.632014    0.588613   -1.696003
     11          6           0        3.740337   -0.747726   -1.612885
     12          6           0        1.396002   -1.143726   -1.517815
     13          7           0        0.300677   -1.901883   -1.436374
     14          1           0        0.358787   -2.898833   -1.373695
     15          1           0       -0.614833   -1.499424   -1.435237
     16          1           0        6.729311   -1.333397   -2.481697
     17          1           0        6.241529    0.034975   -1.737581
     18          1           0        6.777970   -1.227324   -0.853876
     19          7           0        4.917863    1.851545    0.985187
     20          6           0        3.545537    1.787223    1.010092
     21          6           0        5.710183    3.045164    0.627122
     22          7           0        0.454652    3.308832    0.570914
     23          1           0       -0.509446    3.056812    0.649872
     24          1           0        0.656722    4.247742    0.291030
     25          7           0        2.697153    2.795509    0.714016
     26          6           0        1.433260    2.428003    0.828556
     27          7           0        1.029001    1.169832    1.204171
     28          1           0        0.040844    0.978056    1.265333
     29          6           0        1.884404    0.116979    1.513456
     30          8           0        1.416663   -0.980428    1.841563
     31          6           0        3.245546    0.496597    1.394910
     32          7           0        4.406187   -0.234628    1.607328
     33          6           0        5.370370    0.607887    1.352881
     34          1           0        6.433368    0.373250    1.418129
     35          1           0        6.283086    2.841369   -0.166000
     36          1           0        5.092410    3.798588    0.405824
     37          1           0        6.289685    3.306273    1.398363
     38          1           0       -4.993789    0.480707    0.757584
     39          1           0       -4.983270    0.706454    2.505030
     40          1           0       -3.759221    1.492884    1.507733
     41          1           0       -3.629251   -3.900327    2.203672
     42          6           0       -3.204062   -2.905211    2.072556
     43          8           0       -0.954858   -3.654372    2.155789
     44          6           0       -1.781803   -2.749699    2.043902
     45          1           0       -0.350310   -1.300283    1.848039
     46          7           0       -1.349128   -1.450094    1.873400
     47          8           0       -1.652955    0.782127    1.586868
     48          6           0       -2.129358   -0.329741    1.733364
     49          1           0       -5.078379   -1.895954    1.953463
     50          6           0       -3.991197   -1.831385    1.938575
     51          6           0       -4.364252    0.606264    1.625916
     52          7           0       -3.490318   -0.561135    1.771459
     53          1           0       -5.713839    3.950897   -1.818922
     54          1           0       -4.400073    3.869801   -0.854801
     55          1           0       -5.894673    3.757841   -0.208498
     56          1           0       -3.198134   -3.024851   -1.543712
     57          1           0       -4.855455   -2.645684   -1.683817
     58          7           0       -3.916901   -2.329502   -1.541075
     59          6           0       -3.637337   -1.037767   -1.355545
     60          6           0       -4.166540    1.271937   -1.138914
     61          7           0       -2.896905    1.667682   -0.949634
     62          1           0       -1.018499    0.855644   -0.836496
     63          6           0       -2.072425    0.622658   -0.982208
     64          7           0       -2.350491   -0.671854   -1.167899
     65          1           0       -7.369510    1.570425   -1.461550
     66          6           0       -6.343932    1.207031   -1.390224
     67          7           0       -5.989308   -0.049846   -1.500658
     68          6           0       -4.611192   -0.022686   -1.343259
     69          6           0       -5.327853    3.527150   -0.999493
     70          7           0       -5.291373    2.061727   -1.170420
 ---------------------------------------------------------------------

 SCF Done:  E(RwB97XD) =  -2048.73615138     A.U. after   15 cycles

 The electronic state is 1-A.
 Alpha  occ. eigenvalues --  -19.25223 -19.21455 -19.20406 -14.52892 -14.51858
 Alpha  occ. eigenvalues --  -14.48713 -14.48702 -14.48522 -14.47277 -14.46515
 Alpha  occ. eigenvalues --  -14.46511 -14.45860 -14.44774 -14.44619 -14.42899
 Alpha  occ. eigenvalues --  -14.41868 -14.41173 -14.41056 -14.41054 -14.40606
 Alpha  occ. eigenvalues --  -10.44873 -10.41031 -10.40491 -10.39570 -10.38368
 Alpha  occ. eigenvalues --  -10.38024 -10.37598 -10.37295 -10.36399 -10.35775
 Alpha  occ. eigenvalues --  -10.34251 -10.34227 -10.34005 -10.33907 -10.33494
 Alpha  occ. eigenvalues --  -10.33330 -10.33086 -10.32942 -10.30890 -10.30885
 Alpha  occ. eigenvalues --  -10.30624 -10.28556 -10.27981  -1.18988  -1.15719
 Alpha  occ. eigenvalues --   -1.13033  -1.12486  -1.11155  -1.10486  -1.09812
 Alpha  occ. eigenvalues --   -1.08778  -1.08397  -1.05349  -1.05280  -1.01907
 Alpha  occ. eigenvalues --   -1.01411  -1.00771  -0.99554  -0.98411  -0.97389
 Alpha  occ. eigenvalues --   -0.96850  -0.96549  -0.93028  -0.90535  -0.88144
 Alpha  occ. eigenvalues --   -0.86312  -0.84065  -0.83899  -0.82987  -0.82437
 Alpha  occ. eigenvalues --   -0.82313  -0.78356  -0.77515  -0.75343  -0.74522
 Alpha  occ. eigenvalues --   -0.73464  -0.73053  -0.72820  -0.71205  -0.70862
 Alpha  occ. eigenvalues --   -0.67296  -0.67232  -0.66465  -0.66050  -0.64721
 Alpha  occ. eigenvalues --   -0.64209  -0.63573  -0.62923  -0.62512  -0.61676
 Alpha  occ. eigenvalues --   -0.61397  -0.60894  -0.60713  -0.59880  -0.59126
 Alpha  occ. eigenvalues --   -0.58775  -0.58201  -0.57173  -0.56682  -0.55976
 Alpha  occ. eigenvalues --   -0.55894  -0.55698  -0.55566  -0.54743  -0.54122
 Alpha  occ. eigenvalues --   -0.53880  -0.53829  -0.53333  -0.53178  -0.52846
 Alpha  occ. eigenvalues --   -0.52204  -0.51960  -0.51794  -0.50650  -0.50446
 Alpha  occ. eigenvalues --   -0.50059  -0.49969  -0.49439  -0.49078  -0.49018
 Alpha  occ. eigenvalues --   -0.48670  -0.48196  -0.48031  -0.47792  -0.47066
 Alpha  occ. eigenvalues --   -0.47016  -0.45659  -0.45097  -0.44584  -0.42739
 Alpha  occ. eigenvalues --   -0.41245  -0.41199  -0.39026  -0.38153  -0.38097
 Alpha  occ. eigenvalues --   -0.37356  -0.37210  -0.37121  -0.35573  -0.35166
 Alpha  occ. eigenvalues --   -0.34768  -0.34290  -0.33570  -0.33293  -0.32796
 Alpha  occ. eigenvalues --   -0.32484  -0.32284  -0.31762  -0.31550  -0.30740
 Alpha  occ. eigenvalues --   -0.30522  -0.30099  -0.26017  -0.25318
 Alpha virt. eigenvalues --    0.03491   0.03593   0.06292   0.07795   0.08991
 Alpha virt. eigenvalues --    0.09459   0.09805   0.10022   0.10808   0.12340
 Alpha virt. eigenvalues --    0.12893   0.14055   0.14311   0.14453   0.14602

 Mulliken charges:
               1
     1  N   -0.308950
     2  C    0.179641
     3  C    0.064336
     4  N   -0.261352
     5  C    0.144916
     6  H    0.027363
     7  N   -0.282667
     8  C    0.121651
     9  H    0.017784
    10  N   -0.274640
    11  C    0.248150
    12  C    0.080222
    13  N   -0.058829
    14  H    0.110954
    15  H    0.081944
    16  H    0.026651
    17  H    0.027417
    18  H    0.026625
    19  N   -0.296072
    20  C    0.258532
    21  C    0.183864
    22  N   -0.112964
    23  H    0.120530
    24  H    0.116623
    25  N   -0.293842
    26  C    0.208635
    27  N   -0.112023
    28  H    0.113121
    29  C    0.169346
    30  O   -0.321867
    31  C   -0.012810
    32  N   -0.221890
    33  C    0.106195
    34  H    0.019028
    35  H    0.023747
    36  H    0.029706
    37  H    0.022891
    38  H    0.060778
    39  H    0.051801
    40  H    0.076873
    41  H    0.025590
    42  C   -0.107201
    43  O   -0.265534
    44  C    0.174693
    45  H    0.130573
    46  N   -0.122632
    47  O   -0.341008
    48  C    0.340049
    49  H    0.044980
    50  C    0.161855
    51  C    0.055754
    52  N   -0.277502
    53  H    0.036022
    54  H    0.039009
    55  H    0.029341
    56  H    0.120879
    57  H    0.118863
    58  N   -0.060062
    59  C    0.099669
    60  C    0.195931
    61  N   -0.262263
    62  H    0.007719
    63  C    0.191528
    64  N   -0.310419
    65  H    0.037734
    66  C    0.123647
    67  N   -0.247472
    68  C    0.011273
    69  C    0.182193
    70  N   -0.294626
 Sum of Mulliken charges =  -0.00000

 Dipole moment (field-independent basis, Debye):
    X=             -7.1606    Y=              6.9533    Z=             -2.5174  Tot=             10.2937
 Quadrupole moment (field-independent basis, Debye-Ang):
   XX=           -154.8098   YY=           -225.7004   ZZ=           -255.7803
   XY=              0.3141   XZ=            -11.3395   YZ=             13.6170

 Normal termination of Gaussian 16 at Mon Jan 22 07:17:35 2018.
