 Gaussian 16, Revision A.03,
 Gaussian 16:  EM64L-G16RevA.03 25-Dec-2016

 ---------------------------------------
 #p wb97xd/cc-pvdz sp scf=(maxcycles=20)
 ---------------------------------------

 ------------------
 Base pair stacking
 ------------------
 Symbolic Z-matrix:
 Charge =  0 Multiplicity = 1

                         Standard orientation:
 ---------------------------------------------------------------------
 Center     Atomic      Atomic             Coordinates (Angstroms)
 Number     Number       Type             X           Y           Z
 ---------------------------------------------------------------------
      1          7           0       -6.962961   -1.321075    0.163505
      2          6           0       -8.329688   -0.789673    0.329879
      3          6           0       -4.784822   -1.604600    0.275832
      4          7           0       -5.273253   -2.650996   -0.493079
      5          6           0       -6.565951   -2.438300   -0.529978
      6          1           0       -7.283645   -3.070727   -1.053333
      7          7           0       -3.343020   -0.152617    1.448808
      8          6           0       -4.434726    0.550079    1.768129
      9          1           0       -4.257147    1.431237    2.383171
     10          7           0       -5.706896    0.328764    1.443281
     11          6           0       -5.814560   -0.776637    0.687678
     12          6           0       -3.484643   -1.259571    0.687454
     13          7           0       -2.396060   -1.962340    0.367661
     14          1           0       -2.453820   -2.788493   -0.193909
     15          1           0       -1.486172   -1.687147    0.678326
     16          1           0       -8.902606   -1.474663    0.780139
     17          1           0       -8.300368    0.038480    0.888832
     18          1           0       -8.716080   -0.571422   -0.566260
     19          7           0       -2.619906    2.611715   -1.557902
     20          6           0       -1.270566    2.420794   -1.382197
     21          6           0       -3.331592    3.892838   -1.376376
     22          7           0        1.865612    3.678006   -0.578719
     23          1           0        2.801514    3.334467   -0.505892
     24          1           0        1.721052    4.647138   -0.377179
     25          7           0       -0.375354    3.363866   -1.017142
     26          6           0        0.849420    2.875927   -0.930751
     27          7           0        1.174723    1.565024   -1.182200
     28          1           0        2.137856    1.280271   -1.091272
     29          6           0        0.269992    0.577473   -1.559132
     30          8           0        0.667254   -0.576480   -1.762392
     31          6           0       -1.049954    1.086589   -1.656136
     32          7           0       -2.236913    0.452652   -1.996957
     33          6           0       -3.138501    1.394051   -1.925322
     34          1           0       -4.200261    1.253945   -2.131014
     35          1           0       -4.026062    3.792330   -0.664751
     36          1           0       -2.678600    4.599011   -1.105855
     37          1           0       -3.770030    4.157015   -2.234745
     38          1           0        6.979336    0.357589    0.158281
     39          1           0        7.233054    0.473474   -1.581500
     40          1           0        5.967092    1.429394   -0.810197
     41          1           0        5.399482   -3.962306   -1.252109
     42          6           0        5.061229   -2.926231   -1.232431
     43          8           0        2.781952   -3.470412   -1.601071
     44          6           0        3.671227   -2.639890   -1.416065
     45          1           0        2.377547   -1.056283   -1.499246
     46          7           0        3.350400   -1.298059   -1.373467
     47          8           0        3.831923    0.910583   -1.156128
     48          6           0        4.211170   -0.247154   -1.177944
     49          1           0        6.991962   -2.087071   -0.894960
     50          6           0        5.925010   -1.922592   -1.039599
     51          6           0        6.491552    0.485529   -0.796584
     52          7           0        5.534542   -0.603906   -1.008713
     53          1           0        3.555310    2.426149    4.354914
     54          1           0        2.392854    2.939598    3.331588
     55          1           0        3.963659    3.043766    2.900525
     56          1           0        1.040524   -3.266646    0.313440
     57          1           0        2.664004   -3.141077    0.821995
     58          7           0        1.758652   -2.721737    0.746469
     59          6           0        1.520619   -1.490537    1.203267
     60          6           0        2.096861    0.571391    2.241597
     61          7           0        0.871274    1.109106    2.126642
     62          1           0       -0.978885    0.613632    1.397242
     63          6           0        0.040992    0.255515    1.530889
     64          7           0        0.277492   -0.978050    1.072666
     65          1           0        5.222961    0.412854    3.050626
     66          6           0        4.214925    0.216205    2.684387
     67          7           0        3.836462   -0.896798    2.105009
     68          6           0        2.495527   -0.684866    1.819187
     69          6           0        3.287038    2.497277    3.394195
     70          7           0        3.212793    1.148481    2.799855
 ---------------------------------------------------------------------

 SCF Done:  E(RwB97XD) =  -2048.74366597     A.U. after   15 cycles

 The electronic state is 1-A.
 Alpha  occ. eigenvalues --  -19.26156 -19.22562 -19.20883 -14.52695 -14.51089
 Alpha  occ. eigenvalues --  -14.49032 -14.48867 -14.48255 -14.47221 -14.47134
 Alpha  occ. eigenvalues --  -14.45593 -14.44170 -14.42483 -14.42292 -14.42292
 Alpha  occ. eigenvalues --  -14.42053 -14.41679 -14.41075 -14.40942 -14.40265
 Alpha  occ. eigenvalues --  -10.45790 -10.41540 -10.40616 -10.38506 -10.38058
 Alpha  occ. eigenvalues --  -10.37859 -10.36711 -10.35630 -10.35562 -10.35483
 Alpha  occ. eigenvalues --  -10.34559 -10.34331 -10.34013 -10.33600 -10.33377
 Alpha  occ. eigenvalues --  -10.33244 -10.32950 -10.31316 -10.31208 -10.31001
 Alpha  occ. eigenvalues --  -10.30872 -10.28748 -10.28326  -1.19715  -1.13764
 Alpha  occ. eigenvalues --   -1.13681  -1.13473  -1.11608  -1.10758  -1.09600
 Alpha  occ. eigenvalues --   -1.08879  -1.07264  -1.05104  -1.02946  -1.02790
 Alpha  occ. eigenvalues --   -1.00491  -1.00125  -0.99486  -0.98773  -0.97153
 Alpha  occ. eigenvalues --   -0.96704  -0.94890  -0.92725  -0.91306  -0.86132
 Alpha  occ. eigenvalues --   -0.84591  -0.84273  -0.84164  -0.83985  -0.82594
 Alpha  occ. eigenvalues --   -0.82523  -0.79170  -0.75344  -0.74812  -0.73964
 Alpha  occ. eigenvalues --   -0.73719  -0.73078  -0.73037  -0.71215  -0.68703
 Alpha  occ. eigenvalues --   -0.67666  -0.66870  -0.66431  -0.65077  -0.64759
 Alpha  occ. eigenvalues --   -0.63995  -0.62915  -0.62862  -0.62436  -0.62016
 Alpha  occ. eigenvalues --   -0.60284  -0.59936  -0.59806  -0.58873  -0.58747
 Alpha  occ. eigenvalues --   -0.58496  -0.58002  -0.56731  -0.56629  -0.56596
 Alpha  occ. eigenvalues --   -0.56266  -0.55411  -0.54721  -0.54475  -0.53955
 Alpha  occ. eigenvalues --   -0.53863  -0.53620  -0.53140  -0.52796  -0.52489
 Alpha  occ. eigenvalues --   -0.52150  -0.51887  -0.51304  -0.50977  -0.50440
 Alpha  occ. eigenvalues --   -0.50342  -0.49796  -0.49287  -0.49196  -0.49087
 Alpha  occ. eigenvalues --   -0.48487  -0.48265  -0.47815  -0.47809  -0.47495
 Alpha  occ. eigenvalues --   -0.47119  -0.45296  -0.45212  -0.44316  -0.42916
 Alpha  occ. eigenvalues --   -0.41340  -0.39732  -0.39234  -0.37514  -0.37434
 Alpha  occ. eigenvalues --   -0.37347  -0.36518  -0.36034  -0.35832  -0.34676
 Alpha  occ. eigenvalues --   -0.33753  -0.33729  -0.33696  -0.33043  -0.32837
 Alpha  occ. eigenvalues --   -0.32530  -0.32406  -0.32277  -0.32025  -0.31162
 Alpha  occ. eigenvalues --   -0.30474  -0.27982  -0.25947  -0.25632
 Alpha virt. eigenvalues --    0.02677   0.05510   0.07829   0.08107   0.08591
 Alpha virt. eigenvalues --    0.09277   0.09533   0.10816   0.11370   0.12266
 Alpha virt. eigenvalues --    0.12761   0.13805   0.14491   0.14592   0.16095

 Mulliken charges:
               1
     1  N   -0.310664
     2  C    0.180747
     3  C    0.033716
     4  N   -0.256195
     5  C    0.131008
     6  H    0.026755
     7  N   -0.288195
     8  C    0.128610
     9  H    0.012837
    10  N   -0.289787
    11  C    0.233713
    12  C    0.114892
    13  N   -0.044700
    14  H    0.108999
    15  H    0.089757
    16  H    0.026518
    17  H    0.034922
    18  H    0.024593
    19  N   -0.310338
    20  C    0.249028
    21  C    0.180769
    22  N   -0.124850
    23  H    0.113017
    24  H    0.118136
    25  N   -0.307124
    26  C    0.247716
    27  N   -0.135319
    28  H    0.116406
    29  C    0.169772
    30  O   -0.323817
    31  C   -0.003779
    32  N   -0.224183
    33  C    0.131197
    34  H    0.029725
    35  H    0.032415
    36  H    0.028248
    37  H    0.024188
    38  H    0.058820
    39  H    0.061624
    40  H    0.072777
    41  H    0.030711
    42  C   -0.101760
    43  O   -0.284422
    44  C    0.149371
    45  H    0.139192
    46  N   -0.124528
    47  O   -0.352538
    48  C    0.361287
    49  H    0.048980
    50  C    0.185532
    51  C    0.040946
    52  N   -0.290552
    53  H    0.031035
    54  H    0.042042
    55  H    0.019422
    56  H    0.125296
    57  H    0.115865
    58  N   -0.029530
    59  C    0.096895
    60  C    0.243982
    61  N   -0.271275
    62  H    0.038957
    63  C    0.156786
    64  N   -0.300616
    65  H    0.026337
    66  C    0.127486
    67  N   -0.265467
    68  C    0.010178
    69  C    0.180357
    70  N   -0.311920
 Sum of Mulliken charges =  -0.00000

 Dipole moment (field-independent basis, Debye):
    X=              7.5514    Y=              6.1463    Z=              1.8911  Tot=              9.9185
 Quadrupole moment (field-independent basis, Debye-Ang):
   XX=           -141.7206   YY=           -223.7131   ZZ=           -250.4631
   XY=              6.6892   XZ=             15.1032   YZ=             -2.4902

 Normal termination of Gaussian 16 at Mon Jan 22 12:34:45 2018.
