 Gaussian 16, Revision A.03,
 Gaussian 16:  EM64L-G16RevA.03 25-Dec-2016

 ---------------------------------------
 #p wb97xd/cc-pvdz sp scf=(maxcycles=20)
 ---------------------------------------

 ------------------
 Base pair stacking
 ------------------
 Symbolic Z-matrix:
 Charge =  0 Multiplicity = 1

                         Standard orientation:
 ---------------------------------------------------------------------
 Center     Atomic      Atomic             Coordinates (Angstroms)
 Number     Number       Type             X           Y           Z
 ---------------------------------------------------------------------
      1          7           0        4.557127   -2.048239   -1.643056
      2          6           0        5.903742   -1.675401   -2.118045
      3          6           0        2.393510   -2.069582   -1.248559
      4          7           0        2.913208   -3.193443   -0.622787
      5          6           0        4.195903   -3.135601   -0.885501
      6          1           0        4.931378   -3.866624   -0.548427
      7          7           0        0.910342   -0.416459   -2.042494
      8          6           0        1.977347    0.164258   -2.600938
      9          1           0        1.772829    1.082003   -3.150643
     10          7           0        3.253045   -0.216698   -2.582382
     11          6           0        3.394805   -1.353889   -1.881576
     12          6           0        1.086025   -1.559404   -1.343992
     13          7           0        0.022149   -2.140571   -0.785806
     14          1           0        0.105441   -2.987704   -0.259830
     15          1           0       -0.893922   -1.749235   -0.874303
     16          1           0        6.269438   -2.406088   -2.694714
     17          1           0        5.848759   -0.829725   -2.648084
     18          1           0        6.509367   -1.536876   -1.334450
     19          7           0        5.216122    2.101171    0.634672
     20          6           0        3.850390    2.083809    0.784813
     21          6           0        6.012567    3.266771    0.201380
     22          7           0        0.785832    3.709906    0.623502
     23          1           0       -0.175051    3.491050    0.790966
     24          1           0        0.993321    4.641179    0.322824
     25          7           0        3.013290    3.120321    0.563510
     26          6           0        1.753363    2.796311    0.794178
     27          7           0        1.342539    1.552941    1.209825
     28          1           0        0.358143    1.395095    1.361530
     29          6           0        2.186316    0.471660    1.443803
     30          8           0        1.713442   -0.608892    1.817323
     31          6           0        3.543077    0.804444    1.200241
     32          7           0        4.692746    0.034116    1.308726
     33          6           0        5.657754    0.843008    0.964268
     34          1           0        6.713680    0.572218    0.933231
     35          1           0        6.503464    3.043000   -0.639906
     36          1           0        5.403140    4.040732    0.034470
     37          1           0        6.668545    3.508429    0.915591
     38          1           0       -4.715807    1.069819    1.316735
     39          1           0       -4.538226    1.296216    3.055090
     40          1           0       -3.384255    2.039673    1.947401
     41          1           0       -3.374688   -3.354357    2.648906
     42          6           0       -2.929667   -2.374445    2.475826
     43          8           0       -0.709004   -3.200010    2.356502
     44          6           0       -1.511488   -2.267665    2.317055
     45          1           0       -0.055422   -0.868161    1.986050
     46          7           0       -1.052270   -0.983718    2.102926
     47          8           0       -1.304932    1.257391    1.836867
     48          6           0       -1.803496    0.162556    2.030383
     49          1           0       -4.771639   -1.301784    2.524296
     50          6           0       -3.688793   -1.274436    2.410110
     51          6           0       -4.005769    1.174342    2.123584
     52          7           0       -3.162377   -0.022142    2.193247
     53          1           0       -6.100795    3.059192   -3.245045
     54          1           0       -4.680447    3.394851   -2.515625
     55          1           0       -6.085312    3.667093   -1.730568
     56          1           0       -3.443570   -3.033146    0.054678
     57          1           0       -5.112418   -2.699231   -0.061715
     58          7           0       -4.169470   -2.392212   -0.195176
     59          6           0       -3.893403   -1.181691   -0.684649
     60          6           0       -4.435081    0.970134   -1.543713
     61          7           0       -3.159362    1.355570   -1.712243
     62          1           0       -1.266353    0.619876   -1.436762
     63          6           0       -2.325704    0.389186   -1.332742
     64          7           0       -2.600247   -0.823917   -0.842249
     65          1           0       -7.658588    1.209608   -1.605555
     66          6           0       -6.625361    0.882660   -1.485180
     67          7           0       -6.263553   -0.287478   -1.018749
     68          6           0       -4.877212   -0.245131   -1.050568
     69          6           0       -5.612462    3.063240   -2.372400
     70          7           0       -5.569869    1.694309   -1.822662
 ---------------------------------------------------------------------

 SCF Done:  E(RwB97XD) =  -2048.74392542     A.U. after   15 cycles

 The electronic state is 1-A.
 Alpha  occ. eigenvalues --  -19.25690 -19.21917 -19.20759 -14.52498 -14.52305
 Alpha  occ. eigenvalues --  -14.49223 -14.48315 -14.47913 -14.47553 -14.47060
 Alpha  occ. eigenvalues --  -14.46891 -14.45476 -14.44621 -14.44485 -14.42256
 Alpha  occ. eigenvalues --  -14.42142 -14.41476 -14.40606 -14.40432 -14.40138
 Alpha  occ. eigenvalues --  -10.45267 -10.41482 -10.40168 -10.40016 -10.38434
 Alpha  occ. eigenvalues --  -10.38035 -10.37753 -10.37359 -10.36016 -10.35171
 Alpha  occ. eigenvalues --  -10.34863 -10.34718 -10.33873 -10.33841 -10.33233
 Alpha  occ. eigenvalues --  -10.32868 -10.32785 -10.32776 -10.31294 -10.30807
 Alpha  occ. eigenvalues --  -10.30302 -10.28479 -10.27969  -1.19223  -1.15282
 Alpha  occ. eigenvalues --   -1.13432  -1.12934  -1.10952  -1.10545  -1.09659
 Alpha  occ. eigenvalues --   -1.09072  -1.08774  -1.05060  -1.04743  -1.02244
 Alpha  occ. eigenvalues --   -1.01047  -1.00139  -0.99970  -0.98827  -0.97113
 Alpha  occ. eigenvalues --   -0.96994  -0.96198  -0.92443  -0.90942  -0.87748
 Alpha  occ. eigenvalues --   -0.85931  -0.84500  -0.83401  -0.83300  -0.82862
 Alpha  occ. eigenvalues --   -0.81702  -0.78763  -0.77196  -0.75000  -0.74955
 Alpha  occ. eigenvalues --   -0.73881  -0.73172  -0.72429  -0.70655  -0.70512
 Alpha  occ. eigenvalues --   -0.67665  -0.66993  -0.66397  -0.65836  -0.64631
 Alpha  occ. eigenvalues --   -0.64377  -0.63837  -0.62869  -0.62280  -0.62060
 Alpha  occ. eigenvalues --   -0.60738  -0.60416  -0.60188  -0.59439  -0.59351
 Alpha  occ. eigenvalues --   -0.59154  -0.58606  -0.57017  -0.56150  -0.55988
 Alpha  occ. eigenvalues --   -0.55607  -0.55370  -0.55104  -0.54522  -0.54267
 Alpha  occ. eigenvalues --   -0.53798  -0.53719  -0.53683  -0.53253  -0.53053
 Alpha  occ. eigenvalues --   -0.52828  -0.52232  -0.51194  -0.50451  -0.50254
 Alpha  occ. eigenvalues --   -0.50048  -0.49678  -0.49500  -0.49427  -0.49070
 Alpha  occ. eigenvalues --   -0.48581  -0.48444  -0.48256  -0.48100  -0.47404
 Alpha  occ. eigenvalues --   -0.46464  -0.45834  -0.45677  -0.44518  -0.43026
 Alpha  occ. eigenvalues --   -0.40808  -0.40788  -0.39333  -0.38002  -0.37715
 Alpha  occ. eigenvalues --   -0.37623  -0.37542  -0.36599  -0.35754  -0.34979
 Alpha  occ. eigenvalues --   -0.34517  -0.34222  -0.33318  -0.33002  -0.32947
 Alpha  occ. eigenvalues --   -0.32902  -0.32682  -0.32102  -0.32073  -0.30365
 Alpha  occ. eigenvalues --   -0.30084  -0.29731  -0.25858  -0.25385
 Alpha virt. eigenvalues --    0.02933   0.03813   0.06669   0.08391   0.08796
 Alpha virt. eigenvalues --    0.08952   0.09516   0.10422   0.11379   0.11658
 Alpha virt. eigenvalues --    0.13339   0.13948   0.14290   0.14929   0.15062

 Mulliken charges:
               1
     1  N   -0.307751
     2  C    0.181732
     3  C    0.053501
     4  N   -0.253302
     5  C    0.149545
     6  H    0.026128
     7  N   -0.298058
     8  C    0.129745
     9  H    0.009238
    10  N   -0.285469
    11  C    0.247196
    12  C    0.087744
    13  N   -0.064765
    14  H    0.117611
    15  H    0.086529
    16  H    0.022772
    17  H    0.029505
    18  H    0.023793
    19  N   -0.310436
    20  C    0.260666
    21  C    0.181652
    22  N   -0.124376
    23  H    0.118850
    24  H    0.119014
    25  N   -0.313011
    26  C    0.250845
    27  N   -0.147999
    28  H    0.120861
    29  C    0.196320
    30  O   -0.319579
    31  C   -0.016520
    32  N   -0.228219
    33  C    0.119707
    34  H    0.023008
    35  H    0.027137
    36  H    0.030994
    37  H    0.025215
    38  H    0.067258
    39  H    0.059128
    40  H    0.075059
    41  H    0.022402
    42  C   -0.130524
    43  O   -0.269912
    44  C    0.170847
    45  H    0.132148
    46  N   -0.122736
    47  O   -0.351004
    48  C    0.352019
    49  H    0.042377
    50  C    0.177817
    51  C    0.038241
    52  N   -0.276474
    53  H    0.034223
    54  H    0.042308
    55  H    0.028768
    56  H    0.124699
    57  H    0.114888
    58  N   -0.055190
    59  C    0.091265
    60  C    0.238585
    61  N   -0.268375
    62  H    0.033467
    63  C    0.172914
    64  N   -0.314889
    65  H    0.039056
    66  C    0.136592
    67  N   -0.259813
    68  C    0.012605
    69  C    0.180523
    70  N   -0.308094
 Sum of Mulliken charges =  -0.00000

 Dipole moment (field-independent basis, Debye):
    X=             -7.2301    Y=              7.5912    Z=             -1.1163  Tot=             10.5426
 Quadrupole moment (field-independent basis, Debye-Ang):
   XX=           -155.7941   YY=           -222.1730   ZZ=           -252.2710
   XY=             -1.2422   XZ=            -12.8536   YZ=              3.8816

 Normal termination of Gaussian 16 at Mon Jan 22 08:26:45 2018.
