 Gaussian 16, Revision A.03,
 Gaussian 16:  EM64L-G16RevA.03 25-Dec-2016

 ---------------------------------------
 #p wb97xd/cc-pvdz sp scf=(maxcycles=20)
 ---------------------------------------

 ------------------
 Base pair stacking
 ------------------
 Symbolic Z-matrix:
 Charge =  0 Multiplicity = 1

                         Standard orientation:
 ---------------------------------------------------------------------
 Center     Atomic      Atomic             Coordinates (Angstroms)
 Number     Number       Type             X           Y           Z
 ---------------------------------------------------------------------
      1          7           0        5.201605   -1.764962   -1.384602
      2          6           0        6.570332   -1.286307   -1.659357
      3          6           0        3.013527   -1.902628   -1.209395
      4          7           0        3.517481   -3.103472   -0.731134
      5          6           0        4.815543   -2.972477   -0.855827
      6          1           0        5.545203   -3.732566   -0.575115
      7          7           0        1.545532   -0.174254   -1.857962
      8          6           0        2.635515    0.516820   -2.207154
      9          1           0        2.446298    1.509051   -2.614514
     10          7           0        3.918112    0.167881   -2.129078
     11          6           0        4.039662   -1.067502   -1.615783
     12          6           0        1.701276   -1.414126   -1.344613
     13          7           0        0.614440   -2.105533   -0.995435
     14          1           0        0.682451   -3.026987   -0.611369
     15          1           0       -0.304309   -1.726234   -1.105796
     16          1           0        7.015252   -1.900752   -2.311040
     17          1           0        6.530920   -0.364954   -2.044926
     18          1           0        7.096180   -1.267747   -0.808982
     19          7           0        4.605542    2.146423    1.042109
     20          6           0        3.233439    2.081061    1.075227
     21          6           0        5.394787    3.340313    0.678214
     22          7           0        0.138805    3.599861    0.653015
     23          1           0       -0.824603    3.347162    0.737935
     24          1           0        0.338481    4.538663    0.371056
     25          7           0        2.382528    3.088404    0.783253
     26          6           0        1.119620    2.720040    0.905655
     27          7           0        0.718584    1.461908    1.284849
     28          1           0       -0.269041    1.269421    1.352067
     29          6           0        1.576631    0.410006    1.590031
     30          8           0        1.111713   -0.687449    1.921946
     31          6           0        2.936753    0.790559    1.463037
     32          7           0        4.099209    0.060441    1.669229
     33          6           0        5.061202    0.903457    1.408265
     34          1           0        6.124745    0.669717    1.467415
     35          1           0        5.963130    3.136221   -0.118113
     36          1           0        4.775126    4.093056    0.459878
     37          1           0        5.978663    3.602609    1.445749
     38          1           0       -5.306209    0.767692    0.874736
     39          1           0       -5.285471    0.995093    2.621885
     40          1           0       -4.067991    1.781519    1.616577
     41          1           0       -3.929681   -3.610910    2.316791
     42          6           0       -3.506050   -2.615593    2.182213
     43          8           0       -1.255810   -3.362938    2.252780
     44          6           0       -2.084106   -2.459016    2.144952
     45          1           0       -0.654948   -1.008676    1.939219
     46          7           0       -1.653480   -1.159230    1.970674
     47          8           0       -1.960744    1.072475    1.683850
     48          6           0       -2.435396   -0.039618    1.834228
     49          1           0       -5.381829   -1.607913    2.073330
     50          6           0       -4.294807   -1.542512    2.051910
     51          6           0       -4.671631    0.894547    1.739185
     52          7           0       -3.795925   -0.272025    1.880627
     53          1           0       -5.457061    3.290731   -3.138555
     54          1           0       -4.123253    3.531587   -2.230235
     55          1           0       -5.603334    3.635048   -1.550006
     56          1           0       -2.875984   -3.207060   -0.652147
     57          1           0       -4.539031   -2.897116   -0.871911
     58          7           0       -3.600540   -2.550220   -0.861239
     59          6           0       -3.328432   -1.268470   -1.114720
     60          6           0       -3.873087    0.984153   -1.653957
     61          7           0       -2.603326    1.421961   -1.632666
     62          1           0       -0.716046    0.694475   -1.301650
     63          6           0       -1.770659    0.425057   -1.339791
     64          7           0       -2.041240   -0.859369   -1.085595
     65          1           0       -7.084426    1.155794   -1.985596
     66          6           0       -6.054503    0.837293   -1.822008
     67          7           0       -5.691341   -0.385977   -1.523000
     68          6           0       -4.310584   -0.306731   -1.413651
     69          6           0       -5.050793    3.159059   -2.234335
     70          7           0       -5.005118    1.718457   -1.917222
 ---------------------------------------------------------------------

 SCF Done:  E(RwB97XD) =  -2048.75038695     A.U. after   15 cycles

 The electronic state is 1-A.
 Alpha  occ. eigenvalues --  -19.25628 -19.21995 -19.20588 -14.52541 -14.52237
 Alpha  occ. eigenvalues --  -14.48837 -14.48327 -14.48193 -14.47588 -14.46853
 Alpha  occ. eigenvalues --  -14.46634 -14.45567 -14.44367 -14.44308 -14.42213
 Alpha  occ. eigenvalues --  -14.42016 -14.41063 -14.40880 -14.40809 -14.40226
 Alpha  occ. eigenvalues --  -10.45224 -10.41238 -10.40027 -10.40017 -10.38225
 Alpha  occ. eigenvalues --  -10.38069 -10.37507 -10.37255 -10.35859 -10.35303
 Alpha  occ. eigenvalues --  -10.34825 -10.34403 -10.33948 -10.33638 -10.33501
 Alpha  occ. eigenvalues --  -10.33052 -10.32960 -10.32731 -10.30937 -10.30903
 Alpha  occ. eigenvalues --  -10.30797 -10.28206 -10.28166  -1.19214  -1.15286
 Alpha  occ. eigenvalues --   -1.13186  -1.12966  -1.10911  -1.10624  -1.09413
 Alpha  occ. eigenvalues --   -1.09072  -1.08548  -1.04914  -1.04844  -1.02274
 Alpha  occ. eigenvalues --   -1.01060  -1.00289  -0.99714  -0.98555  -0.96948
 Alpha  occ. eigenvalues --   -0.96650  -0.96548  -0.92584  -0.90850  -0.87688
 Alpha  occ. eigenvalues --   -0.85960  -0.84164  -0.83636  -0.83373  -0.82536
 Alpha  occ. eigenvalues --   -0.82062  -0.78681  -0.77105  -0.74889  -0.74655
 Alpha  occ. eigenvalues --   -0.73629  -0.73149  -0.72676  -0.70842  -0.70459
 Alpha  occ. eigenvalues --   -0.67393  -0.66880  -0.66321  -0.66077  -0.64416
 Alpha  occ. eigenvalues --   -0.64291  -0.63711  -0.62640  -0.62519  -0.61787
 Alpha  occ. eigenvalues --   -0.60748  -0.60521  -0.60318  -0.59453  -0.59293
 Alpha  occ. eigenvalues --   -0.59006  -0.58348  -0.56749  -0.56388  -0.56003
 Alpha  occ. eigenvalues --   -0.55847  -0.55453  -0.55211  -0.54292  -0.53963
 Alpha  occ. eigenvalues --   -0.53759  -0.53608  -0.53575  -0.53328  -0.52978
 Alpha  occ. eigenvalues --   -0.52849  -0.52218  -0.51554  -0.50494  -0.50188
 Alpha  occ. eigenvalues --   -0.50140  -0.49842  -0.49331  -0.48999  -0.48820
 Alpha  occ. eigenvalues --   -0.48699  -0.48558  -0.48383  -0.47695  -0.47295
 Alpha  occ. eigenvalues --   -0.46723  -0.45864  -0.45254  -0.44533  -0.43187
 Alpha  occ. eigenvalues --   -0.40889  -0.40778  -0.39249  -0.37846  -0.37655
 Alpha  occ. eigenvalues --   -0.37337  -0.37292  -0.36882  -0.35973  -0.34750
 Alpha  occ. eigenvalues --   -0.34361  -0.33999  -0.33272  -0.33186  -0.33044
 Alpha  occ. eigenvalues --   -0.32722  -0.32522  -0.32322  -0.31904  -0.30650
 Alpha  occ. eigenvalues --   -0.30305  -0.29449  -0.25642  -0.25436
 Alpha virt. eigenvalues --    0.03115   0.03953   0.06767   0.08101   0.08932
 Alpha virt. eigenvalues --    0.09200   0.09719   0.10391   0.11191   0.12205
 Alpha virt. eigenvalues --    0.12834   0.14078   0.14599   0.14612   0.14772

 Mulliken charges:
               1
     1  N   -0.310045
     2  C    0.179893
     3  C    0.060974
     4  N   -0.257339
     5  C    0.142274
     6  H    0.025944
     7  N   -0.295311
     8  C    0.133530
     9  H    0.010841
    10  N   -0.288283
    11  C    0.246947
    12  C    0.091766
    13  N   -0.051949
    14  H    0.113862
    15  H    0.083124
    16  H    0.025094
    17  H    0.029834
    18  H    0.023957
    19  N   -0.305709
    20  C    0.258536
    21  C    0.182008
    22  N   -0.121567
    23  H    0.117846
    24  H    0.117532
    25  N   -0.310814
    26  C    0.245835
    27  N   -0.144097
    28  H    0.117086
    29  C    0.189822
    30  O   -0.322177
    31  C   -0.017314
    32  N   -0.223634
    33  C    0.121053
    34  H    0.019458
    35  H    0.028355
    36  H    0.029459
    37  H    0.023347
    38  H    0.061381
    39  H    0.059597
    40  H    0.074311
    41  H    0.023268
    42  C   -0.107920
    43  O   -0.268758
    44  C    0.163591
    45  H    0.130358
    46  N   -0.114539
    47  O   -0.343214
    48  C    0.337635
    49  H    0.045359
    50  C    0.165677
    51  C    0.039234
    52  N   -0.275775
    53  H    0.034568
    54  H    0.040322
    55  H    0.027610
    56  H    0.125546
    57  H    0.114837
    58  N   -0.050162
    59  C    0.085598
    60  C    0.234661
    61  N   -0.270157
    62  H    0.031413
    63  C    0.168938
    64  N   -0.307988
    65  H    0.036966
    66  C    0.126236
    67  N   -0.257617
    68  C    0.019741
    69  C    0.181799
    70  N   -0.302653
 Sum of Mulliken charges =  -0.00000

 Dipole moment (field-independent basis, Debye):
    X=             -7.2592    Y=              6.9438    Z=             -1.9762  Tot=             10.2380
 Quadrupole moment (field-independent basis, Debye-Ang):
   XX=           -152.5279   YY=           -222.3874   ZZ=           -255.3245
   XY=             -2.6919   XZ=             -6.3038   YZ=              6.6433

 Normal termination of Gaussian 16 at Mon Jan 22 15:30:01 2018.
