 Gaussian 16, Revision A.03,
 Gaussian 16:  EM64L-G16RevA.03 25-Dec-2016

 ---------------------------------------
 #p wb97xd/cc-pvdz sp scf=(maxcycles=20)
 ---------------------------------------

 ------------------
 Base pair stacking
 ------------------
 Symbolic Z-matrix:
 Charge =  0 Multiplicity = 1

                         Standard orientation:
 ---------------------------------------------------------------------
 Center     Atomic      Atomic             Coordinates (Angstroms)
 Number     Number       Type             X           Y           Z
 ---------------------------------------------------------------------
      1          7           0       -6.946285   -1.299813    0.240192
      2          6           0       -8.305399   -0.728008    0.302301
      3          6           0       -4.774041   -1.593250    0.420692
      4          7           0       -5.273420   -2.744747   -0.170439
      5          6           0       -6.562119   -2.521865   -0.255514
      6          1           0       -7.285900   -3.221202   -0.675084
      7          7           0       -3.318038    0.010699    1.353592
      8          6           0       -4.400585    0.772562    1.541233
      9          1           0       -4.213496    1.740340    2.004549
     10          7           0       -5.673579    0.519636    1.243862
     11          6           0       -5.793329   -0.693506    0.679614
     12          6           0       -3.471716   -1.204423    0.783556
     13          7           0       -2.392275   -1.966396    0.595426
     14          1           0       -2.459101   -2.872880    0.177060
     15          1           0       -1.480505   -1.657291    0.866106
     16          1           0       -8.893030   -1.320788    0.853186
     17          1           0       -8.266971    0.180445    0.717463
     18          1           0       -8.681013   -0.654801   -0.621583
     19          7           0       -2.666039    2.427857   -1.632926
     20          6           0       -1.317033    2.259029   -1.433589
     21          6           0       -3.401155    3.697806   -1.467086
     22          7           0        1.784329    3.568344   -0.579797
     23          1           0        2.724223    3.240040   -0.489993
     24          1           0        1.620838    4.535506   -0.383363
     25          7           0       -0.443439    3.217218   -1.055759
     26          6           0        0.787313    2.749205   -0.947063
     27          7           0        1.137839    1.443096   -1.189375
     28          1           0        2.103694    1.174067   -1.081178
     29          6           0        0.255654    0.440252   -1.579137
     30          8           0        0.674765   -0.707662   -1.772459
     31          6           0       -1.070425    0.927883   -1.700131
     32          7           0       -2.241041    0.274171   -2.059561
     33          6           0       -3.158688    1.201138   -2.005925
     34          1           0       -4.214372    1.043516   -2.229439
     35          1           0       -4.106062    3.587883   -0.767202
     36          1           0       -2.764292    4.415023   -1.187289
     37          1           0       -3.828938    3.952855   -2.333545
     38          1           0        6.937120    0.332199    0.253730
     39          1           0        7.218835    0.447959   -1.481749
     40          1           0        5.924649    1.385297   -0.734839
     41          1           0        5.451097   -4.015863   -1.171987
     42          6           0        5.096018   -2.985316   -1.160882
     43          8           0        2.832424   -3.566888   -1.567116
     44          6           0        3.704975   -2.721758   -1.369106
     45          1           0        2.387737   -1.159327   -1.478714
     46          7           0        3.362031   -1.385145   -1.335621
     47          8           0        3.804324    0.831452   -1.115969
     48          6           0        4.202374   -0.320101   -1.128171
     49          1           0        7.006982   -2.114459   -0.792594
     50          6           0        5.940189   -1.967477   -0.955961
     51          6           0        6.463851    0.450002   -0.709703
     52          7           0        5.528176   -0.655154   -0.935301
     53          1           0        3.598254    2.930612    3.867832
     54          1           0        2.452566    3.285501    2.761678
     55          1           0        4.028256    3.293825    2.335958
     56          1           0        1.022788   -3.312677    0.793131
     57          1           0        2.644008   -3.129101    1.291161
     58          7           0        1.746276   -2.714555    1.138040
     59          6           0        1.524820   -1.421493    1.383208
     60          6           0        2.126488    0.774639    2.073677
     61          7           0        0.910838    1.304194    1.858759
     62          1           0       -0.941324    0.722758    1.201463
     63          6           0        0.071449    0.376471    1.403054
     64          7           0        0.291336   -0.919141    1.156837
     65          1           0        5.243031    0.705266    2.930731
     66          6           0        4.234855    0.465915    2.591278
     67          7           0        3.842834   -0.721645    2.199220
     68          6           0        2.507867   -0.539855    1.868237
     69          6           0        3.338850    2.846326    2.905739
     70          7           0        3.247250    1.419240    2.540983
 ---------------------------------------------------------------------

 SCF Done:  E(RwB97XD) =  -2048.74776924     A.U. after   15 cycles

 The electronic state is 1-A.
 Alpha  occ. eigenvalues --  -19.26039 -19.22274 -19.20726 -14.52536 -14.51338
 Alpha  occ. eigenvalues --  -14.49185 -14.48748 -14.48040 -14.47033 -14.46987
 Alpha  occ. eigenvalues --  -14.46235 -14.44381 -14.42736 -14.42669 -14.42328
 Alpha  occ. eigenvalues --  -14.42164 -14.41833 -14.41301 -14.40822 -14.40478
 Alpha  occ. eigenvalues --  -10.45648 -10.41382 -10.40355 -10.38351 -10.38289
 Alpha  occ. eigenvalues --  -10.37889 -10.36953 -10.35836 -10.35708 -10.35566
 Alpha  occ. eigenvalues --  -10.34488 -10.34435 -10.34283 -10.33781 -10.33457
 Alpha  occ. eigenvalues --  -10.33270 -10.33232 -10.31327 -10.31295 -10.31155
 Alpha  occ. eigenvalues --  -10.30741 -10.28936 -10.28205  -1.19578  -1.13999
 Alpha  occ. eigenvalues --   -1.13334  -1.13295  -1.11770  -1.10625  -1.09437
 Alpha  occ. eigenvalues --   -1.08723  -1.07637  -1.05315  -1.03202  -1.02672
 Alpha  occ. eigenvalues --   -1.00718  -1.00006  -0.99764  -0.98628  -0.97325
 Alpha  occ. eigenvalues --   -0.96577  -0.95245  -0.92946  -0.91147  -0.86417
 Alpha  occ. eigenvalues --   -0.84883  -0.84329  -0.84153  -0.83866  -0.82684
 Alpha  occ. eigenvalues --   -0.82467  -0.78994  -0.75660  -0.74688  -0.73828
 Alpha  occ. eigenvalues --   -0.73523  -0.73375  -0.73234  -0.71415  -0.69034
 Alpha  occ. eigenvalues --   -0.67532  -0.66690  -0.66626  -0.65375  -0.64593
 Alpha  occ. eigenvalues --   -0.63857  -0.63097  -0.62785  -0.62762  -0.61898
 Alpha  occ. eigenvalues --   -0.60486  -0.59887  -0.59640  -0.59202  -0.58800
 Alpha  occ. eigenvalues --   -0.58552  -0.58281  -0.56816  -0.56799  -0.56599
 Alpha  occ. eigenvalues --   -0.56128  -0.55635  -0.54597  -0.54523  -0.54194
 Alpha  occ. eigenvalues --   -0.53739  -0.53550  -0.53011  -0.52691  -0.52664
 Alpha  occ. eigenvalues --   -0.52293  -0.52059  -0.51595  -0.51144  -0.50522
 Alpha  occ. eigenvalues --   -0.50257  -0.49608  -0.49419  -0.49042  -0.48881
 Alpha  occ. eigenvalues --   -0.48532  -0.48342  -0.47784  -0.47714  -0.47499
 Alpha  occ. eigenvalues --   -0.47310  -0.45409  -0.45312  -0.44165  -0.43181
 Alpha  occ. eigenvalues --   -0.41543  -0.39603  -0.39490  -0.37547  -0.37392
 Alpha  occ. eigenvalues --   -0.37315  -0.36457  -0.36267  -0.35914  -0.34565
 Alpha  occ. eigenvalues --   -0.33912  -0.33867  -0.33456  -0.33141  -0.32828
 Alpha  occ. eigenvalues --   -0.32642  -0.32386  -0.32146  -0.31917  -0.31338
 Alpha  occ. eigenvalues --   -0.30685  -0.28414  -0.26132  -0.25543
 Alpha virt. eigenvalues --    0.02942   0.05172   0.07620   0.08142   0.08531
 Alpha virt. eigenvalues --    0.09258   0.09591   0.10583   0.11135   0.11956
 Alpha virt. eigenvalues --    0.12726   0.13695   0.14471   0.14621   0.15636

 Mulliken charges:
               1
     1  N   -0.311048
     2  C    0.180657
     3  C    0.036340
     4  N   -0.256880
     5  C    0.132220
     6  H    0.027516
     7  N   -0.286040
     8  C    0.126998
     9  H    0.013298
    10  N   -0.289791
    11  C    0.234263
    12  C    0.114866
    13  N   -0.046997
    14  H    0.108762
    15  H    0.089160
    16  H    0.026774
    17  H    0.034781
    18  H    0.025329
    19  N   -0.308303
    20  C    0.243600
    21  C    0.180514
    22  N   -0.119966
    23  H    0.112750
    24  H    0.117193
    25  N   -0.302598
    26  C    0.239532
    27  N   -0.128151
    28  H    0.117347
    29  C    0.154861
    30  O   -0.321425
    31  C    0.002867
    32  N   -0.223572
    33  C    0.129434
    34  H    0.028966
    35  H    0.032137
    36  H    0.027737
    37  H    0.023723
    38  H    0.058088
    39  H    0.061855
    40  H    0.071474
    41  H    0.030358
    42  C   -0.107996
    43  O   -0.276685
    44  C    0.162331
    45  H    0.138219
    46  N   -0.129722
    47  O   -0.352635
    48  C    0.359393
    49  H    0.048089
    50  C    0.182608
    51  C    0.040442
    52  N   -0.290521
    53  H    0.032484
    54  H    0.040198
    55  H    0.019206
    56  H    0.124230
    57  H    0.117447
    58  N   -0.044805
    59  C    0.107117
    60  C    0.238093
    61  N   -0.265315
    62  H    0.045667
    63  C    0.154237
    64  N   -0.299874
    65  H    0.027417
    66  C    0.127063
    67  N   -0.263430
    68  C    0.011123
    69  C    0.177269
    70  N   -0.310280
 Sum of Mulliken charges =  -0.00000

 Dipole moment (field-independent basis, Debye):
    X=              7.1534    Y=              6.0769    Z=              2.3696  Tot=              9.6806
 Quadrupole moment (field-independent basis, Debye-Ang):
   XX=           -141.8828   YY=           -223.9905   ZZ=           -252.2418
   XY=              8.6989   XZ=             14.7208   YZ=             -5.3728

 Normal termination of Gaussian 16 at Mon Jan 22 03:56:41 2018.
