 Gaussian 16, Revision A.03,
 Gaussian 16:  EM64L-G16RevA.03 25-Dec-2016

 ---------------------------------------
 #p wb97xd/cc-pvdz sp scf=(maxcycles=20)
 ---------------------------------------

 ------------------
 Base pair stacking
 ------------------
 Symbolic Z-matrix:
 Charge =  0 Multiplicity = 1

                         Standard orientation:
 ---------------------------------------------------------------------
 Center     Atomic      Atomic             Coordinates (Angstroms)
 Number     Number       Type             X           Y           Z
 ---------------------------------------------------------------------
      1          7           0        4.232589   -2.194524   -1.719962
      2          6           0        5.560550   -1.886136   -2.285105
      3          6           0        2.089389   -2.145804   -1.228355
      4          7           0        2.622799   -3.221055   -0.532625
      5          6           0        3.892653   -3.207370   -0.856647
      6          1           0        4.633365   -3.919421   -0.491590
      7          7           0        0.592710   -0.541315   -2.093525
      8          6           0        1.640230   -0.028206   -2.746971
      9          1           0        1.422471    0.842853   -3.363497
     10          7           0        2.910388   -0.427655   -2.753156
     11          6           0        3.069591   -1.503443   -1.964630
     12          6           0        0.785620   -1.623599   -1.308322
     13          7           0       -0.258805   -2.137238   -0.655232
     14          1           0       -0.162296   -2.937924   -0.062929
     15          1           0       -1.172828   -1.739449   -0.735687
     16          1           0        5.889726   -2.669222   -2.812931
     17          1           0        5.492121   -1.087731   -2.882587
     18          1           0        6.203459   -1.691780   -1.544226
     19          7           0        5.506027    2.056272    0.414042
     20          6           0        4.147205    2.066858    0.617880
     21          6           0        6.308006    3.204480   -0.054078
     22          7           0        1.111930    3.754086    0.572018
     23          1           0        0.154190    3.555073    0.777889
     24          1           0        1.326052    4.680227    0.260362
     25          7           0        3.323011    3.119499    0.426320
     26          6           0        2.066898    2.821569    0.707458
     27          7           0        1.647907    1.587773    1.143014
     28          1           0        0.667290    1.450212    1.333873
     29          6           0        2.478372    0.490269    1.347150
     30          8           0        1.998995   -0.579599    1.742521
     31          6           0        3.830887    0.794985    1.049268
     32          7           0        4.968241    0.001874    1.114930
     33          6           0        5.934964    0.790266    0.730114
     34          1           0        6.983198    0.498141    0.658412
     35          1           0        6.760765    2.968751   -0.913289
     36          1           0        5.708136    3.990165   -0.199392
     37          1           0        6.996353    3.434610    0.632956
     38          1           0       -4.409985    1.227317    1.489913
     39          1           0       -4.159508    1.454384    3.219174
     40          1           0       -3.035419    2.171659    2.064492
     41          1           0       -3.106478   -3.219709    2.782730
     42          6           0       -2.649043   -2.249414    2.589056
     43          8           0       -0.451839   -3.119933    2.385116
     44          6           0       -1.236377   -2.171688    2.374229
     45          1           0        0.233316   -0.802683    1.981588
     46          7           0       -0.760272   -0.897803    2.138000
     47          8           0       -0.978191    1.347276    1.874762
     48          6           0       -1.490607    0.263217    2.091327
     49          1           0       -4.465774   -1.139673    2.706487
     50          6           0       -3.387939   -1.134472    2.549681
     51          6           0       -3.666740    1.319480    2.267836
     52          7           0       -2.845444    0.106392    2.308172
     53          1           0       -6.420807    2.937343   -3.273257
     54          1           0       -4.964070    3.309751   -2.639754
     55          1           0       -6.327532    3.671333   -1.818607
     56          1           0       -3.693302   -2.896639    0.413320
     57          1           0       -5.361276   -2.545739    0.343808
     58          7           0       -4.421595   -2.267110    0.142353
     59          6           0       -4.152742   -1.107359   -0.460858
     60          6           0       -4.705555    0.972542   -1.475816
     61          7           0       -3.434089    1.320719   -1.733829
     62          1           0       -1.540074    0.579269   -1.481637
     63          6           0       -2.596395    0.376144   -1.310793
     64          7           0       -2.863713   -0.786118   -0.706404
     65          1           0       -7.925103    1.260225   -1.413160
     66          6           0       -6.891743    0.927303   -1.311736
     67          7           0       -6.523992   -0.204921   -0.763544
     68          6           0       -5.140170   -0.188804   -0.861080
     69          6           0       -5.892693    3.007257   -2.426963
     70          7           0       -5.842530    1.689444   -1.764503
 ---------------------------------------------------------------------

 SCF Done:  E(RwB97XD) =  -2048.74247547     A.U. after   15 cycles

 The electronic state is 1-A.
 Alpha  occ. eigenvalues --  -19.25706 -19.21899 -19.20870 -14.52448 -14.52320
 Alpha  occ. eigenvalues --  -14.49393 -14.48435 -14.47748 -14.47583 -14.47180
 Alpha  occ. eigenvalues --  -14.47006 -14.45411 -14.44743 -14.44555 -14.42384
 Alpha  occ. eigenvalues --  -14.42093 -14.41668 -14.40544 -14.40228 -14.40100
 Alpha  occ. eigenvalues --  -10.45279 -10.41613 -10.40242 -10.40035 -10.38553
 Alpha  occ. eigenvalues --  -10.37995 -10.37863 -10.37371 -10.36048 -10.35119
 Alpha  occ. eigenvalues --  -10.34905 -10.34873 -10.34038 -10.33780 -10.33050
 Alpha  occ. eigenvalues --  -10.32912 -10.32719 -10.32671 -10.31435 -10.30865
 Alpha  occ. eigenvalues --  -10.30045 -10.28635 -10.27876  -1.19237  -1.15252
 Alpha  occ. eigenvalues --   -1.13566  -1.12962  -1.11108  -1.10401  -1.09726
 Alpha  occ. eigenvalues --   -1.09103  -1.08890  -1.05133  -1.04694  -1.02266
 Alpha  occ. eigenvalues --   -1.01019  -1.00109  -1.00085  -0.98971  -0.97176
 Alpha  occ. eigenvalues --   -0.97155  -0.96041  -0.92399  -0.91013  -0.87752
 Alpha  occ. eigenvalues --   -0.85896  -0.84654  -0.83429  -0.83162  -0.83005
 Alpha  occ. eigenvalues --   -0.81532  -0.78789  -0.77224  -0.75097  -0.75035
 Alpha  occ. eigenvalues --   -0.74011  -0.73225  -0.72337  -0.70636  -0.70474
 Alpha  occ. eigenvalues --   -0.67795  -0.67039  -0.66451  -0.65756  -0.64740
 Alpha  occ. eigenvalues --   -0.64401  -0.63906  -0.62991  -0.62220  -0.62165
 Alpha  occ. eigenvalues --   -0.60734  -0.60378  -0.60044  -0.59486  -0.59334
 Alpha  occ. eigenvalues --   -0.59180  -0.58723  -0.57158  -0.56061  -0.56046
 Alpha  occ. eigenvalues --   -0.55410  -0.55342  -0.55102  -0.54671  -0.54368
 Alpha  occ. eigenvalues --   -0.53874  -0.53788  -0.53706  -0.53367  -0.53005
 Alpha  occ. eigenvalues --   -0.52805  -0.52267  -0.51039  -0.50554  -0.50195
 Alpha  occ. eigenvalues --   -0.49987  -0.49637  -0.49588  -0.49464  -0.49168
 Alpha  occ. eigenvalues --   -0.48612  -0.48322  -0.48289  -0.48089  -0.47476
 Alpha  occ. eigenvalues --   -0.46346  -0.45826  -0.45714  -0.44520  -0.43189
 Alpha  occ. eigenvalues --   -0.40787  -0.40750  -0.39387  -0.38035  -0.37783
 Alpha  occ. eigenvalues --   -0.37709  -0.37660  -0.36485  -0.35720  -0.35052
 Alpha  occ. eigenvalues --   -0.34576  -0.34362  -0.33380  -0.33099  -0.33014
 Alpha  occ. eigenvalues --   -0.32846  -0.32597  -0.32191  -0.31968  -0.30256
 Alpha  occ. eigenvalues --   -0.30058  -0.29960  -0.26010  -0.25302
 Alpha virt. eigenvalues --    0.02925   0.03804   0.06741   0.08342   0.08672
 Alpha virt. eigenvalues --    0.08805   0.09395   0.10411   0.11451   0.11583
 Alpha virt. eigenvalues --    0.13524   0.13875   0.14226   0.15104   0.15138

 Mulliken charges:
               1
     1  N   -0.307694
     2  C    0.182506
     3  C    0.051651
     4  N   -0.249558
     5  C    0.152011
     6  H    0.026772
     7  N   -0.299900
     8  C    0.129147
     9  H    0.008739
    10  N   -0.284873
    11  C    0.245810
    12  C    0.085295
    13  N   -0.068811
    14  H    0.117598
    15  H    0.085689
    16  H    0.021353
    17  H    0.029234
    18  H    0.024594
    19  N   -0.310535
    20  C    0.258128
    21  C    0.181460
    22  N   -0.123951
    23  H    0.118791
    24  H    0.119470
    25  N   -0.312843
    26  C    0.251106
    27  N   -0.149836
    28  H    0.120932
    29  C    0.199974
    30  O   -0.317639
    31  C   -0.017763
    32  N   -0.230406
    33  C    0.120701
    34  H    0.024251
    35  H    0.027019
    36  H    0.031361
    37  H    0.025926
    38  H    0.065274
    39  H    0.058928
    40  H    0.075250
    41  H    0.024331
    42  C   -0.137676
    43  O   -0.268698
    44  C    0.168470
    45  H    0.133441
    46  N   -0.122173
    47  O   -0.352897
    48  C    0.354852
    49  H    0.041481
    50  C    0.186941
    51  C    0.039772
    52  N   -0.278224
    53  H    0.034053
    54  H    0.042739
    55  H    0.029249
    56  H    0.120958
    57  H    0.116546
    58  N   -0.060800
    59  C    0.088610
    60  C    0.238626
    61  N   -0.267189
    62  H    0.034465
    63  C    0.173520
    64  N   -0.313897
    65  H    0.039352
    66  C    0.140076
    67  N   -0.261338
    68  C    0.020386
    69  C    0.180144
    70  N   -0.310281
 Sum of Mulliken charges =  -0.00000

 Dipole moment (field-independent basis, Debye):
    X=             -7.1078    Y=              7.9166    Z=             -0.7212  Tot=             10.6636
 Quadrupole moment (field-independent basis, Debye-Ang):
   XX=           -157.5424   YY=           -222.3940   ZZ=           -250.0772
   XY=             -0.8016   XZ=            -15.5223   YZ=              2.5523

 Normal termination of Gaussian 16 at Mon Jan 22 13:32:17 2018.
