 Gaussian 16, Revision A.03,
 Gaussian 16:  EM64L-G16RevA.03 25-Dec-2016

 ---------------------------------------
 #p wb97xd/cc-pvdz sp scf=(maxcycles=20)
 ---------------------------------------

 ------------------
 Base pair stacking
 ------------------
 Symbolic Z-matrix:
 Charge =  0 Multiplicity = 1

                         Standard orientation:
 ---------------------------------------------------------------------
 Center     Atomic      Atomic             Coordinates (Angstroms)
 Number     Number       Type             X           Y           Z
 ---------------------------------------------------------------------
      1          7           0       -5.850568   -1.831131    0.757105
      2          6           0       -7.220109   -1.421923    1.124417
      3          6           0       -3.660163   -1.972271    0.617454
      4          7           0       -4.166667   -2.947438   -0.229433
      5          6           0       -5.466039   -2.823381   -0.111402
      6          1           0       -6.197805   -3.435262   -0.639670
      7          7           0       -2.187598   -0.578412    1.822288
      8          6           0       -3.277714    0.000830    2.335822
      9          1           0       -3.086639    0.809555    3.039888
     10          7           0       -4.562385   -0.267699    2.111269
     11          6           0       -4.686116   -1.276108    1.232498
     12          6           0       -2.345562   -1.590040    0.940971
     13          7           0       -1.258597   -2.169507    0.427269
     14          1           0       -1.328197   -2.921962   -0.228624
     15          1           0       -0.338150   -1.871415    0.680364
     16          1           0       -7.701706   -2.195911    1.535718
     17          1           0       -7.179134   -0.669169    1.780776
     18          1           0       -7.711387   -1.122399    0.306538
     19          7           0       -3.909854    2.606444   -1.027477
     20          6           0       -2.540763    2.490767   -1.011287
     21          6           0       -4.670537    3.802002   -0.611915
     22          7           0        0.585703    3.856802   -0.362504
     23          1           0        1.542205    3.573662   -0.427113
     24          1           0        0.408022    4.781003   -0.023392
     25          7           0       -1.667418    3.442201   -0.616194
     26          6           0       -0.414433    3.034793   -0.714533
     27          7           0       -0.043016    1.791186   -1.165092
     28          1           0        0.939053    1.565917   -1.206870
     29          6           0       -0.924520    0.796522   -1.576757
     30          8           0       -0.485560   -0.292621   -1.966395
     31          6           0       -2.274334    1.219503   -1.476779
     32          7           0       -3.452442    0.550532   -1.779134
     33          6           0       -4.393836    1.410021   -1.497561
     34          1           0       -5.461637    1.221973   -1.614618
     35          1           0       -5.278576    3.565711    0.145227
     36          1           0       -4.034094    4.513564   -0.317162
     37          1           0       -5.212108    4.138663   -1.381439
     38          1           0        5.930793    0.839171   -0.568808
     39          1           0        5.991206    1.186669   -2.295147
     40          1           0        4.761586    1.948451   -1.285635
     41          1           0        4.460480   -3.373838   -2.367495
     42          6           0        4.067356   -2.374555   -2.180109
     43          8           0        1.796815   -3.028164   -2.391121
     44          6           0        2.651582   -2.166312   -2.187730
     45          1           0        1.267694   -0.679627   -1.936892
     46          7           0        2.260668   -0.865971   -1.939660
     47          8           0        2.635046    1.327290   -1.485079
     48          6           0        3.075622    0.210710   -1.694414
     49          1           0        5.971680   -1.449637   -1.927294
     50          6           0        4.887739   -1.344102   -1.943976
     51          6           0        5.337814    1.049425   -1.446439
     52          7           0        4.427748   -0.070125   -1.703640
     53          1           0        4.821047    2.100932    4.348631
     54          1           0        3.528943    2.653711    3.519771
     55          1           0        5.036494    2.920684    2.953988
     56          1           0        2.221912   -3.211865   -0.132921
     57          1           0        3.880344   -3.036066    0.225976
     58          7           0        2.949529   -2.675416    0.294799
     59          6           0        2.691134   -1.529917    0.929024
     60          6           0        3.255179    0.423371    2.165247
     61          7           0        1.995493    0.883528    2.241971
     62          1           0        0.109813    0.352900    1.639278
     63          6           0        1.156972    0.053730    1.624547
     64          7           0        1.413822   -1.094035    0.988749
     65          1           0        6.453449    0.386639    2.636293
     66          6           0        5.425161    0.166247    2.348210
     67          7           0        5.051768   -0.890527    1.668875
     68          6           0        3.678122   -0.739866    1.545939
     69          6           0        4.448611    2.271117    3.436308
     70          7           0        4.389145    1.004217    2.681692
 ---------------------------------------------------------------------

 SCF Done:  E(RwB97XD) =  -2048.73935391     A.U. after   15 cycles

 The electronic state is 1-A.
 Alpha  occ. eigenvalues --  -19.26078 -19.22578 -19.20817 -14.52521 -14.52063
 Alpha  occ. eigenvalues --  -14.48907 -14.48375 -14.47997 -14.47150 -14.47085
 Alpha  occ. eigenvalues --  -14.46897 -14.45202 -14.43760 -14.43732 -14.42205
 Alpha  occ. eigenvalues --  -14.41728 -14.41027 -14.40882 -14.40580 -14.39886
 Alpha  occ. eigenvalues --  -10.45661 -10.41442 -10.40773 -10.39286 -10.38425
 Alpha  occ. eigenvalues --  -10.37794 -10.37685 -10.36730 -10.35245 -10.35173
 Alpha  occ. eigenvalues --  -10.34981 -10.34497 -10.33606 -10.33591 -10.33475
 Alpha  occ. eigenvalues --  -10.32918 -10.32759 -10.32235 -10.31300 -10.30977
 Alpha  occ. eigenvalues --  -10.30824 -10.28264 -10.28042  -1.19630  -1.14802
 Alpha  occ. eigenvalues --   -1.13778  -1.13393  -1.10904  -1.10741  -1.09471
 Alpha  occ. eigenvalues --   -1.08767  -1.08721  -1.04626  -1.04281  -1.02786
 Alpha  occ. eigenvalues --   -1.00595  -1.00004  -0.99955  -0.98728  -0.96733
 Alpha  occ. eigenvalues --   -0.96572  -0.96257  -0.92280  -0.91265  -0.87204
 Alpha  occ. eigenvalues --   -0.85531  -0.84259  -0.83715  -0.83575  -0.82623
 Alpha  occ. eigenvalues --   -0.81978  -0.79082  -0.76559  -0.74797  -0.74328
 Alpha  occ. eigenvalues --   -0.73856  -0.73627  -0.72497  -0.70664  -0.69951
 Alpha  occ. eigenvalues --   -0.67583  -0.66738  -0.66316  -0.65888  -0.64722
 Alpha  occ. eigenvalues --   -0.64026  -0.63694  -0.62843  -0.62308  -0.61947
 Alpha  occ. eigenvalues --   -0.60480  -0.60072  -0.59960  -0.59561  -0.59037
 Alpha  occ. eigenvalues --   -0.58981  -0.58580  -0.56732  -0.56207  -0.56196
 Alpha  occ. eigenvalues --   -0.56119  -0.55096  -0.54893  -0.54597  -0.54531
 Alpha  occ. eigenvalues --   -0.53860  -0.53656  -0.53243  -0.53153  -0.53128
 Alpha  occ. eigenvalues --   -0.52598  -0.52360  -0.51476  -0.50446  -0.50401
 Alpha  occ. eigenvalues --   -0.49915  -0.49737  -0.49491  -0.49418  -0.49165
 Alpha  occ. eigenvalues --   -0.48577  -0.48484  -0.47919  -0.47733  -0.47612
 Alpha  occ. eigenvalues --   -0.46600  -0.45855  -0.44589  -0.44287  -0.43817
 Alpha  occ. eigenvalues --   -0.40714  -0.40290  -0.39633  -0.37454  -0.37439
 Alpha  occ. eigenvalues --   -0.37347  -0.37012  -0.36752  -0.36378  -0.34461
 Alpha  occ. eigenvalues --   -0.34183  -0.33876  -0.33763  -0.33171  -0.33054
 Alpha  occ. eigenvalues --   -0.32713  -0.32556  -0.32437  -0.32054  -0.30536
 Alpha  occ. eigenvalues --   -0.30077  -0.29098  -0.25687  -0.25169
 Alpha virt. eigenvalues --    0.02549   0.04645   0.07356   0.08263   0.08344
 Alpha virt. eigenvalues --    0.09118   0.09614   0.10847   0.11432   0.12222
 Alpha virt. eigenvalues --    0.13163   0.14307   0.14547   0.14670   0.15535

 Mulliken charges:
               1
     1  N   -0.312598
     2  C    0.180501
     3  C    0.060242
     4  N   -0.255125
     5  C    0.133428
     6  H    0.024545
     7  N   -0.296144
     8  C    0.134004
     9  H    0.009967
    10  N   -0.292665
    11  C    0.238818
    12  C    0.102492
    13  N   -0.046736
    14  H    0.114165
    15  H    0.087695
    16  H    0.025374
    17  H    0.032276
    18  H    0.022203
    19  N   -0.310590
    20  C    0.254797
    21  C    0.180524
    22  N   -0.122255
    23  H    0.115190
    24  H    0.118234
    25  N   -0.310880
    26  C    0.246830
    27  N   -0.150463
    28  H    0.121418
    29  C    0.193158
    30  O   -0.324410
    31  C   -0.013888
    32  N   -0.223752
    33  C    0.132162
    34  H    0.021727
    35  H    0.030874
    36  H    0.029018
    37  H    0.023929
    38  H    0.060120
    39  H    0.059625
    40  H    0.072096
    41  H    0.026412
    42  C   -0.120898
    43  O   -0.277070
    44  C    0.142142
    45  H    0.133612
    46  N   -0.104123
    47  O   -0.343076
    48  C    0.335645
    49  H    0.048615
    50  C    0.183877
    51  C    0.039977
    52  N   -0.278990
    53  H    0.033426
    54  H    0.042170
    55  H    0.025417
    56  H    0.127220
    57  H    0.116538
    58  N   -0.047038
    59  C    0.080866
    60  C    0.249797
    61  N   -0.274059
    62  H    0.036960
    63  C    0.165255
    64  N   -0.303312
    65  H    0.035055
    66  C    0.130830
    67  N   -0.265747
    68  C    0.024449
    69  C    0.180671
    70  N   -0.310527
 Sum of Mulliken charges =  -0.00000

 Dipole moment (field-independent basis, Debye):
    X=              7.5052    Y=              6.7525    Z=              2.3585  Tot=             10.3675
 Quadrupole moment (field-independent basis, Debye-Ang):
   XX=           -149.4963   YY=           -222.6943   ZZ=           -252.7764
   XY=              3.6614   XZ=              3.4036   YZ=              0.3732

 Normal termination of Gaussian 16 at Mon Jan 22 09:36:47 2018.
