 Gaussian 16, Revision A.03,
 Gaussian 16:  EM64L-G16RevA.03 25-Dec-2016

 ---------------------------------------
 #p wb97xd/cc-pvdz sp scf=(maxcycles=20)
 ---------------------------------------

 ------------------
 Base pair stacking
 ------------------
 Symbolic Z-matrix:
 Charge =  0 Multiplicity = 1

                         Standard orientation:
 ---------------------------------------------------------------------
 Center     Atomic      Atomic             Coordinates (Angstroms)
 Number     Number       Type             X           Y           Z
 ---------------------------------------------------------------------
      1          7           0       -7.208202   -1.234874    0.074955
      2          6           0       -8.568016   -0.666569    0.151953
      3          6           0       -5.038174   -1.538708    0.264659
      4          7           0       -5.530478   -2.656417   -0.393445
      5          6           0       -6.818136   -2.428625   -0.481405
      6          1           0       -7.536873   -3.103964   -0.946444
      7          7           0       -3.593343    0.011901    1.299556
      8          6           0       -4.678105    0.763086    1.515362
      9          1           0       -4.496561    1.704392    2.032328
     10          7           0       -5.947513    0.527188    1.189991
     11          6           0       -6.060520   -0.653712    0.559808
     12          6           0       -3.740210   -1.170652    0.663099
     13          7           0       -2.658554   -1.921915    0.446765
     14          1           0       -2.720381   -2.804507   -0.020610
     15          1           0       -1.750043   -1.628304    0.744307
     16          1           0       -9.161961   -1.287887    0.663211
     17          1           0       -8.534548    0.218161    0.615903
     18          1           0       -8.932849   -0.543485   -0.770944
     19          7           0       -2.348801    2.481033   -1.661156
     20          6           0       -1.004406    2.295690   -1.445984
     21          6           0       -3.063962    3.767019   -1.536647
     22          7           0        2.111500    3.577135   -0.602918
     23          1           0        3.045060    3.236065   -0.496236
     24          1           0        1.962589    4.551934   -0.434698
     25          7           0       -0.117994    3.249542   -1.087548
     26          6           0        1.103911    2.764589   -0.955673
     27          7           0        1.434545    1.446669   -1.158836
     28          1           0        2.394907    1.164921   -1.035186
     29          6           0        0.538878    0.447993   -1.528036
     30          8           0        0.940340   -0.711581   -1.686019
     31          6           0       -0.777890    0.953783   -1.673523
     32          7           0       -1.956366    0.309633   -2.024485
     33          6           0       -2.858842    1.252685   -2.004164
     34          1           0       -3.915217    1.106258   -2.232021
     35          1           0       -3.776090    3.688181   -0.839902
     36          1           0       -2.417472    4.481174   -1.271497
     37          1           0       -3.480603    4.004863   -2.413372
     38          1           0        7.202980    0.281240    0.362751
     39          1           0        7.500249    0.344062   -1.372852
     40          1           0        6.216002    1.322925   -0.662986
     41          1           0        5.656070   -4.079787   -0.954449
     42          6           0        5.318117   -3.043641   -0.974834
     43          8           0        3.048427   -3.599040   -1.383674
     44          6           0        3.933338   -2.763170   -1.201854
     45          1           0        2.643194   -1.182962   -1.365623
     46          7           0        3.612442   -1.420695   -1.208217
     47          8           0        4.089824    0.793595   -1.046300
     48          6           0        4.468727   -0.364233   -1.023315
     49          1           0        7.240356   -2.194380   -0.614856
     50          6           0        6.177468   -2.034496   -0.791116
     51          6           0        6.739347    0.379967   -0.607480
     52          7           0        5.787210   -0.715525   -0.810214
     53          1           0        3.292794    2.788585    4.047911
     54          1           0        2.160036    3.203149    2.949238
     55          1           0        3.740574    3.233618    2.542965
     56          1           0        0.754147   -3.278611    0.611371
     57          1           0        2.369426   -3.122966    1.137421
     58          7           0        1.473485   -2.700319    0.996415
     59          6           0        1.249018   -1.422233    1.308334
     60          6           0        1.842325    0.733183    2.123133
     61          7           0        0.629186    1.274160    1.922930
     62          1           0       -1.215115    0.729930    1.213725
     63          6           0       -0.204709    0.372779    1.408135
     64          7           0        0.018204   -0.907794    1.095019
     65          1           0        4.948663    0.616158    3.011456
     66          6           0        3.944541    0.395956    2.647862
     67          7           0        3.557273   -0.768552    2.187827
     68          6           0        2.226237   -0.568504    1.851598
     69          6           0        3.044638    2.756405    3.079729
     70          7           0        2.957475    1.351100    2.637529
 ---------------------------------------------------------------------

 SCF Done:  E(RwB97XD) =  -2048.74809390     A.U. after   15 cycles

 The electronic state is 1-A.
 Alpha  occ. eigenvalues --  -19.26087 -19.22432 -19.20868 -14.52615 -14.51000
 Alpha  occ. eigenvalues --  -14.49249 -14.48838 -14.48095 -14.47254 -14.47176
 Alpha  occ. eigenvalues --  -14.45687 -14.44029 -14.42382 -14.42328 -14.42277
 Alpha  occ. eigenvalues --  -14.42229 -14.41926 -14.41324 -14.40906 -14.40533
 Alpha  occ. eigenvalues --  -10.45706 -10.41533 -10.40475 -10.38498 -10.37935
 Alpha  occ. eigenvalues --  -10.37847 -10.36595 -10.35756 -10.35638 -10.35472
 Alpha  occ. eigenvalues --  -10.34572 -10.34522 -10.33946 -10.33854 -10.33493
 Alpha  occ. eigenvalues --  -10.33365 -10.32909 -10.31350 -10.31214 -10.30900
 Alpha  occ. eigenvalues --  -10.30822 -10.29022 -10.28315  -1.19628  -1.13675
 Alpha  occ. eigenvalues --   -1.13450  -1.13428  -1.11843  -1.10741  -1.09522
 Alpha  occ. eigenvalues --   -1.08894  -1.07189  -1.05371  -1.02798  -1.02697
 Alpha  occ. eigenvalues --   -1.00756  -1.00178  -0.99386  -0.98744  -0.97384
 Alpha  occ. eigenvalues --   -0.96677  -0.94816  -0.92989  -0.91203  -0.86053
 Alpha  occ. eigenvalues --   -0.84528  -0.84381  -0.84252  -0.83940  -0.82738
 Alpha  occ. eigenvalues --   -0.82562  -0.79063  -0.75259  -0.74794  -0.73968
 Alpha  occ. eigenvalues --   -0.73590  -0.73293  -0.72974  -0.71469  -0.68619
 Alpha  occ. eigenvalues --   -0.67670  -0.66760  -0.66673  -0.64960  -0.64662
 Alpha  occ. eigenvalues --   -0.63946  -0.63093  -0.62886  -0.62398  -0.62043
 Alpha  occ. eigenvalues --   -0.60503  -0.59820  -0.59707  -0.58829  -0.58811
 Alpha  occ. eigenvalues --   -0.58492  -0.57908  -0.56845  -0.56786  -0.56681
 Alpha  occ. eigenvalues --   -0.56205  -0.55646  -0.54617  -0.54469  -0.53861
 Alpha  occ. eigenvalues --   -0.53836  -0.53590  -0.53107  -0.52750  -0.52413
 Alpha  occ. eigenvalues --   -0.52152  -0.51951  -0.51248  -0.51179  -0.50556
 Alpha  occ. eigenvalues --   -0.50377  -0.49688  -0.49428  -0.49112  -0.48839
 Alpha  occ. eigenvalues --   -0.48448  -0.48346  -0.47886  -0.47702  -0.47444
 Alpha  occ. eigenvalues --   -0.47347  -0.45496  -0.45076  -0.44223  -0.42960
 Alpha  occ. eigenvalues --   -0.41594  -0.39671  -0.39128  -0.37606  -0.37510
 Alpha  occ. eigenvalues --   -0.37435  -0.36399  -0.35925  -0.35692  -0.34794
 Alpha  occ. eigenvalues --   -0.33976  -0.33928  -0.33577  -0.32998  -0.32842
 Alpha  occ. eigenvalues --   -0.32493  -0.32206  -0.32185  -0.31996  -0.31419
 Alpha  occ. eigenvalues --   -0.30707  -0.28048  -0.26152  -0.25656
 Alpha virt. eigenvalues --    0.02901   0.05609   0.07560   0.08257   0.08636
 Alpha virt. eigenvalues --    0.09271   0.09528   0.10529   0.11307   0.12349
 Alpha virt. eigenvalues --    0.12656   0.13627   0.14447   0.14587   0.16154

 Mulliken charges:
               1
     1  N   -0.310567
     2  C    0.180773
     3  C    0.030163
     4  N   -0.256992
     5  C    0.132289
     6  H    0.027736
     7  N   -0.287006
     8  C    0.126633
     9  H    0.013839
    10  N   -0.288403
    11  C    0.235948
    12  C    0.112274
    13  N   -0.044200
    14  H    0.107994
    15  H    0.089522
    16  H    0.026847
    17  H    0.035455
    18  H    0.025431
    19  N   -0.308563
    20  C    0.246104
    21  C    0.181009
    22  N   -0.124859
    23  H    0.113845
    24  H    0.117972
    25  N   -0.302685
    26  C    0.242618
    27  N   -0.129884
    28  H    0.117462
    29  C    0.163469
    30  O   -0.323769
    31  C   -0.007484
    32  N   -0.223179
    33  C    0.132072
    34  H    0.030403
    35  H    0.032317
    36  H    0.028038
    37  H    0.024179
    38  H    0.058518
    39  H    0.061819
    40  H    0.072207
    41  H    0.031203
    42  C   -0.103381
    43  O   -0.280026
    44  C    0.165366
    45  H    0.136691
    46  N   -0.130509
    47  O   -0.354278
    48  C    0.365465
    49  H    0.048353
    50  C    0.179894
    51  C    0.040805
    52  N   -0.294424
    53  H    0.030777
    54  H    0.041914
    55  H    0.016051
    56  H    0.120871
    57  H    0.117908
    58  N   -0.037581
    59  C    0.106720
    60  C    0.241057
    61  N   -0.266088
    62  H    0.039541
    63  C    0.152655
    64  N   -0.300553
    65  H    0.024888
    66  C    0.128162
    67  N   -0.264442
    68  C    0.014289
    69  C    0.179590
    70  N   -0.310262
 Sum of Mulliken charges =  -0.00000

 Dipole moment (field-independent basis, Debye):
    X=              7.2670    Y=              6.0420    Z=              2.0260  Tot=              9.6653
 Quadrupole moment (field-independent basis, Debye-Ang):
   XX=           -139.7227   YY=           -224.2588   ZZ=           -250.4282
   XY=              9.2828   XZ=             17.2171   YZ=             -4.3459

 Normal termination of Gaussian 16 at Mon Jan 22 09:01:49 2018.
