 Gaussian 16, Revision A.03,
 Gaussian 16:  EM64L-G16RevA.03 25-Dec-2016

 ---------------------------------------
 #p wb97xd/cc-pvdz sp scf=(maxcycles=20)
 ---------------------------------------

 ------------------
 Base pair stacking
 ------------------
 Symbolic Z-matrix:
 Charge =  0 Multiplicity = 1

                         Standard orientation:
 ---------------------------------------------------------------------
 Center     Atomic      Atomic             Coordinates (Angstroms)
 Number     Number       Type             X           Y           Z
 ---------------------------------------------------------------------
      1          7           0       -6.374612   -1.397987    0.644174
      2          6           0       -7.733089   -0.821460    0.631350
      3          6           0       -4.197703   -1.657052    0.821041
      4          7           0       -4.709322   -2.898817    0.473187
      5          6           0       -6.000342   -2.693040    0.380563
      6          1           0       -6.732984   -3.457695    0.120756
      7          7           0       -2.722067    0.091627    1.393361
      8          6           0       -3.801308    0.877962    1.460373
      9          1           0       -3.604716    1.915805    1.725866
     10          7           0       -5.080929    0.576168    1.249648
     11          6           0       -5.212196   -0.721941    0.930095
     12          6           0       -2.887404   -1.209449    1.069396
     13          7           0       -1.811293   -1.995963    1.002001
     14          1           0       -1.886642   -2.965379    0.765844
     15          1           0       -0.893600   -1.643218    1.185172
     16          1           0       -8.304797   -1.296996    1.300077
     17          1           0       -7.686200    0.149344    0.864731
     18          1           0       -8.132650   -0.924651   -0.279523
     19          7           0       -3.353799    2.204284   -1.526391
     20          6           0       -1.995087    2.078297   -1.364896
     21          6           0       -4.132986    3.433354   -1.275477
     22          7           0        1.072710    3.460820   -0.505255
     23          1           0        2.026302    3.165500   -0.453350
     24          1           0        0.876874    4.408692   -0.252453
     25          7           0       -1.150358    3.048333   -0.953188
     26          6           0        0.099591    2.624082   -0.896188
     27          7           0        0.494194    1.347907   -1.217387
     28          1           0        1.471879    1.111743   -1.144394
     29          6           0       -0.357690    0.333628   -1.643286
     30          8           0        0.100504   -0.784658   -1.908297
     31          6           0       -1.703893    0.774352   -1.709488
     32          7           0       -2.856597    0.095385   -2.079856
     33          6           0       -3.807577    0.981116   -1.956044
     34          1           0       -4.861317    0.794285   -2.165780
     35          1           0       -4.816871    3.257869   -0.568144
     36          1           0       -3.517783    4.158915   -0.969961
     37          1           0       -4.590063    3.717945   -2.117443
     38          1           0        6.363455    0.390233    0.040778
     39          1           0        6.600492    0.611015   -1.691189
     40          1           0        5.288909    1.454599   -0.866880
     41          1           0        5.012566   -3.929363   -1.591018
     42          6           0        4.618633   -2.915760   -1.515719
     43          8           0        2.370213   -3.563371   -1.905979
     44          6           0        3.214090   -2.696440   -1.679984
     45          1           0        1.835822   -1.183594   -1.675760
     46          7           0        2.821088   -1.378203   -1.565727
     47          8           0        3.183129    0.838954   -1.233553
     48          6           0        3.624589   -0.293621   -1.317504
     49          1           0        6.502826   -1.991386   -1.140015
     50          6           0        5.427708   -1.878004   -1.272707
     51          6           0        5.863953    0.541349   -0.904593
     52          7           0        4.966344   -0.586023   -1.171156
     53          1           0        4.249605    3.419870    3.125662
     54          1           0        3.074823    3.560396    2.002175
     55          1           0        4.638944    3.483575    1.542068
     56          1           0        1.611092   -3.288395    1.364155
     57          1           0        3.244190   -3.017320    1.776011
     58          7           0        2.341770   -2.637317    1.569984
     59          6           0        2.123494   -1.320685    1.570008
     60          6           0        2.737328    0.965262    1.813704
     61          7           0        1.515206    1.447188    1.533367
     62          1           0       -0.351867    0.755776    1.046977
     63          6           0        0.666631    0.451730    1.284580
     64          7           0        0.883323   -0.867593    1.284066
     65          1           0        5.875150    1.052702    2.587413
     66          6           0        4.859134    0.755570    2.325949
     67          7           0        4.460074   -0.483960    2.177551
     68          6           0        3.116549   -0.365222    1.852627
     69          6           0        3.965630    3.154506    2.204284
     70          7           0        3.868191    1.684310    2.120529
 ---------------------------------------------------------------------

 SCF Done:  E(RwB97XD) =  -2048.74541447     A.U. after   15 cycles

 The electronic state is 1-A.
 Alpha  occ. eigenvalues --  -19.25867 -19.21973 -19.20524 -14.52377 -14.52030
 Alpha  occ. eigenvalues --  -14.49102 -14.48504 -14.47824 -14.47430 -14.46650
 Alpha  occ. eigenvalues --  -14.46265 -14.45060 -14.43608 -14.43427 -14.42570
 Alpha  occ. eigenvalues --  -14.41891 -14.41696 -14.41373 -14.40650 -14.40530
 Alpha  occ. eigenvalues --  -10.45475 -10.40918 -10.40103 -10.39298 -10.38048
 Alpha  occ. eigenvalues --  -10.37729 -10.37591 -10.36650 -10.35761 -10.35288
 Alpha  occ. eigenvalues --  -10.35244 -10.34359 -10.34125 -10.33972 -10.33683
 Alpha  occ. eigenvalues --  -10.33482 -10.33115 -10.31982 -10.31336 -10.31011
 Alpha  occ. eigenvalues --  -10.30459 -10.28825 -10.27888  -1.19450  -1.14723
 Alpha  occ. eigenvalues --   -1.13080  -1.12999  -1.11665  -1.10392  -1.09265
 Alpha  occ. eigenvalues --   -1.08637  -1.08341  -1.05346  -1.04165  -1.02465
 Alpha  occ. eigenvalues --   -1.00797  -1.00554  -0.99481  -0.98392  -0.97284
 Alpha  occ. eigenvalues --   -0.96347  -0.96171  -0.93015  -0.90985  -0.87206
 Alpha  occ. eigenvalues --   -0.85670  -0.84275  -0.83853  -0.83653  -0.82648
 Alpha  occ. eigenvalues --   -0.82191  -0.78807  -0.76522  -0.74421  -0.74299
 Alpha  occ. eigenvalues --   -0.73472  -0.73307  -0.73227  -0.71412  -0.69925
 Alpha  occ. eigenvalues --   -0.67166  -0.66641  -0.66502  -0.66258  -0.64380
 Alpha  occ. eigenvalues --   -0.63801  -0.63597  -0.63044  -0.62600  -0.61504
 Alpha  occ. eigenvalues --   -0.60602  -0.60463  -0.60057  -0.59439  -0.59103
 Alpha  occ. eigenvalues --   -0.58884  -0.58111  -0.56972  -0.56803  -0.56387
 Alpha  occ. eigenvalues --   -0.55930  -0.55731  -0.55069  -0.54657  -0.54291
 Alpha  occ. eigenvalues --   -0.53890  -0.53476  -0.53072  -0.52781  -0.52734
 Alpha  occ. eigenvalues --   -0.52468  -0.52260  -0.52096  -0.51121  -0.50542
 Alpha  occ. eigenvalues --   -0.49983  -0.49560  -0.49392  -0.48933  -0.48825
 Alpha  occ. eigenvalues --   -0.48662  -0.48245  -0.48046  -0.47502  -0.47287
 Alpha  occ. eigenvalues --   -0.47278  -0.45529  -0.45169  -0.44082  -0.43851
 Alpha  occ. eigenvalues --   -0.41529  -0.40397  -0.39440  -0.37558  -0.37404
 Alpha  occ. eigenvalues --   -0.37240  -0.37123  -0.36741  -0.35858  -0.34355
 Alpha  occ. eigenvalues --   -0.33973  -0.33896  -0.33718  -0.33172  -0.33107
 Alpha  occ. eigenvalues --   -0.32556  -0.32205  -0.31896  -0.31717  -0.31290
 Alpha  occ. eigenvalues --   -0.30759  -0.29234  -0.26063  -0.25147
 Alpha virt. eigenvalues --    0.03068   0.04647   0.07342   0.07693   0.08754
 Alpha virt. eigenvalues --    0.09350   0.09866   0.10595   0.10887   0.11269
 Alpha virt. eigenvalues --    0.13019   0.13930   0.14379   0.14710   0.14869

 Mulliken charges:
               1
     1  N   -0.312353
     2  C    0.180287
     3  C    0.054725
     4  N   -0.258762
     5  C    0.133920
     6  H    0.027324
     7  N   -0.282999
     8  C    0.132320
     9  H    0.012374
    10  N   -0.290553
    11  C    0.233406
    12  C    0.110105
    13  N   -0.050050
    14  H    0.109288
    15  H    0.088781
    16  H    0.026780
    17  H    0.032426
    18  H    0.025716
    19  N   -0.300977
    20  C    0.247844
    21  C    0.178714
    22  N   -0.094123
    23  H    0.110872
    24  H    0.112968
    25  N   -0.301436
    26  C    0.217977
    27  N   -0.135204
    28  H    0.120331
    29  C    0.155470
    30  O   -0.321962
    31  C    0.010902
    32  N   -0.223851
    33  C    0.124874
    34  H    0.021792
    35  H    0.029860
    36  H    0.026463
    37  H    0.022466
    38  H    0.057176
    39  H    0.061428
    40  H    0.068808
    41  H    0.029020
    42  C   -0.116769
    43  O   -0.268301
    44  C    0.172179
    45  H    0.134179
    46  N   -0.127820
    47  O   -0.344498
    48  C    0.349665
    49  H    0.047279
    50  C    0.180101
    51  C    0.041837
    52  N   -0.284998
    53  H    0.035723
    54  H    0.033973
    55  H    0.023694
    56  H    0.124995
    57  H    0.117021
    58  N   -0.060859
    59  C    0.107156
    60  C    0.247843
    61  N   -0.279684
    62  H    0.036451
    63  C    0.170356
    64  N   -0.301883
    65  H    0.034347
    66  C    0.117880
    67  N   -0.256650
    68  C    0.002939
    69  C    0.177652
    70  N   -0.305961
 Sum of Mulliken charges =  -0.00000

 Dipole moment (field-independent basis, Debye):
    X=              6.9172    Y=              6.1526    Z=              3.0962  Tot=              9.7616
 Quadrupole moment (field-independent basis, Debye-Ang):
   XX=           -145.9782   YY=           -224.5199   ZZ=           -255.9221
   XY=              7.7878   XZ=              7.6282   YZ=             -9.0191

 Normal termination of Gaussian 16 at Mon Jan 22 14:54:59 2018.
