 Gaussian 16, Revision A.03,
 Gaussian 16:  EM64L-G16RevA.03 25-Dec-2016

 ---------------------------------------
 #p wb97xd/cc-pvdz sp scf=(maxcycles=20)
 ---------------------------------------

 ------------------
 Base pair stacking
 ------------------
 Symbolic Z-matrix:
 Charge =  0 Multiplicity = 1

                         Standard orientation:
 ---------------------------------------------------------------------
 Center     Atomic      Atomic             Coordinates (Angstroms)
 Number     Number       Type             X           Y           Z
 ---------------------------------------------------------------------
      1          7           0       -6.388315   -1.422038    0.624453
      2          6           0       -7.749770   -0.853756    0.663387
      3          6           0       -4.208881   -1.681131    0.766638
      4          7           0       -4.716726   -2.896948    0.332347
      5          6           0       -6.009434   -2.692198    0.264070
      6          1           0       -6.740062   -3.439875   -0.045919
      7          7           0       -2.737971    0.029207    1.455174
      8          6           0       -3.820676    0.802458    1.587145
      9          1           0       -3.627405    1.819172    1.926558
     10          7           0       -5.100266    0.509724    1.363836
     11          6           0       -5.227278   -0.762223    0.950985
     12          6           0       -2.899070   -1.245559    1.037949
     13          7           0       -1.819506   -2.018987    0.905597
     14          1           0       -1.891667   -2.968923    0.599602
     15          1           0       -0.902293   -1.675453    1.107695
     16          1           0       -8.314105   -1.380170    1.299459
     17          1           0       -7.706103    0.097607    0.966914
     18          1           0       -8.155512   -0.892218   -0.249792
     19          7           0       -3.331216    2.274942   -1.524595
     20          6           0       -1.972030    2.143262   -1.371866
     21          6           0       -4.102131    3.510317   -1.279147
     22          7           0        1.109144    3.517274   -0.547124
     23          1           0        2.061536    3.217422   -0.499499
     24          1           0        0.920102    4.468407   -0.301490
     25          7           0       -1.119268    3.112496   -0.975104
     26          6           0        0.128840    2.682194   -0.923365
     27          7           0        0.514432    1.401109   -1.235875
     28          1           0        1.491386    1.160468   -1.167859
     29          6           0       -0.345826    0.387538   -1.646361
     30          8           0        0.104592   -0.735483   -1.904568
     31          6           0       -1.690161    0.834745   -1.706740
     32          7           0       -2.849066    0.158548   -2.062553
     33          6           0       -3.794490    1.050365   -1.939843
     34          1           0       -4.850701    0.867206   -2.140208
     35          1           0       -4.781716    3.344821   -0.565298
     36          1           0       -3.480934    4.235351   -0.984695
     37          1           0       -4.563878    3.789707   -2.120296
     38          1           0        6.387685    0.423892   -0.011859
     39          1           0        6.613176    0.627802   -1.747436
     40          1           0        5.312081    1.485687   -0.921261
     41          1           0        5.002409   -3.903052   -1.594607
     42          6           0        4.614325   -2.886754   -1.525622
     43          8           0        2.359758   -3.525999   -1.893632
     44          6           0        3.209774   -2.661516   -1.681636
     45          1           0        1.839468   -1.141454   -1.681066
     46          7           0        2.824486   -1.340249   -1.576453
     47          8           0        3.200488    0.877866   -1.267000
     48          6           0        3.635423   -0.257729   -1.343921
     49          1           0        6.506009   -1.968971   -1.172033
     50          6           0        5.430542   -1.851122   -1.297905
     51          6           0        5.882073    0.569113   -0.954896
     52          7           0        4.976664   -0.555876   -1.204696
     53          1           0        4.229297    3.260779    3.377825
     54          1           0        3.045543    3.476570    2.275888
     55          1           0        4.606601    3.442416    1.800469
     56          1           0        1.611992   -3.315238    1.148177
     57          1           0        3.246683   -3.065885    1.567358
     58          7           0        2.340840   -2.676888    1.396033
     59          6           0        2.115886   -1.365026    1.494020
     60          6           0        2.719871    0.900353    1.900208
     61          7           0        1.493277    1.394633    1.664471
     62          1           0       -0.373807    0.730228    1.141803
     63          6           0        0.647970    0.415319    1.349374
     64          7           0        0.871348   -0.899189    1.250707
     65          1           0        5.862837    0.948522    2.656278
     66          6           0        4.846443    0.665627    2.380865
     67          7           0        4.452599   -0.561922    2.144868
     68          6           0        3.106126   -0.427273    1.838917
     69          6           0        3.939872    3.061983    2.441497
     70          7           0        3.849297    1.601335    2.250967
 ---------------------------------------------------------------------

 SCF Done:  E(RwB97XD) =  -2048.74974540     A.U. after   15 cycles

 The electronic state is 1-A.
 Alpha  occ. eigenvalues --  -19.25907 -19.22045 -19.20575 -14.52408 -14.51962
 Alpha  occ. eigenvalues --  -14.49025 -14.48578 -14.47855 -14.47266 -14.46763
 Alpha  occ. eigenvalues --  -14.46468 -14.45012 -14.43517 -14.43472 -14.42434
 Alpha  occ. eigenvalues --  -14.41946 -14.41614 -14.41264 -14.40703 -14.40437
 Alpha  occ. eigenvalues --  -10.45514 -10.41044 -10.40178 -10.39193 -10.38121
 Alpha  occ. eigenvalues --  -10.37785 -10.37535 -10.36582 -10.35652 -10.35312
 Alpha  occ. eigenvalues --  -10.35159 -10.34282 -10.34198 -10.33817 -10.33594
 Alpha  occ. eigenvalues --  -10.33382 -10.33167 -10.31945 -10.31274 -10.31050
 Alpha  occ. eigenvalues --  -10.30551 -10.28736 -10.27960  -1.19475  -1.14654
 Alpha  occ. eigenvalues --   -1.13129  -1.13072  -1.11585  -1.10447  -1.09297
 Alpha  occ. eigenvalues --   -1.08537  -1.08420  -1.05244  -1.04065  -1.02510
 Alpha  occ. eigenvalues --   -1.00683  -1.00466  -0.99596  -0.98445  -0.97197
 Alpha  occ. eigenvalues --   -0.96404  -0.96082  -0.92907  -0.91027  -0.87111
 Alpha  occ. eigenvalues --   -0.85553  -0.84193  -0.83926  -0.83678  -0.82568
 Alpha  occ. eigenvalues --   -0.82267  -0.78848  -0.76422  -0.74480  -0.74192
 Alpha  occ. eigenvalues --   -0.73548  -0.73355  -0.73133  -0.71311  -0.69810
 Alpha  occ. eigenvalues --   -0.67249  -0.66543  -0.66538  -0.66148  -0.64424
 Alpha  occ. eigenvalues --   -0.63680  -0.63649  -0.62941  -0.62619  -0.61597
 Alpha  occ. eigenvalues --   -0.60499  -0.60344  -0.59936  -0.59471  -0.58995
 Alpha  occ. eigenvalues --   -0.58885  -0.58217  -0.56847  -0.56734  -0.56385
 Alpha  occ. eigenvalues --   -0.55968  -0.55647  -0.54939  -0.54597  -0.54338
 Alpha  occ. eigenvalues --   -0.53756  -0.53541  -0.53023  -0.52808  -0.52795
 Alpha  occ. eigenvalues --   -0.52497  -0.52220  -0.52018  -0.51040  -0.50459
 Alpha  occ. eigenvalues --   -0.50050  -0.49511  -0.49440  -0.48912  -0.48884
 Alpha  occ. eigenvalues --   -0.48738  -0.48252  -0.48048  -0.47531  -0.47342
 Alpha  occ. eigenvalues --   -0.47199  -0.45517  -0.45139  -0.44105  -0.43863
 Alpha  occ. eigenvalues --   -0.41434  -0.40246  -0.39466  -0.37449  -0.37306
 Alpha  occ. eigenvalues --   -0.37177  -0.37124  -0.36790  -0.35912  -0.34290
 Alpha  occ. eigenvalues --   -0.33959  -0.33802  -0.33632  -0.33347  -0.33217
 Alpha  occ. eigenvalues --   -0.32607  -0.32251  -0.31957  -0.31764  -0.31200
 Alpha  occ. eigenvalues --   -0.30663  -0.29226  -0.25966  -0.25265
 Alpha virt. eigenvalues --    0.02994   0.04732   0.07393   0.07793   0.08773
 Alpha virt. eigenvalues --    0.09268   0.09803   0.10695   0.10912   0.11286
 Alpha virt. eigenvalues --    0.12988   0.14003   0.14477   0.14690   0.14949

 Mulliken charges:
               1
     1  N   -0.312172
     2  C    0.180327
     3  C    0.053591
     4  N   -0.258168
     5  C    0.133400
     6  H    0.026993
     7  N   -0.285588
     8  C    0.131971
     9  H    0.012072
    10  N   -0.291232
    11  C    0.233414
    12  C    0.110580
    13  N   -0.049205
    14  H    0.109794
    15  H    0.089401
    16  H    0.026626
    17  H    0.032711
    18  H    0.025221
    19  N   -0.304705
    20  C    0.251233
    21  C    0.179366
    22  N   -0.104004
    23  H    0.111416
    24  H    0.114287
    25  N   -0.303855
    26  C    0.227925
    27  N   -0.136388
    28  H    0.118411
    29  C    0.160209
    30  O   -0.322139
    31  C    0.006388
    32  N   -0.224392
    33  C    0.126550
    34  H    0.022840
    35  H    0.030872
    36  H    0.026934
    37  H    0.022593
    38  H    0.057074
    39  H    0.061463
    40  H    0.069743
    41  H    0.028695
    42  C   -0.117558
    43  O   -0.270258
    44  C    0.169149
    45  H    0.134888
    46  N   -0.126550
    47  O   -0.345550
    48  C    0.349708
    49  H    0.047551
    50  C    0.181949
    51  C    0.041089
    52  N   -0.284739
    53  H    0.034946
    54  H    0.036783
    55  H    0.023261
    56  H    0.125989
    57  H    0.116474
    58  N   -0.058259
    59  C    0.104717
    60  C    0.247103
    61  N   -0.275652
    62  H    0.037569
    63  C    0.167636
    64  N   -0.301391
    65  H    0.033818
    66  C    0.121469
    67  N   -0.258049
    68  C    0.003881
    69  C    0.177807
    70  N   -0.308032
 Sum of Mulliken charges =  -0.00000

 Dipole moment (field-independent basis, Debye):
    X=              7.0397    Y=              6.2112    Z=              2.8519  Tot=              9.8118
 Quadrupole moment (field-independent basis, Debye-Ang):
   XX=           -145.9377   YY=           -223.9448   ZZ=           -255.3188
   XY=              7.3830   XZ=              8.1134   YZ=             -7.6764

 Normal termination of Gaussian 16 at Sun Jan 21 23:15:32 2018.
