 Gaussian 16, Revision A.03,
 Gaussian 16:  EM64L-G16RevA.03 25-Dec-2016

 ---------------------------------------
 #p wb97xd/cc-pvdz sp scf=(maxcycles=20)
 ---------------------------------------

 ------------------
 Base pair stacking
 ------------------
 Symbolic Z-matrix:
 Charge =  0 Multiplicity = 1

                         Standard orientation:
 ---------------------------------------------------------------------
 Center     Atomic      Atomic             Coordinates (Angstroms)
 Number     Number       Type             X           Y           Z
 ---------------------------------------------------------------------
      1          7           0       -6.672767   -1.364372    0.424375
      2          6           0       -8.032466   -0.792733    0.473981
      3          6           0       -4.497258   -1.642566    0.588922
      4          7           0       -5.001978   -2.826983    0.072045
      5          6           0       -6.292446   -2.611972   -0.006399
      6          1           0       -7.020308   -3.335625   -0.374483
      7          7           0       -3.032277    0.015062    1.406854
      8          6           0       -4.114149    0.784190    1.566782
      9          1           0       -3.923032    1.777250    1.971226
     10          7           0       -5.390653    0.512067    1.303375
     11          6           0       -5.515203   -0.731581    0.811197
     12          6           0       -3.190837   -1.230970    0.909515
     13          7           0       -2.112101   -2.000230    0.749140
     14          1           0       -2.182469   -2.929290    0.384279
     15          1           0       -1.197322   -1.674295    0.988086
     16          1           0       -8.610186   -1.354254    1.066535
     17          1           0       -7.990540    0.138040    0.835957
     18          1           0       -8.421907   -0.773225   -0.446865
     19          7           0       -2.995024    2.359349   -1.587711
     20          6           0       -1.640956    2.208625   -1.409278
     21          6           0       -3.749121    3.612066   -1.380990
     22          7           0        1.448674    3.548947   -0.561055
     23          1           0        2.394998    3.234577   -0.491101
     24          1           0        1.271531    4.507990   -0.338396
     25          7           0       -0.778785    3.171868   -1.018269
     26          6           0        0.460914    2.722336   -0.936500
     27          7           0        0.830135    1.428830   -1.215845
     28          1           0        1.801652    1.173690   -1.126318
     29          6           0       -0.040046    0.421117   -1.619792
     30          8           0        0.395731   -0.714317   -1.847022
     31          6           0       -1.375520    0.888935   -1.712181
     32          7           0       -2.539511    0.224512   -2.073510
     33          6           0       -3.471776    1.134093   -1.985326
     34          1           0       -4.527435    0.964112   -2.199719
     35          1           0       -4.443132    3.472738   -0.675488
     36          1           0       -3.120845    4.332837   -1.091117
     37          1           0       -4.192095    3.881285   -2.235453
     38          1           0        6.665078    0.381346    0.127491
     39          1           0        6.922717    0.545082   -1.607861
     40          1           0        5.622630    1.441324   -0.821792
     41          1           0        5.234008   -3.954551   -1.388628
     42          6           0        4.861904   -2.930801   -1.347273
     43          8           0        2.603373   -3.540577   -1.740127
     44          6           0        3.464099   -2.685896   -1.531691
     45          1           0        2.119616   -1.143889   -1.585806
     46          7           0        3.099301   -1.356574   -1.460420
     47          8           0        3.507196    0.861092   -1.190616
     48          6           0        3.924274   -0.282852   -1.236631
     49          1           0        6.762548   -2.036947   -0.980742
     50          6           0        5.691454   -1.904146   -1.127231
     51          6           0        6.177681    0.515028   -0.826785
     52          7           0        5.257841   -0.599962   -1.068560
     53          1           0        3.911922    3.088072    3.646734
     54          1           0        2.748998    3.376803    2.539338
     55          1           0        4.318188    3.364002    2.090377
     56          1           0        1.309401   -3.326021    0.972454
     57          1           0        2.937268   -3.110964    1.434950
     58          7           0        2.036169   -2.707684    1.271800
     59          6           0        1.814617   -1.403181    1.445986
     60          6           0        2.420063    0.830052    2.000822
     61          7           0        1.199839    1.343965    1.774168
     62          1           0       -0.660149    0.722120    1.178854
     63          6           0        0.356493    0.389994    1.384772
     64          7           0        0.576477   -0.917119    1.209710
     65          1           0        5.549107    0.816161    2.813863
     66          6           0        4.536722    0.555733    2.503701
     67          7           0        4.142396   -0.653095    2.186013
     68          6           0        2.802167   -0.493245    1.865137
     69          6           0        3.638580    2.948395    2.695019
     70          7           0        3.545727    1.502607    2.413776
 ---------------------------------------------------------------------

 SCF Done:  E(RwB97XD) =  -2048.74861373     A.U. after   15 cycles

 The electronic state is 1-A.
 Alpha  occ. eigenvalues --  -19.25996 -19.22152 -19.20665 -14.52482 -14.51646
 Alpha  occ. eigenvalues --  -14.49106 -14.48675 -14.47972 -14.46881 -14.46771
 Alpha  occ. eigenvalues --  -14.46740 -14.44704 -14.43096 -14.43085 -14.42361
 Alpha  occ. eigenvalues --  -14.42076 -14.41723 -14.41278 -14.40761 -14.40435
 Alpha  occ. eigenvalues --  -10.45598 -10.41225 -10.40273 -10.38736 -10.38244
 Alpha  occ. eigenvalues --  -10.37857 -10.37249 -10.36204 -10.35669 -10.35475
 Alpha  occ. eigenvalues --  -10.34733 -10.34385 -10.34340 -10.33688 -10.33534
 Alpha  occ. eigenvalues --  -10.33414 -10.33209 -10.31617 -10.31297 -10.31111
 Alpha  occ. eigenvalues --  -10.30656 -10.28833 -10.28102  -1.19544  -1.14322
 Alpha  occ. eigenvalues --   -1.13243  -1.13183  -1.11678  -1.10541  -1.09377
 Alpha  occ. eigenvalues --   -1.08589  -1.08078  -1.05265  -1.03635  -1.02609
 Alpha  occ. eigenvalues --   -1.00689  -1.00130  -0.99806  -0.98547  -0.97257
 Alpha  occ. eigenvalues --   -0.96496  -0.95668  -0.92911  -0.91103  -0.86763
 Alpha  occ. eigenvalues --   -0.85224  -0.84259  -0.84052  -0.83792  -0.82621
 Alpha  occ. eigenvalues --   -0.82377  -0.78937  -0.76042  -0.74598  -0.73786
 Alpha  occ. eigenvalues --   -0.73697  -0.73457  -0.73175  -0.71356  -0.69425
 Alpha  occ. eigenvalues --   -0.67404  -0.66631  -0.66576  -0.65766  -0.64523
 Alpha  occ. eigenvalues --   -0.63771  -0.63303  -0.62929  -0.62702  -0.61756
 Alpha  occ. eigenvalues --   -0.60478  -0.60073  -0.59615  -0.59528  -0.58872
 Alpha  occ. eigenvalues --   -0.58646  -0.58411  -0.56821  -0.56767  -0.56503
 Alpha  occ. eigenvalues --   -0.56064  -0.55628  -0.54722  -0.54507  -0.54429
 Alpha  occ. eigenvalues --   -0.53652  -0.53589  -0.52935  -0.52875  -0.52610
 Alpha  occ. eigenvalues --   -0.52535  -0.52045  -0.51918  -0.51089  -0.50485
 Alpha  occ. eigenvalues --   -0.50159  -0.49543  -0.49431  -0.49025  -0.48841
 Alpha  occ. eigenvalues --   -0.48706  -0.48281  -0.47936  -0.47621  -0.47446
 Alpha  occ. eigenvalues --   -0.47252  -0.45494  -0.45265  -0.44106  -0.43522
 Alpha  occ. eigenvalues --   -0.41488  -0.39864  -0.39550  -0.37487  -0.37304
 Alpha  occ. eigenvalues --   -0.37243  -0.36720  -0.36554  -0.35962  -0.34233
 Alpha  occ. eigenvalues --   -0.33964  -0.33767  -0.33546  -0.33350  -0.33099
 Alpha  occ. eigenvalues --   -0.32710  -0.32294  -0.32079  -0.31838  -0.31258
 Alpha  occ. eigenvalues --   -0.30665  -0.28791  -0.26055  -0.25448
 Alpha virt. eigenvalues --    0.02952   0.04961   0.07664   0.07782   0.08864
 Alpha virt. eigenvalues --    0.09112   0.09628   0.10636   0.11000   0.11525
 Alpha virt. eigenvalues --    0.12859   0.13835   0.14462   0.14670   0.15198

 Mulliken charges:
               1
     1  N   -0.311593
     2  C    0.180476
     3  C    0.045217
     4  N   -0.257301
     5  C    0.132580
     6  H    0.027220
     7  N   -0.285775
     8  C    0.128558
     9  H    0.012654
    10  N   -0.290961
    11  C    0.232867
    12  C    0.113259
    13  N   -0.048536
    14  H    0.109380
    15  H    0.089688
    16  H    0.026687
    17  H    0.033865
    18  H    0.025234
    19  N   -0.307776
    20  C    0.248333
    21  C    0.180017
    22  N   -0.112256
    23  H    0.111743
    24  H    0.115952
    25  N   -0.302658
    26  C    0.234214
    27  N   -0.129802
    28  H    0.115993
    29  C    0.154019
    30  O   -0.320775
    31  C    0.007599
    32  N   -0.224112
    33  C    0.126949
    34  H    0.026629
    35  H    0.031736
    36  H    0.027364
    37  H    0.023193
    38  H    0.057254
    39  H    0.062088
    40  H    0.070878
    41  H    0.029561
    42  C   -0.114495
    43  O   -0.273473
    44  C    0.165394
    45  H    0.137186
    46  N   -0.128798
    47  O   -0.349997
    48  C    0.355172
    49  H    0.047898
    50  C    0.183990
    51  C    0.040321
    52  N   -0.287116
    53  H    0.034016
    54  H    0.038056
    55  H    0.021717
    56  H    0.125605
    57  H    0.116392
    58  N   -0.052755
    59  C    0.107103
    60  C    0.239474
    61  N   -0.269514
    62  H    0.042004
    63  C    0.165108
    64  N   -0.300584
    65  H    0.030518
    66  C    0.125053
    67  N   -0.260353
    68  C    0.005722
    69  C    0.176727
    70  N   -0.310032
 Sum of Mulliken charges =  -0.00000

 Dipole moment (field-independent basis, Debye):
    X=              7.0852    Y=              6.1445    Z=              2.6231  Tot=              9.7384
 Quadrupole moment (field-independent basis, Debye-Ang):
   XX=           -143.9716   YY=           -223.8918   ZZ=           -253.9219
   XY=              8.0605   XZ=             11.6031   YZ=             -6.4665

 Normal termination of Gaussian 16 at Mon Jan 22 16:05:23 2018.
