 Gaussian 16, Revision A.03,
 Gaussian 16:  EM64L-G16RevA.03 25-Dec-2016

 ---------------------------------------
 #p wb97xd/cc-pvdz sp scf=(maxcycles=20)
 ---------------------------------------

 ------------------
 Base pair stacking
 ------------------
 Symbolic Z-matrix:
 Charge =  0 Multiplicity = 1

                         Standard orientation:
 ---------------------------------------------------------------------
 Center     Atomic      Atomic             Coordinates (Angstroms)
 Number     Number       Type             X           Y           Z
 ---------------------------------------------------------------------
      1          7           0        6.069215   -1.402862   -0.856003
      2          6           0        7.428059   -0.832158   -0.779653
      3          6           0        3.890367   -1.637531   -1.042733
      4          7           0        4.405084   -2.914593   -0.872654
      5          6           0        5.697158   -2.722101   -0.766962
      6          1           0        6.432169   -3.514285   -0.621602
      7          7           0        2.409504    0.171344   -1.355714
      8          6           0        3.488379    0.960510   -1.326865
      9          1           0        3.289457    2.024640   -1.446532
     10          7           0        4.770051    0.634078   -1.173116
     11          6           0        4.904104   -0.695315   -1.034595
     12          6           0        2.577674   -1.161550   -1.213595
     13          7           0        1.501937   -1.950951   -1.242124
     14          1           0        1.579348   -2.943414   -1.140884
     15          1           0        0.582491   -1.577441   -1.365591
     16          1           0        7.992179   -1.211736   -1.513041
     17          1           0        7.379147    0.161335   -0.878255
     18          1           0        7.837485   -1.057923    0.104312
     19          7           0        3.706236    2.051480    1.430556
     20          6           0        2.343550    1.945017    1.289896
     21          6           0        4.503375    3.258616    1.133737
     22          7           0       -0.710666    3.356143    0.428363
     23          1           0       -1.669850    3.076454    0.397156
     24          1           0       -0.501670    4.292569    0.145261
     25          7           0        1.510533    2.917459    0.860361
     26          6           0        0.252749    2.514027    0.831579
     27          7           0       -0.159797    1.255028    1.195221
     28          1           0       -1.142315    1.034278    1.141489
     29          6           0        0.679785    0.238658    1.640152
     30          8           0        0.205672   -0.863057    1.943765
     31          6           0        2.034202    0.657118    1.676435
     32          7           0        3.179638   -0.031125    2.052199
     33          6           0        4.144207    0.833541    1.890397
     34          1           0        5.197186    0.634204    2.092329
     35          1           0        5.174803    3.050356    0.423376
     36          1           0        3.896965    3.985757    0.814681
     37          1           0        4.976293    3.559550    1.961142
     38          1           0       -6.060772    0.365521    0.039535
     39          1           0       -6.271293    0.641118    1.767066
     40          1           0       -4.956098    1.436732    0.901849
     41          1           0       -4.764137   -3.927788    1.781022
     42          6           0       -4.353636   -2.924006    1.670917
     43          8           0       -2.111934   -3.599812    2.051905
     44          6           0       -2.943462   -2.724984    1.811017
     45          1           0       -1.539225   -1.237678    1.744876
     46          7           0       -2.529073   -1.417865    1.652990
     47          8           0       -2.856748    0.794706    1.260093
     48          6           0       -3.316740   -0.326889    1.382961
     49          1           0       -6.226191   -1.977637    1.291752
     50          6           0       -5.147611   -1.879564    1.407537
     51          6           0       -5.546416    0.535351    0.973706
     52          7           0       -4.665172   -0.599541    1.262138
     53          1           0       -4.578881    3.697668   -2.543038
     54          1           0       -3.391825    3.685151   -1.423734
     55          1           0       -4.950864    3.544961   -0.961355
     56          1           0       -1.924896   -3.185353   -1.739440
     57          1           0       -3.562240   -2.862329   -2.092768
     58          7           0       -2.657423   -2.513029   -1.846807
     59          6           0       -2.438458   -1.208419   -1.670067
     60          6           0       -3.053686    1.088839   -1.593790
     61          7           0       -1.828320    1.529309   -1.263821
     62          1           0        0.043586    0.779933   -0.896385
     63          6           0       -0.977618    0.510068   -1.162041
     64          7           0       -1.194986   -0.797272   -1.338666
     65          1           0       -6.199722    1.277730   -2.314176
     66          6           0       -5.181073    0.948758   -2.106654
     67          7           0       -4.781086   -0.299047   -2.132631
     68          6           0       -3.434020   -0.224347   -1.809231
     69          6           0       -4.284997    3.309692   -1.669484
     70          7           0       -4.187444    1.841861   -1.787596
 ---------------------------------------------------------------------

 SCF Done:  E(RwB97XD) =  -2048.73192872     A.U. after   15 cycles

 The electronic state is 1-A.
 Alpha  occ. eigenvalues --  -19.25627 -19.21744 -19.20366 -14.52477 -14.52207
 Alpha  occ. eigenvalues --  -14.49093 -14.48181 -14.48051 -14.47612 -14.46413
 Alpha  occ. eigenvalues --  -14.45637 -14.45449 -14.44114 -14.43858 -14.42780
 Alpha  occ. eigenvalues --  -14.41679 -14.41636 -14.41427 -14.40618 -14.40512
 Alpha  occ. eigenvalues --  -10.45233 -10.40655 -10.39869 -10.39840 -10.37987
 Alpha  occ. eigenvalues --  -10.37856 -10.37549 -10.37107 -10.35840 -10.35496
 Alpha  occ. eigenvalues --  -10.34929 -10.34400 -10.34334 -10.33808 -10.33687
 Alpha  occ. eigenvalues --  -10.33501 -10.32950 -10.32473 -10.31384 -10.30850
 Alpha  occ. eigenvalues --  -10.30187 -10.28802 -10.27611  -1.19302  -1.15198
 Alpha  occ. eigenvalues --   -1.12911  -1.12778  -1.11652  -1.10201  -1.09219
 Alpha  occ. eigenvalues --   -1.09033  -1.08134  -1.05441  -1.04684  -1.02260
 Alpha  occ. eigenvalues --   -1.01030  -1.00910  -0.99130  -0.98229  -0.97318
 Alpha  occ. eigenvalues --   -0.96671  -0.96140  -0.93137  -0.90811  -0.87698
 Alpha  occ. eigenvalues --   -0.86130  -0.84300  -0.83612  -0.83459  -0.82681
 Alpha  occ. eigenvalues --   -0.81955  -0.78631  -0.77020  -0.74911  -0.74170
 Alpha  occ. eigenvalues --   -0.73290  -0.73241  -0.73090  -0.71479  -0.70437
 Alpha  occ. eigenvalues --   -0.66944  -0.66772  -0.66717  -0.66283  -0.64352
 Alpha  occ. eigenvalues --   -0.64186  -0.63408  -0.63143  -0.62535  -0.61234
 Alpha  occ. eigenvalues --   -0.60929  -0.60767  -0.60608  -0.59566  -0.59273
 Alpha  occ. eigenvalues --   -0.58775  -0.57851  -0.57195  -0.56844  -0.56336
 Alpha  occ. eigenvalues --   -0.55840  -0.55797  -0.55416  -0.54656  -0.54231
 Alpha  occ. eigenvalues --   -0.54067  -0.53476  -0.53244  -0.53104  -0.52543
 Alpha  occ. eigenvalues --   -0.52465  -0.52282  -0.52162  -0.51188  -0.50550
 Alpha  occ. eigenvalues --   -0.49779  -0.49653  -0.49229  -0.49109  -0.48651
 Alpha  occ. eigenvalues --   -0.48436  -0.48385  -0.47970  -0.47333  -0.47103
 Alpha  occ. eigenvalues --   -0.47078  -0.45515  -0.44989  -0.44431  -0.43583
 Alpha  occ. eigenvalues --   -0.41414  -0.40933  -0.39340  -0.37789  -0.37700
 Alpha  occ. eigenvalues --   -0.37623  -0.36935  -0.36850  -0.35952  -0.34458
 Alpha  occ. eigenvalues --   -0.34302  -0.33918  -0.33810  -0.32930  -0.32716
 Alpha  occ. eigenvalues --   -0.32391  -0.32233  -0.31840  -0.31574  -0.31212
 Alpha  occ. eigenvalues --   -0.30832  -0.29590  -0.26033  -0.24680
 Alpha virt. eigenvalues --    0.03265   0.04039   0.07057   0.07401   0.08684
 Alpha virt. eigenvalues --    0.09301   0.09945   0.10693   0.10930   0.11664
 Alpha virt. eigenvalues --    0.13036   0.13925   0.14007   0.14829   0.15014

 Mulliken charges:
               1
     1  N   -0.313880
     2  C    0.179754
     3  C    0.062275
     4  N   -0.260153
     5  C    0.135069
     6  H    0.027254
     7  N   -0.280671
     8  C    0.142906
     9  H    0.010232
    10  N   -0.287325
    11  C    0.239285
    12  C    0.104849
    13  N   -0.053969
    14  H    0.108684
    15  H    0.086084
    16  H    0.027007
    17  H    0.030829
    18  H    0.026677
    19  N   -0.283583
    20  C    0.217388
    21  C    0.179102
    22  N   -0.081421
    23  H    0.113607
    24  H    0.109075
    25  N   -0.296690
    26  C    0.196232
    27  N   -0.146053
    28  H    0.131520
    29  C    0.161426
    30  O   -0.323384
    31  C    0.014852
    32  N   -0.221910
    33  C    0.126491
    34  H    0.016101
    35  H    0.025563
    36  H    0.025824
    37  H    0.021889
    38  H    0.061514
    39  H    0.058221
    40  H    0.065884
    41  H    0.028539
    42  C   -0.113907
    43  O   -0.266204
    44  C    0.175206
    45  H    0.131889
    46  N   -0.124967
    47  O   -0.337275
    48  C    0.339694
    49  H    0.046631
    50  C    0.174213
    51  C    0.042035
    52  N   -0.282900
    53  H    0.036684
    54  H    0.032631
    55  H    0.025842
    56  H    0.123946
    57  H    0.118316
    58  N   -0.063082
    59  C    0.105126
    60  C    0.253199
    61  N   -0.289968
    62  H    0.048290
    63  C    0.153532
    64  N   -0.300399
    65  H    0.036591
    66  C    0.107893
    67  N   -0.254205
    68  C    0.011815
    69  C    0.180909
    70  N   -0.296628
 Sum of Mulliken charges =  -0.00000

 Dipole moment (field-independent basis, Debye):
    X=             -6.9180    Y=              6.1883    Z=             -3.6431  Tot=              9.9713
 Quadrupole moment (field-independent basis, Debye-Ang):
   XX=           -147.6237   YY=           -225.9019   ZZ=           -257.3133
   XY=             -7.2279   XZ=              3.5053   YZ=             11.7079

 Normal termination of Gaussian 16 at Mon Jan 22 05:30:01 2018.
