 Gaussian 16, Revision A.03,
 Gaussian 16:  EM64L-G16RevA.03 25-Dec-2016

 ---------------------------------------
 #p wb97xd/cc-pvdz sp scf=(maxcycles=20)
 ---------------------------------------

 ------------------
 Base pair stacking
 ------------------
 Symbolic Z-matrix:
 Charge =  0 Multiplicity = 1

                         Standard orientation:
 ---------------------------------------------------------------------
 Center     Atomic      Atomic             Coordinates (Angstroms)
 Number     Number       Type             X           Y           Z
 ---------------------------------------------------------------------
      1          7           0       -6.921446   -1.281441    0.287426
      2          6           0       -8.272241   -0.688127    0.250649
      3          6           0       -4.755773   -1.575514    0.533787
      4          7           0       -5.266878   -2.793185    0.108612
      5          6           0       -6.551167   -2.567284   -0.022792
      6          1           0       -7.281409   -3.309778   -0.345870
      7          7           0       -3.284593    0.126005    1.243311
      8          6           0       -4.357192    0.921681    1.306665
      9          1           0       -4.159881    1.943438    1.628111
     10          7           0       -5.630953    0.645992    1.033831
     11          6           0       -5.763700   -0.634002    0.648581
     12          6           0       -3.451241   -1.156324    0.852237
     13          7           0       -2.381757   -1.952126    0.788368
     14          1           0       -2.458334   -2.908415    0.504000
     15          1           0       -1.468045   -1.619762    1.022467
     16          1           0       -8.874123   -1.187300    0.874128
     17          1           0       -8.223994    0.270039    0.531238
     18          1           0       -8.637741   -0.743599   -0.678507
     19          7           0       -2.717859    2.283149   -1.641741
     20          6           0       -1.369531    2.131346   -1.424898
     21          6           0       -3.475279    3.538165   -1.462981
     22          7           0        1.697598    3.471596   -0.498513
     23          1           0        2.641069    3.156172   -0.400539
     24          1           0        1.515962    4.432140   -0.286167
     25          7           0       -0.516934    3.095410   -1.015392
     26          6           0        0.719248    2.644437   -0.896697
     27          7           0        1.093898    1.348827   -1.158523
     28          1           0        2.062119    1.092695   -1.040610
     29          6           0        0.233580    0.340217   -1.580930
     30          8           0        0.673579   -0.797123   -1.789691
     31          6           0       -1.098012    0.809574   -1.713004
     32          7           0       -2.252642    0.144947   -2.102883
     33          6           0       -3.185456    1.056433   -2.045675
     34          1           0       -4.235033    0.886888   -2.288403
     35          1           0       -4.188874    3.403842   -0.776290
     36          1           0       -2.854089    4.259577   -1.159741
     37          1           0       -3.893878    3.803304   -2.330896
     38          1           0        6.887460    0.299848    0.352291
     39          1           0        7.193520    0.453531   -1.376107
     40          1           0        5.873617    1.356129   -0.631446
     41          1           0        5.491740   -4.042214   -1.179047
     42          6           0        5.120366   -3.017680   -1.153714
     43          8           0        2.872593   -3.626152   -1.605840
     44          6           0        3.728650   -2.771644   -1.378279
     45          1           0        2.388806   -1.227900   -1.478268
     46          7           0        3.364259   -1.441386   -1.324522
     47          8           0        3.768262    0.777106   -1.055730
     48          6           0        4.184517   -0.367711   -1.083817
     49          1           0        7.011604   -2.124727   -0.739429
     50          6           0        5.945219   -1.991090   -0.916374
     51          6           0        6.427015    0.428962   -0.615889
     52          7           0        5.512355   -0.685934   -0.876980
     53          1           0        3.650712    3.282703    3.392515
     54          1           0        2.521303    3.490229    2.233432
     55          1           0        4.100976    3.415613    1.829504
     56          1           0        1.010343   -3.302479    1.217817
     57          1           0        2.629274   -3.071287    1.703292
     58          7           0        1.739485   -2.670874    1.481579
     59          6           0        1.535381   -1.353081    1.535576
     60          6           0        2.163709    0.911153    1.909976
     61          7           0        0.958393    1.420814    1.606849
     62          1           0       -0.895962    0.776164    1.018288
     63          6           0        0.109422    0.448705    1.279490
     64          7           0        0.311936   -0.871744    1.224808
     65          1           0        5.270397    0.923320    2.804684
     66          6           0        4.262022    0.651386    2.491361
     67          7           0        3.855783   -0.574780    2.269628
     68          6           0        2.526999   -0.424298    1.900263
     69          6           0        3.399366    3.064299    2.449582
     70          7           0        3.289582    1.600953    2.292850
 ---------------------------------------------------------------------

 SCF Done:  E(RwB97XD) =  -2048.74220304     A.U. after   15 cycles

 The electronic state is 1-A.
 Alpha  occ. eigenvalues --  -19.25981 -19.22070 -19.20613 -14.52454 -14.51542
 Alpha  occ. eigenvalues --  -14.49341 -14.48647 -14.47930 -14.46847 -14.46715
 Alpha  occ. eigenvalues --  -14.46679 -14.44553 -14.42962 -14.42763 -14.42590
 Alpha  occ. eigenvalues --  -14.42074 -14.41991 -14.41536 -14.40722 -14.40680
 Alpha  occ. eigenvalues --  -10.45573 -10.41219 -10.40179 -10.38594 -10.38219
 Alpha  occ. eigenvalues --  -10.37780 -10.37144 -10.36033 -10.35928 -10.35548
 Alpha  occ. eigenvalues --  -10.34645 -10.34464 -10.34335 -10.33963 -10.33675
 Alpha  occ. eigenvalues --  -10.33532 -10.33173 -10.31507 -10.31445 -10.31060
 Alpha  occ. eigenvalues --  -10.30619 -10.29125 -10.28108  -1.19515  -1.14212
 Alpha  occ. eigenvalues --   -1.13231  -1.13090  -1.11933  -1.10521  -1.09353
 Alpha  occ. eigenvalues --   -1.08603  -1.07922  -1.05524  -1.03490  -1.02553
 Alpha  occ. eigenvalues --   -1.00944  -1.00084  -0.99812  -0.98515  -0.97496
 Alpha  occ. eigenvalues --   -0.96473  -0.95523  -0.93164  -0.91055  -0.86671
 Alpha  occ. eigenvalues --   -0.85164  -0.84497  -0.84058  -0.83810  -0.82843
 Alpha  occ. eigenvalues --   -0.82364  -0.78894  -0.75929  -0.74610  -0.73745
 Alpha  occ. eigenvalues --   -0.73599  -0.73428  -0.73408  -0.71619  -0.69332
 Alpha  occ. eigenvalues --   -0.67424  -0.66823  -0.66591  -0.65664  -0.64490
 Alpha  occ. eigenvalues --   -0.63756  -0.63337  -0.63055  -0.62701  -0.61797
 Alpha  occ. eigenvalues --   -0.60690  -0.59988  -0.59571  -0.59464  -0.59025
 Alpha  occ. eigenvalues --   -0.58561  -0.58389  -0.57022  -0.56943  -0.56625
 Alpha  occ. eigenvalues --   -0.56039  -0.55835  -0.54903  -0.54461  -0.54396
 Alpha  occ. eigenvalues --   -0.53632  -0.53543  -0.52913  -0.52861  -0.52630
 Alpha  occ. eigenvalues --   -0.52342  -0.52218  -0.51822  -0.51308  -0.50700
 Alpha  occ. eigenvalues --   -0.50123  -0.49611  -0.49485  -0.48922  -0.48750
 Alpha  occ. eigenvalues --   -0.48679  -0.48236  -0.47845  -0.47714  -0.47493
 Alpha  occ. eigenvalues --   -0.47411  -0.45540  -0.45426  -0.44033  -0.43213
 Alpha  occ. eigenvalues --   -0.41750  -0.39712  -0.39538  -0.37745  -0.37327
 Alpha  occ. eigenvalues --   -0.37236  -0.36633  -0.36386  -0.35865  -0.34493
 Alpha  occ. eigenvalues --   -0.34101  -0.34022  -0.33283  -0.33235  -0.32886
 Alpha  occ. eigenvalues --   -0.32654  -0.32261  -0.32005  -0.31829  -0.31499
 Alpha  occ. eigenvalues --   -0.30891  -0.28578  -0.26335  -0.25453
 Alpha virt. eigenvalues --    0.03099   0.04891   0.07411   0.07971   0.08593
 Alpha virt. eigenvalues --    0.09268   0.09583   0.10351   0.11048   0.11813
 Alpha virt. eigenvalues --    0.12796   0.13605   0.14411   0.14682   0.15033

 Mulliken charges:
               1
     1  N   -0.311537
     2  C    0.180580
     3  C    0.039124
     4  N   -0.257593
     5  C    0.133317
     6  H    0.028253
     7  N   -0.282203
     8  C    0.123442
     9  H    0.015135
    10  N   -0.289656
    11  C    0.234867
    12  C    0.114245
    13  N   -0.049075
    14  H    0.108344
    15  H    0.088605
    16  H    0.027031
    17  H    0.034615
    18  H    0.026107
    19  N   -0.305075
    20  C    0.235924
    21  C    0.180763
    22  N   -0.107187
    23  H    0.110749
    24  H    0.116762
    25  N   -0.294889
    26  C    0.223625
    27  N   -0.119596
    28  H    0.119545
    29  C    0.141432
    30  O   -0.319910
    31  C    0.010790
    32  N   -0.222692
    33  C    0.126700
    34  H    0.028363
    35  H    0.029757
    36  H    0.027120
    37  H    0.023493
    38  H    0.057929
    39  H    0.062515
    40  H    0.070480
    41  H    0.030452
    42  C   -0.111730
    43  O   -0.271042
    44  C    0.171302
    45  H    0.137453
    46  N   -0.133175
    47  O   -0.352134
    48  C    0.359112
    49  H    0.047524
    50  C    0.180087
    51  C    0.039419
    52  N   -0.290528
    53  H    0.034465
    54  H    0.035589
    55  H    0.021776
    56  H    0.123022
    57  H    0.117760
    58  N   -0.056762
    59  C    0.116216
    60  C    0.231382
    61  N   -0.262579
    62  H    0.054004
    63  C    0.151316
    64  N   -0.299685
    65  H    0.028082
    66  C    0.125433
    67  N   -0.261360
    68  C    0.011680
    69  C    0.169658
    70  N   -0.306934
 Sum of Mulliken charges =  -0.00000

 Dipole moment (field-independent basis, Debye):
    X=              6.7812    Y=              5.9806    Z=              2.9101  Tot=              9.4984
 Quadrupole moment (field-independent basis, Debye-Ang):
   XX=           -141.9431   YY=           -224.7966   ZZ=           -253.7646
   XY=             10.0146   XZ=             14.0528   YZ=             -7.9093

 Normal termination of Gaussian 16 at Mon Jan 22 00:02:14 2018.
