 Gaussian 16, Revision A.03,
 Gaussian 16:  EM64L-G16RevA.03 25-Dec-2016

 ---------------------------------------
 #p wb97xd/cc-pvdz sp scf=(maxcycles=20)
 ---------------------------------------

 ------------------
 Base pair stacking
 ------------------
 Symbolic Z-matrix:
 Charge =  0 Multiplicity = 1

                         Standard orientation:
 ---------------------------------------------------------------------
 Center     Atomic      Atomic             Coordinates (Angstroms)
 Number     Number       Type             X           Y           Z
 ---------------------------------------------------------------------
      1          7           0       -6.628304   -1.318882    0.480658
      2          6           0       -7.976695   -0.727372    0.380846
      3          6           0       -4.462039   -1.591929    0.745341
      4          7           0       -4.981959   -2.850053    0.477896
      5          6           0       -6.266252   -2.635194    0.329137
      6          1           0       -7.002368   -3.407992    0.105853
      7          7           0       -2.977633    0.176292    1.227942
      8          6           0       -4.046146    0.979477    1.200374
      9          1           0       -3.841705    2.032075    1.391477
     10          7           0       -5.323279    0.679059    0.973242
     11          6           0       -5.464805   -0.638016    0.750306
     12          6           0       -3.153127   -1.143642    0.999748
     13          7           0       -2.087743   -1.946997    1.026852
     14          1           0       -2.170849   -2.930684    0.863542
     15          1           0       -1.170705   -1.593178    1.211216
     16          1           0       -8.575742   -1.142347    1.065759
     17          1           0       -7.921935    0.257855    0.540382
     18          1           0       -8.349934   -0.895348   -0.531553
     19          7           0       -3.072205    2.157286   -1.576668
     20          6           0       -1.719514    2.026153   -1.373981
     21          6           0       -3.855141    3.387360   -1.342958
     22          7           0        1.324307    3.394223   -0.412072
     23          1           0        2.274963    3.095644   -0.332396
     24          1           0        1.123541    4.341267   -0.160032
     25          7           0       -0.885054    2.991209   -0.930832
     26          6           0        0.361279    2.562737   -0.837649
     27          7           0        0.761851    1.287156   -1.153771
     28          1           0        1.736112    1.047534   -1.051946
     29          6           0       -0.079448    0.277956   -1.611580
     30          8           0        0.383419   -0.840263   -1.868663
     31          6           0       -1.421654    0.723253   -1.716828
     32          7           0       -2.564354    0.049980   -2.126513
     33          6           0       -3.516083    0.937970   -2.027111
     34          1           0       -4.563382    0.755617   -2.270371
     35          1           0       -4.561078    3.210057   -0.658108
     36          1           0       -3.247539    4.109277   -1.014432
     37          1           0       -4.285120    3.678096   -2.197004
     38          1           0        6.586541    0.304096    0.279713
     39          1           0        6.877679    0.533843   -1.442823
     40          1           0        5.543731    1.376897   -0.654639
     41          1           0        5.274013   -4.002037   -1.417659
     42          6           0        4.880939   -2.987646   -1.348792
     43          8           0        2.643764   -3.626025   -1.812053
     44          6           0        3.482799   -2.763007   -1.555128
     45          1           0        2.109536   -1.245910   -1.584888
     46          7           0        3.090348   -1.444210   -1.445568
     47          8           0        3.448484    0.769896   -1.089719
     48          6           0        3.888985   -0.363567   -1.166449
     49          1           0        6.755340   -2.071287   -0.909779
     50          6           0        5.685173   -1.953796   -1.074976
     51          6           0        6.116964    0.462070   -0.679775
     52          7           0        5.224704   -0.660981   -0.980373
     53          1           0        3.988743    3.537000    2.918342
     54          1           0        2.850956    3.605696    1.750940
     55          1           0        4.426968    3.473157    1.347574
     56          1           0        1.301682   -3.252202    1.594723
     57          1           0        2.925496   -2.971498    2.035784
     58          7           0        2.035731   -2.596776    1.772888
     59          6           0        1.837922   -1.281337    1.664969
     60          6           0        2.479307    1.008392    1.751705
     61          7           0        1.273860    1.483158    1.396847
     62          1           0       -0.588038    0.780708    0.906406
     63          6           0        0.417963    0.482632    1.198600
     64          7           0        0.614157   -0.835517    1.306179
     65          1           0        5.593135    1.114315    2.614833
     66          6           0        4.581069    0.811170    2.345081
     67          7           0        4.167608   -0.430789    2.279773
     68          6           0        2.836571   -0.319961    1.904550
     69          6           0        3.728830    3.205028    2.011574
     70          7           0        3.611288    1.734142    2.037884
 ---------------------------------------------------------------------

 SCF Done:  E(RwB97XD) =  -2048.72664255     A.U. after   15 cycles

 The electronic state is 1-A.
 Alpha  occ. eigenvalues --  -19.25937 -19.21947 -19.20558 -14.52414 -14.51838
 Alpha  occ. eigenvalues --  -14.49327 -14.48522 -14.47886 -14.47235 -14.46539
 Alpha  occ. eigenvalues --  -14.46176 -14.44862 -14.43400 -14.42743 -14.42739
 Alpha  occ. eigenvalues --  -14.42021 -14.41951 -14.41609 -14.40687 -14.40650
 Alpha  occ. eigenvalues --  -10.45528 -10.40893 -10.40077 -10.39050 -10.38076
 Alpha  occ. eigenvalues --  -10.37724 -10.37430 -10.36402 -10.35980 -10.35466
 Alpha  occ. eigenvalues --  -10.35027 -10.34605 -10.34199 -10.34041 -10.33948
 Alpha  occ. eigenvalues --  -10.33718 -10.33094 -10.31721 -10.31470 -10.31014
 Alpha  occ. eigenvalues --  -10.30447 -10.29093 -10.27976  -1.19511  -1.14549
 Alpha  occ. eigenvalues --   -1.13178  -1.12985  -1.11908  -1.10432  -1.09306
 Alpha  occ. eigenvalues --   -1.08593  -1.08244  -1.05555  -1.03947  -1.02499
 Alpha  occ. eigenvalues --   -1.01018  -1.00432  -0.99552  -0.98459  -0.97503
 Alpha  occ. eigenvalues --   -0.96395  -0.95945  -0.93217  -0.91005  -0.87080
 Alpha  occ. eigenvalues --   -0.85618  -0.84500  -0.83912  -0.83748  -0.82851
 Alpha  occ. eigenvalues --   -0.82226  -0.78838  -0.76367  -0.74529  -0.74131
 Alpha  occ. eigenvalues --   -0.73527  -0.73439  -0.73356  -0.71655  -0.69803
 Alpha  occ. eigenvalues --   -0.67250  -0.66864  -0.66540  -0.66143  -0.64419
 Alpha  occ. eigenvalues --   -0.63720  -0.63636  -0.63240  -0.62706  -0.61580
 Alpha  occ. eigenvalues --   -0.60782  -0.60420  -0.59936  -0.59484  -0.59063
 Alpha  occ. eigenvalues --   -0.58967  -0.58139  -0.57222  -0.56964  -0.56606
 Alpha  occ. eigenvalues --   -0.55990  -0.55842  -0.55227  -0.54796  -0.54333
 Alpha  occ. eigenvalues --   -0.53907  -0.53513  -0.53030  -0.52760  -0.52570
 Alpha  occ. eigenvalues --   -0.52537  -0.52266  -0.52067  -0.51315  -0.50717
 Alpha  occ. eigenvalues --   -0.50000  -0.49664  -0.49414  -0.48999  -0.48657
 Alpha  occ. eigenvalues --   -0.48652  -0.48188  -0.48032  -0.47691  -0.47486
 Alpha  occ. eigenvalues --   -0.47324  -0.45698  -0.45390  -0.43907  -0.43489
 Alpha  occ. eigenvalues --   -0.41779  -0.40325  -0.39513  -0.37795  -0.37470
 Alpha  occ. eigenvalues --   -0.37182  -0.37077  -0.36442  -0.35795  -0.34239
 Alpha  occ. eigenvalues --   -0.34216  -0.34020  -0.33770  -0.33136  -0.32594
 Alpha  occ. eigenvalues --   -0.32575  -0.32079  -0.31906  -0.31748  -0.31497
 Alpha  occ. eigenvalues --   -0.30947  -0.28679  -0.26332  -0.25262
 Alpha virt. eigenvalues --    0.03137   0.04704   0.07406   0.07628   0.08884
 Alpha virt. eigenvalues --    0.09215   0.09681   0.10328   0.11045   0.11398
 Alpha virt. eigenvalues --    0.13002   0.13704   0.14363   0.14586   0.14691

 Mulliken charges:
               1
     1  N   -0.312197
     2  C    0.180376
     3  C    0.049021
     4  N   -0.258777
     5  C    0.134062
     6  H    0.028174
     7  N   -0.279506
     8  C    0.126743
     9  H    0.014019
    10  N   -0.290135
    11  C    0.233383
    12  C    0.112049
    13  N   -0.050868
    14  H    0.108213
    15  H    0.088430
    16  H    0.027069
    17  H    0.033245
    18  H    0.026531
    19  N   -0.299961
    20  C    0.241804
    21  C    0.177492
    22  N   -0.081259
    23  H    0.105568
    24  H    0.114215
    25  N   -0.292430
    26  C    0.205724
    27  N   -0.120473
    28  H    0.118036
    29  C    0.137702
    30  O   -0.319712
    31  C    0.022547
    32  N   -0.221988
    33  C    0.119230
    34  H    0.025121
    35  H    0.029053
    36  H    0.026322
    37  H    0.022929
    38  H    0.056969
    39  H    0.063063
    40  H    0.069372
    41  H    0.030252
    42  C   -0.114995
    43  O   -0.267029
    44  C    0.175952
    45  H    0.135214
    46  N   -0.132584
    47  O   -0.347891
    48  C    0.356386
    49  H    0.047256
    50  C    0.179332
    51  C    0.040436
    52  N   -0.287991
    53  H    0.036975
    54  H    0.025297
    55  H    0.025887
    56  H    0.122757
    57  H    0.117384
    58  N   -0.064189
    59  C    0.113823
    60  C    0.239674
    61  N   -0.280693
    62  H    0.043037
    63  C    0.174555
    64  N   -0.302465
    65  H    0.031751
    66  C    0.117361
    67  N   -0.256572
    68  C    0.003973
    69  C    0.173328
    70  N   -0.305381
 Sum of Mulliken charges =  -0.00000

 Dipole moment (field-independent basis, Debye):
    X=              6.6367    Y=              5.9926    Z=              3.3732  Tot=              9.5570
 Quadrupole moment (field-independent basis, Debye-Ang):
   XX=           -144.1587   YY=           -225.6294   ZZ=           -255.8671
   XY=              9.3671   XZ=             10.2478   YZ=            -10.1388

 Normal termination of Gaussian 16 at Mon Jan 22 02:46:28 2018.
