 Gaussian 16, Revision A.03,
 Gaussian 16:  EM64L-G16RevA.03 25-Dec-2016

 ---------------------------------------
 #p wb97xd/cc-pvdz sp scf=(maxcycles=20)
 ---------------------------------------

 ------------------
 Base pair stacking
 ------------------
 Symbolic Z-matrix:
 Charge =  0 Multiplicity = 1

                         Standard orientation:
 ---------------------------------------------------------------------
 Center     Atomic      Atomic             Coordinates (Angstroms)
 Number     Number       Type             X           Y           Z
 ---------------------------------------------------------------------
      1          7           0       -5.209210   -1.970846    1.242333
      2          6           0       -6.571902   -1.571080    1.643896
      3          6           0       -3.025858   -2.051480    0.989760
      4          7           0       -3.538364   -3.129788    0.283130
      5          6           0       -4.833243   -3.038042    0.463579
      6          1           0       -5.567629   -3.728429    0.047672
      7          7           0       -1.546765   -0.485274    1.950093
      8          6           0       -2.629525    0.108865    2.462170
      9          1           0       -2.432855    0.995490    3.063398
     10          7           0       -3.912711   -0.226207    2.343619
     11          6           0       -4.043740   -1.327927    1.586340
     12          6           0       -1.711961   -1.591637    1.192641
     13          7           0       -0.632355   -2.186141    0.680597
     14          1           0       -0.707460   -3.007460    0.114016
     15          1           0        0.287834   -1.831007    0.845764
     16          1           0       -6.998627   -2.311684    2.163120
     17          1           0       -6.525350   -0.750394    2.212591
     18          1           0       -7.119003   -1.379335    0.829080
     19          7           0       -4.589976    2.323969   -0.874312
     20          6           0       -3.218531    2.265122   -0.935339
     21          6           0       -5.375769    3.497849   -0.443902
     22          7           0       -0.120966    3.775175   -0.503339
     23          1           0        0.841436    3.529960   -0.616895
     24          1           0       -0.318086    4.699948   -0.176761
     25          7           0       -2.365245    3.261771   -0.614943
     26          6           0       -1.103764    2.903734   -0.776487
     27          7           0       -0.706221    1.664940   -1.217914
     28          1           0        0.280538    1.479190   -1.311561
     29          6           0       -1.566751    0.624349   -1.553346
     30          8           0       -1.104909   -0.455774   -1.941647
     31          6           0       -2.925378    0.993997   -1.384896
     32          7           0       -4.089361    0.269408   -1.601741
     33          6           0       -5.048770    1.096646   -1.286407
     34          1           0       -6.112559    0.861853   -1.336341
     35          1           0       -5.928762    3.256898    0.352927
     36          1           0       -4.754325    4.242523   -0.204031
     37          1           0       -5.974409    3.791478   -1.188358
     38          1           0        5.327056    0.975328   -0.948887
     39          1           0        5.273503    1.279184   -2.683660
     40          1           0        4.072519    2.016252   -1.622665
     41          1           0        3.936613   -3.340692   -2.556759
     42          6           0        3.512721   -2.353795   -2.370814
     43          8           0        1.263688   -3.105502   -2.433049
     44          6           0        2.091270   -2.204184   -2.300725
     45          1           0        0.662029   -0.769490   -2.005313
     46          7           0        1.660241   -0.914889   -2.061591
     47          8           0        1.966402    1.303169   -1.682551
     48          6           0        2.441360    0.200494   -1.890342
     49          1           0        5.387323   -1.345044   -2.251991
     50          6           0        4.300695   -1.284611   -2.207863
     51          6           0        4.676297    1.137724   -1.795176
     52          7           0        3.801460   -0.024696   -1.971776
     53          1           0        5.476259    2.690916    3.758732
     54          1           0        4.119394    3.105730    2.953168
     55          1           0        5.581636    3.360839    2.274306
     56          1           0        2.851345   -3.163839    0.030838
     57          1           0        4.518540   -2.893500    0.270598
     58          7           0        3.579127   -2.559490    0.355246
     59          6           0        3.309963   -1.361243    0.877678
     60          6           0        3.861822    0.733138    1.862943
     61          7           0        2.590725    1.155636    1.964183
     62          1           0        0.697732    0.498469    1.533701
     63          6           0        1.753708    0.235399    1.489326
     64          7           0        2.021338   -0.965316    0.965666
     65          1           0        7.079997    0.857137    2.146013
     66          6           0        6.047170    0.571703    1.944172
     67          7           0        5.679960   -0.564875    1.404710
     68          6           0        4.296673   -0.475480    1.347519
     69          6           0        5.047765    2.747950    2.856993
     70          7           0        4.998089    1.405135    2.246746
 ---------------------------------------------------------------------

 SCF Done:  E(RwB97XD) =  -2048.74161992     A.U. after   15 cycles

 The electronic state is 1-A.
 Alpha  occ. eigenvalues --  -19.25844 -19.22447 -19.20731 -14.52447 -14.52339
 Alpha  occ. eigenvalues --  -14.48983 -14.48154 -14.47937 -14.47841 -14.47030
 Alpha  occ. eigenvalues --  -14.46821 -14.45415 -14.44173 -14.44095 -14.42161
 Alpha  occ. eigenvalues --  -14.41874 -14.41172 -14.40664 -14.40589 -14.40002
 Alpha  occ. eigenvalues --  -10.45427 -10.41398 -10.40374 -10.39795 -10.38367
 Alpha  occ. eigenvalues --  -10.37900 -10.37554 -10.37058 -10.35643 -10.35045
 Alpha  occ. eigenvalues --  -10.34997 -10.34542 -10.33762 -10.33607 -10.33436
 Alpha  occ. eigenvalues --  -10.32851 -10.32765 -10.32568 -10.31118 -10.31073
 Alpha  occ. eigenvalues --  -10.30656 -10.28305 -10.27993  -1.19409  -1.15089
 Alpha  occ. eigenvalues --   -1.13378  -1.13337  -1.10775  -1.10717  -1.09437
 Alpha  occ. eigenvalues --   -1.09094  -1.08708  -1.04741  -1.04649  -1.02544
 Alpha  occ. eigenvalues --   -1.00895  -1.00034  -0.99891  -0.98704  -0.96790
 Alpha  occ. eigenvalues --   -0.96781  -0.96343  -0.92344  -0.91072  -0.87503
 Alpha  occ. eigenvalues --   -0.85780  -0.84307  -0.83556  -0.83450  -0.82676
 Alpha  occ. eigenvalues --   -0.81875  -0.78919  -0.76939  -0.74809  -0.74704
 Alpha  occ. eigenvalues --   -0.73796  -0.73400  -0.72455  -0.70634  -0.70304
 Alpha  occ. eigenvalues --   -0.67557  -0.66831  -0.66447  -0.65851  -0.64649
 Alpha  occ. eigenvalues --   -0.64191  -0.63826  -0.62794  -0.62284  -0.61941
 Alpha  occ. eigenvalues --   -0.60608  -0.60332  -0.60137  -0.59448  -0.59258
 Alpha  occ. eigenvalues --   -0.59098  -0.58525  -0.56808  -0.56184  -0.56047
 Alpha  occ. eigenvalues --   -0.55907  -0.55241  -0.54984  -0.54443  -0.53984
 Alpha  occ. eigenvalues --   -0.53797  -0.53729  -0.53537  -0.53431  -0.53145
 Alpha  occ. eigenvalues --   -0.52677  -0.52412  -0.51369  -0.50393  -0.50310
 Alpha  occ. eigenvalues --   -0.49962  -0.49647  -0.49563  -0.49104  -0.49040
 Alpha  occ. eigenvalues --   -0.48706  -0.48588  -0.48369  -0.47851  -0.47479
 Alpha  occ. eigenvalues --   -0.46538  -0.45919  -0.45402  -0.44431  -0.43173
 Alpha  occ. eigenvalues --   -0.40687  -0.40592  -0.39443  -0.37808  -0.37486
 Alpha  occ. eigenvalues --   -0.37442  -0.37416  -0.36675  -0.36109  -0.34564
 Alpha  occ. eigenvalues --   -0.34279  -0.34010  -0.33556  -0.33039  -0.32942
 Alpha  occ. eigenvalues --   -0.32855  -0.32672  -0.32542  -0.32032  -0.30463
 Alpha  occ. eigenvalues --   -0.30085  -0.29013  -0.25748  -0.25225
 Alpha virt. eigenvalues --    0.02858   0.04149   0.07002   0.08234   0.08647
 Alpha virt. eigenvalues --    0.09160   0.09589   0.10539   0.11415   0.12028
 Alpha virt. eigenvalues --    0.13038   0.14077   0.14519   0.14745   0.15005

 Mulliken charges:
               1
     1  N   -0.310605
     2  C    0.180547
     3  C    0.058613
     4  N   -0.255210
     5  C    0.141692
     6  H    0.025039
     7  N   -0.297762
     8  C    0.133172
     9  H    0.009707
    10  N   -0.290170
    11  C    0.246005
    12  C    0.094370
    13  N   -0.051407
    14  H    0.115825
    15  H    0.083340
    16  H    0.024512
    17  H    0.030673
    18  H    0.022613
    19  N   -0.309522
    20  C    0.258387
    21  C    0.181354
    22  N   -0.123245
    23  H    0.117493
    24  H    0.118431
    25  N   -0.311935
    26  C    0.249006
    27  N   -0.149262
    28  H    0.119644
    29  C    0.194806
    30  O   -0.321956
    31  C   -0.016556
    32  N   -0.223988
    33  C    0.124663
    34  H    0.020570
    35  H    0.028932
    36  H    0.029845
    37  H    0.024145
    38  H    0.062787
    39  H    0.059671
    40  H    0.073836
    41  H    0.023040
    42  C   -0.114641
    43  O   -0.269538
    44  C    0.157467
    45  H    0.130253
    46  N   -0.109585
    47  O   -0.345155
    48  C    0.338345
    49  H    0.045483
    50  C    0.170155
    51  C    0.039087
    52  N   -0.275211
    53  H    0.033992
    54  H    0.041686
    55  H    0.027185
    56  H    0.125506
    57  H    0.113269
    58  N   -0.043268
    59  C    0.081817
    60  C    0.242789
    61  N   -0.272700
    62  H    0.033703
    63  C    0.169342
    64  N   -0.309555
    65  H    0.036630
    66  C    0.130134
    67  N   -0.261865
    68  C    0.019480
    69  C    0.181212
    70  N   -0.307120
 Sum of Mulliken charges =  -0.00000

 Dipole moment (field-independent basis, Debye):
    X=              7.2981    Y=              7.0554    Z=              1.8449  Tot=             10.3173
 Quadrupole moment (field-independent basis, Debye-Ang):
   XX=           -152.6317   YY=           -221.7857   ZZ=           -253.9707
   XY=              3.0614   XZ=             -5.3409   YZ=             -1.9933

 Normal termination of Gaussian 16 at Mon Jan 22 06:52:42 2018.
