 Gaussian 16, Revision A.03,
 Gaussian 16:  EM64L-G16RevA.03 25-Dec-2016

 ---------------------------------------
 #p wb97xd/cc-pvdz sp scf=(maxcycles=20)
 ---------------------------------------

 ------------------
 Base pair stacking
 ------------------
 Symbolic Z-matrix:
 Charge =  0 Multiplicity = 1

                         Standard orientation:
 ---------------------------------------------------------------------
 Center     Atomic      Atomic             Coordinates (Angstroms)
 Number     Number       Type             X           Y           Z
 ---------------------------------------------------------------------
      1          7           0       -4.882922   -2.030725    1.444394
      2          6           0       -6.238414   -1.649068    1.885955
      3          6           0       -2.708219   -2.076321    1.118952
      4          7           0       -3.224354   -3.174656    0.446640
      5          6           0       -4.513876   -3.103217    0.669616
      6          1           0       -5.249053   -3.813107    0.289475
      7          7           0       -1.226635   -0.468938    2.004495
      8          6           0       -2.302241    0.113779    2.544015
      9          1           0       -2.101747    1.013182    3.124658
     10          7           0       -3.582314   -0.246000    2.474300
     11          6           0       -3.718530   -1.361725    1.738753
     12          6           0       -1.396914   -1.589932    1.270008
     13          7           0       -0.324437   -2.173070    0.730631
     14          1           0       -0.403493   -3.004459    0.179495
     15          1           0        0.594112   -1.798984    0.858983
     16          1           0       -6.633685   -2.388873    2.430593
     17          1           0       -6.187805   -0.818789    2.440195
     18          1           0       -6.816125   -1.480040    1.087401
     19          7           0       -4.909542    2.214153   -0.748559
     20          6           0       -3.540079    2.178854   -0.855302
     21          6           0       -5.701816    3.380460   -0.309555
     22          7           0       -0.458001    3.750653   -0.551928
     23          1           0        0.504364    3.520914   -0.694404
     24          1           0       -0.660966    4.676806   -0.232921
     25          7           0       -2.694943    3.195532   -0.579297
     26          6           0       -1.433266    2.857574   -0.778195
     27          7           0       -1.028116    1.619260   -1.214007
     28          1           0       -0.041831    1.449712   -1.338342
     29          6           0       -1.880188    0.558285   -1.504114
     30          8           0       -1.411921   -0.519421   -1.891436
     31          6           0       -3.238930    0.906218   -1.295194
     32          7           0       -4.396040    0.157608   -1.461269
     33          6           0       -5.359319    0.972457   -1.126104
     34          1           0       -6.419687    0.717935   -1.136237
     35          1           0       -6.223088    3.142301    0.509195
     36          1           0       -5.086435    4.139819   -0.102311
     37          1           0       -6.330529    3.651534   -1.037594
     38          1           0        5.022465    1.041894   -1.139916
     39          1           0        4.904837    1.317268   -2.876292
     40          1           0        3.726978    2.049450   -1.786376
     41          1           0        3.658188   -3.323172   -2.633758
     42          6           0        3.222730   -2.341187   -2.448526
     43          8           0        0.987077   -3.133855   -2.422784
     44          6           0        1.801936   -2.215900   -2.332406
     45          1           0        0.357333   -0.802485   -2.010403
     46          7           0        1.355577   -0.930891   -2.098386
     47          8           0        1.633505    1.298001   -1.763734
     48          6           0        2.121388    0.200832   -1.970785
     49          1           0        5.081403   -1.297351   -2.408889
     50          6           0        3.995955   -1.255652   -2.328748
     51          6           0        4.340648    1.179231   -1.965960
     52          7           0        3.481880   -0.001281   -2.094996
     53          1           0        5.793809    2.860425    3.524700
     54          1           0        4.403139    3.238138    2.759535
     55          1           0        5.836710    3.508561    2.027536
     56          1           0        3.152752   -3.098525   -0.022317
     57          1           0        4.821828   -2.794675    0.156465
     58          7           0        3.879828   -2.476214    0.267931
     59          6           0        3.606448   -1.274853    0.780941
     60          6           0        4.152618    0.844375    1.714909
     61          7           0        2.878102    1.245643    1.852884
     62          1           0        0.984064    0.548041    1.497087
     63          6           0        2.042602    0.303211    1.420821
     64          7           0        2.314459   -0.900671    0.906673
     65          1           0        7.375683    1.030314    1.886415
     66          6           0        6.342061    0.723316    1.724196
     67          7           0        5.977828   -0.428032    1.214880
     68          6           0        4.591987   -0.364282    1.203414
     69          6           0        5.334162    2.895525    2.637296
     70          7           0        5.288633    1.542553    2.049577
 ---------------------------------------------------------------------

 SCF Done:  E(RwB97XD) =  -2048.74165488     A.U. after   15 cycles

 The electronic state is 1-A.
 Alpha  occ. eigenvalues --  -19.25777 -19.22188 -19.20731 -14.52427 -14.52425
 Alpha  occ. eigenvalues --  -14.49098 -14.48084 -14.48018 -14.47689 -14.47034
 Alpha  occ. eigenvalues --  -14.46853 -14.45452 -14.44376 -14.44276 -14.42203
 Alpha  occ. eigenvalues --  -14.41984 -14.41317 -14.40579 -14.40535 -14.40060
 Alpha  occ. eigenvalues --  -10.45366 -10.41434 -10.40201 -10.39972 -10.38390
 Alpha  occ. eigenvalues --  -10.37971 -10.37687 -10.37211 -10.35837 -10.35092
 Alpha  occ. eigenvalues --  -10.34961 -10.34626 -10.33805 -10.33738 -10.33325
 Alpha  occ. eigenvalues --  -10.32802 -10.32761 -10.32707 -10.31182 -10.30956
 Alpha  occ. eigenvalues --  -10.30493 -10.28386 -10.27968  -1.19331  -1.15190
 Alpha  occ. eigenvalues --   -1.13377  -1.13152  -1.10854  -1.10616  -1.09541
 Alpha  occ. eigenvalues --   -1.09117  -1.08735  -1.04891  -1.04682  -1.02398
 Alpha  occ. eigenvalues --   -1.00976  -1.00064  -0.99925  -0.98757  -0.96940
 Alpha  occ. eigenvalues --   -0.96886  -0.96263  -0.92378  -0.91032  -0.87621
 Alpha  occ. eigenvalues --   -0.85858  -0.84398  -0.83504  -0.83364  -0.82765
 Alpha  occ. eigenvalues --   -0.81787  -0.78876  -0.77068  -0.74878  -0.74847
 Alpha  occ. eigenvalues --   -0.73832  -0.73292  -0.72427  -0.70620  -0.70414
 Alpha  occ. eigenvalues --   -0.67607  -0.66894  -0.66456  -0.65826  -0.64640
 Alpha  occ. eigenvalues --   -0.64282  -0.63854  -0.62829  -0.62264  -0.61998
 Alpha  occ. eigenvalues --   -0.60676  -0.60386  -0.60178  -0.59451  -0.59307
 Alpha  occ. eigenvalues --   -0.59143  -0.58563  -0.56906  -0.56156  -0.56021
 Alpha  occ. eigenvalues --   -0.55757  -0.55300  -0.55028  -0.54451  -0.54098
 Alpha  occ. eigenvalues --   -0.53807  -0.53716  -0.53590  -0.53321  -0.53188
 Alpha  occ. eigenvalues --   -0.52776  -0.52341  -0.51276  -0.50412  -0.50266
 Alpha  occ. eigenvalues --   -0.50003  -0.49667  -0.49507  -0.49280  -0.49043
 Alpha  occ. eigenvalues --   -0.48678  -0.48565  -0.48352  -0.47978  -0.47439
 Alpha  occ. eigenvalues --   -0.46491  -0.45882  -0.45602  -0.44434  -0.43020
 Alpha  occ. eigenvalues --   -0.40724  -0.40692  -0.39392  -0.37879  -0.37600
 Alpha  occ. eigenvalues --   -0.37528  -0.37481  -0.36623  -0.35930  -0.34763
 Alpha  occ. eigenvalues --   -0.34347  -0.34129  -0.33400  -0.33007  -0.32922
 Alpha  occ. eigenvalues --   -0.32804  -0.32761  -0.32418  -0.32053  -0.30407
 Alpha  occ. eigenvalues --   -0.30071  -0.29264  -0.25784  -0.25317
 Alpha virt. eigenvalues --    0.02814   0.03986   0.06758   0.08367   0.08896
 Alpha virt. eigenvalues --    0.09004   0.09543   0.10474   0.11409   0.11774
 Alpha virt. eigenvalues --    0.13164   0.13999   0.14398   0.14825   0.15005

 Mulliken charges:
               1
     1  N   -0.309157
     2  C    0.181038
     3  C    0.055223
     4  N   -0.254515
     5  C    0.145819
     6  H    0.025414
     7  N   -0.297511
     8  C    0.131606
     9  H    0.009465
    10  N   -0.287783
    11  C    0.247656
    12  C    0.090763
    13  N   -0.057889
    14  H    0.116996
    15  H    0.085135
    16  H    0.023785
    17  H    0.030085
    18  H    0.022906
    19  N   -0.310073
    20  C    0.260226
    21  C    0.181571
    22  N   -0.124295
    23  H    0.118340
    24  H    0.118738
    25  N   -0.312594
    26  C    0.250745
    27  N   -0.148347
    28  H    0.119740
    29  C    0.195016
    30  O   -0.320883
    31  C   -0.016115
    32  N   -0.226016
    33  C    0.121465
    34  H    0.021639
    35  H    0.027931
    36  H    0.030449
    37  H    0.024650
    38  H    0.065531
    39  H    0.059564
    40  H    0.074650
    41  H    0.022421
    42  C   -0.123810
    43  O   -0.270075
    44  C    0.167318
    45  H    0.130883
    46  N   -0.117320
    47  O   -0.348118
    48  C    0.346038
    49  H    0.043798
    50  C    0.172596
    51  C    0.039095
    52  N   -0.275391
    53  H    0.034135
    54  H    0.041999
    55  H    0.027964
    56  H    0.125966
    57  H    0.113393
    58  N   -0.048118
    59  C    0.089736
    60  C    0.241501
    61  N   -0.270914
    62  H    0.033383
    63  C    0.171391
    64  N   -0.314426
    65  H    0.037776
    66  C    0.132820
    67  N   -0.260400
    68  C    0.011370
    69  C    0.180982
    70  N   -0.306960
 Sum of Mulliken charges =  -0.00000

 Dipole moment (field-independent basis, Debye):
    X=              7.2646    Y=              7.3282    Z=              1.5099  Tot=             10.4287
 Quadrupole moment (field-independent basis, Debye-Ang):
   XX=           -154.1687   YY=           -221.8792   ZZ=           -253.3359
   XY=              2.3762   XZ=             -9.3424   YZ=             -2.7935

 Normal termination of Gaussian 16 at Mon Jan 22 07:40:04 2018.
