 Gaussian 16, Revision A.03,
 Gaussian 16:  EM64L-G16RevA.03 25-Dec-2016

 ---------------------------------------
 #p wb97xd/cc-pvdz sp scf=(maxcycles=20)
 ---------------------------------------

 ------------------
 Base pair stacking
 ------------------
 Symbolic Z-matrix:
 Charge =  0 Multiplicity = 1

                         Standard orientation:
 ---------------------------------------------------------------------
 Center     Atomic      Atomic             Coordinates (Angstroms)
 Number     Number       Type             X           Y           Z
 ---------------------------------------------------------------------
      1          7           0        4.286001   -1.511822   -1.893257
      2          6           0        5.655620   -0.997019   -2.085869
      3          6           0        2.104369   -1.657679   -1.655448
      4          7           0        2.591338   -2.954104   -1.572504
      5          6           0        3.886191   -2.814343   -1.719085
      6          1           0        4.603564   -3.635437   -1.708332
      7          7           0        0.663593    0.209181   -1.699355
      8          6           0        1.758186    0.953559   -1.887366
      9          1           0        1.582158    2.024475   -1.979002
     10          7           0        3.031601    0.575438   -1.978759
     11          6           0        3.137173   -0.757787   -1.853074
     12          6           0        0.803163   -1.128927   -1.576639
     13          7           0       -0.288296   -1.873660   -1.388909
     14          1           0       -0.232136   -2.868070   -1.292860
     15          1           0       -1.198845   -1.463246   -1.337896
     16          1           0        6.052740   -1.402231   -2.909454
     17          1           0        5.627944   -0.002753   -2.184814
     18          1           0        6.218161   -1.235994   -1.294392
     19          7           0        5.489796    1.783849    0.720048
     20          6           0        4.121369    1.734166    0.833935
     21          6           0        6.273791    2.983497    0.363793
     22          7           0        1.030500    3.309619    0.671828
     23          1           0        0.070226    3.065295    0.803793
     24          1           0        1.227123    4.258008    0.421586
     25          7           0        3.269885    2.764625    0.641073
     26          6           0        2.011201    2.406757    0.823392
     27          7           0        1.614597    1.137381    1.168233
     28          1           0        0.630019    0.954332    1.286780
     29          6           0        2.473307    0.061725    1.371796
     30          8           0        2.012554   -1.044154    1.680773
     31          6           0        3.828931    0.430764    1.179508
     32          7           0        4.990407   -0.322674    1.280537
     33          6           0        5.947663    0.519532    1.000230
     34          1           0        7.009133    0.269992    0.983476
     35          1           0        6.789736    2.809758   -0.474311
     36          1           0        5.653665    3.753296    0.218526
     37          1           0        6.906961    3.202288    1.105434
     38          1           0       -4.433903    0.538484    1.095696
     39          1           0       -4.304056    0.683672    2.846897
     40          1           0       -3.137693    1.500957    1.806222
     41          1           0       -3.039934   -3.919634    2.248392
     42          6           0       -2.610022   -2.924477    2.134015
     43          8           0       -0.371343   -3.702378    2.032520
     44          6           0       -1.190701   -2.784114    2.017139
     45          1           0        0.245461   -1.343725    1.791234
     46          7           0       -0.751532   -1.483095    1.876710
     47          8           0       -1.041350    0.763249    1.711958
     48          6           0       -1.523020   -0.348632    1.839856
     49          1           0       -4.473289   -1.889434    2.186347
     50          6           0       -3.388678   -1.836705    2.101554
     51          6           0       -3.746329    0.616836    1.924649
     52          7           0       -2.881654   -0.565929    1.958607
     53          1           0       -6.277838    4.014513   -1.563870
     54          1           0       -4.899124    3.957622   -0.693238
     55          1           0       -6.344451    3.883242    0.061478
     56          1           0       -3.792841   -2.968417   -1.204649
     57          1           0       -5.453516   -2.579886   -1.240793
     58          7           0       -4.505197   -2.267036   -1.177198
     59          6           0       -4.204979   -0.971840   -1.060997
     60          6           0       -4.702825    1.348989   -0.894790
     61          7           0       -3.420447    1.740104   -0.811372
     62          1           0       -1.543914    0.916026   -0.801452
     63          6           0       -2.606989    0.687244   -0.862947
     64          7           0       -2.905739   -0.610747   -0.979307
     65          1           0       -7.918718    1.663958   -0.999907
     66          6           0       -6.892973    1.294289   -0.988008
     67          7           0       -6.555055    0.031047   -1.075754
     68          6           0       -5.169067    0.051689   -1.017897
     69          6           0       -5.837010    3.618164   -0.758535
     70          7           0       -5.822047    2.147118   -0.876073
 ---------------------------------------------------------------------

 SCF Done:  E(RwB97XD) =  -2048.74224092     A.U. after   15 cycles

 The electronic state is 1-A.
 Alpha  occ. eigenvalues --  -19.25077 -19.21171 -19.20554 -14.52876 -14.51406
 Alpha  occ. eigenvalues --  -14.49161 -14.48975 -14.48402 -14.47030 -14.46676
 Alpha  occ. eigenvalues --  -14.46638 -14.45751 -14.45157 -14.44911 -14.43166
 Alpha  occ. eigenvalues --  -14.41975 -14.41471 -14.41263 -14.41048 -14.40802
 Alpha  occ. eigenvalues --  -10.44598 -10.41163 -10.40741 -10.39299 -10.38320
 Alpha  occ. eigenvalues --  -10.38206 -10.37710 -10.37039 -10.36412 -10.35950
 Alpha  occ. eigenvalues --  -10.34510 -10.34146 -10.33844 -10.33795 -10.33531
 Alpha  occ. eigenvalues --  -10.33352 -10.33351 -10.33298 -10.31272 -10.30372
 Alpha  occ. eigenvalues --  -10.30358 -10.28632 -10.28291  -1.18630  -1.15688
 Alpha  occ. eigenvalues --   -1.13217  -1.12204  -1.11084  -1.10835  -1.10108
 Alpha  occ. eigenvalues --   -1.08570  -1.08344  -1.05564  -1.05463  -1.01624
 Alpha  occ. eigenvalues --   -1.01383  -1.00945  -0.99694  -0.98608  -0.97637
 Alpha  occ. eigenvalues --   -0.96885  -0.96731  -0.93176  -0.90223  -0.88242
 Alpha  occ. eigenvalues --   -0.86293  -0.84381  -0.83825  -0.82822  -0.82541
 Alpha  occ. eigenvalues --   -0.82096  -0.78075  -0.77596  -0.75464  -0.74768
 Alpha  occ. eigenvalues --   -0.73627  -0.73094  -0.72540  -0.71292  -0.71006
 Alpha  occ. eigenvalues --   -0.67433  -0.67385  -0.66490  -0.65772  -0.64785
 Alpha  occ. eigenvalues --   -0.64384  -0.63332  -0.62970  -0.62582  -0.61844
 Alpha  occ. eigenvalues --   -0.61162  -0.60867  -0.60669  -0.59959  -0.58942
 Alpha  occ. eigenvalues --   -0.58779  -0.58329  -0.57256  -0.56744  -0.56010
 Alpha  occ. eigenvalues --   -0.55775  -0.55696  -0.55541  -0.54997  -0.54167
 Alpha  occ. eigenvalues --   -0.54006  -0.53865  -0.53321  -0.53127  -0.52938
 Alpha  occ. eigenvalues --   -0.51828  -0.51606  -0.51274  -0.50550  -0.50503
 Alpha  occ. eigenvalues --   -0.50206  -0.50108  -0.49731  -0.49110  -0.49007
 Alpha  occ. eigenvalues --   -0.48721  -0.48057  -0.47977  -0.47426  -0.47006
 Alpha  occ. eigenvalues --   -0.46978  -0.45739  -0.45393  -0.45060  -0.42800
 Alpha  occ. eigenvalues --   -0.41539  -0.41146  -0.38886  -0.38328  -0.38149
 Alpha  occ. eigenvalues --   -0.37785  -0.37276  -0.36898  -0.35460  -0.35167
 Alpha  occ. eigenvalues --   -0.34983  -0.34172  -0.33660  -0.33604  -0.33008
 Alpha  occ. eigenvalues --   -0.32567  -0.32343  -0.31888  -0.30881  -0.30816
 Alpha  occ. eigenvalues --   -0.30705  -0.30628  -0.26115  -0.25625
 Alpha virt. eigenvalues --    0.03056   0.04251   0.06113   0.07615   0.08817
 Alpha virt. eigenvalues --    0.09096   0.09730   0.10090   0.10772   0.12045
 Alpha virt. eigenvalues --    0.13439   0.13969   0.14300   0.14507   0.14684

 Mulliken charges:
               1
     1  N   -0.304769
     2  C    0.184135
     3  C    0.067144
     4  N   -0.259430
     5  C    0.151259
     6  H    0.029289
     7  N   -0.287808
     8  C    0.124888
     9  H    0.009563
    10  N   -0.271943
    11  C    0.238276
    12  C    0.077067
    13  N   -0.065811
    14  H    0.113908
    15  H    0.082278
    16  H    0.022757
    17  H    0.026818
    18  H    0.028715
    19  N   -0.306961
    20  C    0.270880
    21  C    0.183625
    22  N   -0.110545
    23  H    0.123053
    24  H    0.117784
    25  N   -0.297231
    26  C    0.201118
    27  N   -0.118773
    28  H    0.118847
    29  C    0.172392
    30  O   -0.318713
    31  C   -0.012883
    32  N   -0.227234
    33  C    0.106153
    34  H    0.023157
    35  H    0.023295
    36  H    0.031613
    37  H    0.025146
    38  H    0.061657
    39  H    0.051402
    40  H    0.077675
    41  H    0.023374
    42  C   -0.115815
    43  O   -0.265913
    44  C    0.173173
    45  H    0.134108
    46  N   -0.125654
    47  O   -0.348125
    48  C    0.342962
    49  H    0.043242
    50  C    0.168565
    51  C    0.048854
    52  N   -0.276205
    53  H    0.034964
    54  H    0.040850
    55  H    0.030975
    56  H    0.120030
    57  H    0.120465
    58  N   -0.062073
    59  C    0.085576
    60  C    0.203977
    61  N   -0.252970
    62  H    0.027927
    63  C    0.158731
    64  N   -0.302436
    65  H    0.041057
    66  C    0.138989
    67  N   -0.254829
    68  C    0.029042
    69  C    0.180408
    70  N   -0.305043
 Sum of Mulliken charges =  -0.00000

 Dipole moment (field-independent basis, Debye):
    X=             -7.3214    Y=              7.3137    Z=             -1.7240  Tot=             10.4912
 Quadrupole moment (field-independent basis, Debye-Ang):
   XX=           -157.6795   YY=           -225.7858   ZZ=           -252.8996
   XY=              4.2172   XZ=            -16.8576   YZ=             13.3920

 Normal termination of Gaussian 16 at Mon Jan 22 04:31:45 2018.
