 Gaussian 16, Revision A.03,
 Gaussian 16:  EM64L-G16RevA.03 25-Dec-2016

 ---------------------------------------
 #p wb97xd/cc-pvdz sp scf=(maxcycles=20)
 ---------------------------------------

 ------------------
 Base pair stacking
 ------------------
 Symbolic Z-matrix:
 Charge =  0 Multiplicity = 1

                         Standard orientation:
 ---------------------------------------------------------------------
 Center     Atomic      Atomic             Coordinates (Angstroms)
 Number     Number       Type             X           Y           Z
 ---------------------------------------------------------------------
      1          7           0        4.884242   -1.701520   -1.606993
      2          6           0        6.252675   -1.209537   -1.858715
      3          6           0        2.698596   -1.836452   -1.401914
      4          7           0        3.198148   -3.085179   -1.061542
      5          6           0        4.494932   -2.953912   -1.198721
      6          1           0        5.221271   -3.745815   -1.013648
      7          7           0        1.237880   -0.036430   -1.836878
      8          6           0        2.328593    0.677138   -2.134796
      9          1           0        2.142709    1.708103   -2.432823
     10          7           0        3.608423    0.310122   -2.119904
     11          6           0        3.725989   -0.973071   -1.740402
     12          6           0        1.389570   -1.324413   -1.458502
     13          7           0        0.302010   -2.038346   -1.160708
     14          1           0        0.367059   -2.995380   -0.875974
     15          1           0       -0.614368   -1.641138   -1.212051
     16          1           0        6.677757   -1.756858   -2.579770
     17          1           0        6.216177   -0.252714   -2.145538
     18          1           0        6.795235   -1.284489   -1.022050
     19          7           0        4.920184    1.995419    0.952263
     20          6           0        3.548686    1.942101    1.017103
     21          6           0        5.712138    3.189465    0.594816
     22          7           0        0.459858    3.498249    0.702012
     23          1           0       -0.503674    3.252749    0.804800
     24          1           0        0.661910    4.440988    0.435283
     25          7           0        2.700939    2.963326    0.767182
     26          6           0        1.437777    2.604152    0.912193
     27          7           0        1.033631    1.341957    1.274205
     28          1           0        0.046059    1.157250    1.361139
     29          6           0        1.888395    0.275843    1.536208
     30          8           0        1.420827   -0.824109    1.855910
     31          6           0        3.248747    0.646394    1.384509
     32          7           0        4.408601   -0.098736    1.547064
     33          6           0        5.372280    0.740722    1.280879
     34          1           0        6.434601    0.495901    1.309366
     35          1           0        6.259231    2.997215   -0.219146
     36          1           0        5.094825    3.952423    0.407517
     37          1           0        6.316756    3.429815    1.353413
     38          1           0       -5.005764    0.712636    0.995033
     39          1           0       -4.940985    0.902345    2.745594
     40          1           0       -3.740280    1.698801    1.728090
     41          1           0       -3.638054   -3.708455    2.310273
     42          6           0       -3.208047   -2.714453    2.186643
     43          8           0       -0.964179   -3.483996    2.186998
     44          6           0       -1.785935   -2.570315    2.118399
     45          1           0       -0.347970   -1.129224    1.909013
     46          7           0       -1.346890   -1.271148    1.961360
     47          8           0       -1.639062    0.968944    1.729420
     48          6           0       -2.120850   -0.141662    1.867609
     49          1           0       -5.075932   -1.687300    2.144459
     50          6           0       -3.989142   -1.631556    2.098197
     51          6           0       -4.349461    0.815042    1.846404
     52          7           0       -3.482088   -0.362375    1.941897
     53          1           0       -5.748674    3.607665   -2.605583
     54          1           0       -4.394690    3.740275   -1.704893
     55          1           0       -5.859918    3.786011   -0.987183
     56          1           0       -3.193292   -3.137315   -0.861771
     57          1           0       -4.856703   -2.790809   -1.013754
     58          7           0       -3.914305   -2.455601   -0.986461
     59          6           0       -3.632703   -1.156997   -1.110921
     60          6           0       -4.162216    1.144471   -1.401765
     61          7           0       -2.887397    1.565927   -1.361312
     62          1           0       -1.002377    0.790516   -1.146726
     63          6           0       -2.060523    0.536293   -1.190886
     64          7           0       -2.340629   -0.765067   -1.066019
     65          1           0       -7.377279    1.379402   -1.647405
     66          6           0       -6.348034    1.036090   -1.539104
     67          7           0       -5.992983   -0.214978   -1.376409
     68          6           0       -4.609534   -0.160314   -1.287945
     69          6           0       -5.326303    3.378791   -1.728534
     70          7           0       -5.290781    1.912632   -1.563874
 ---------------------------------------------------------------------

 SCF Done:  E(RwB97XD) =  -2048.75096213     A.U. after   15 cycles

 The electronic state is 1-A.
 Alpha  occ. eigenvalues --  -19.25467 -19.21710 -19.20543 -14.52684 -14.52072
 Alpha  occ. eigenvalues --  -14.48911 -14.48446 -14.48295 -14.47404 -14.46770
 Alpha  occ. eigenvalues --  -14.46614 -14.45651 -14.44611 -14.44530 -14.42506
 Alpha  occ. eigenvalues --  -14.42011 -14.41179 -14.40902 -14.40884 -14.40410
 Alpha  occ. eigenvalues --  -10.45074 -10.41208 -10.40258 -10.39798 -10.38194
 Alpha  occ. eigenvalues --  -10.38183 -10.37470 -10.37444 -10.36123 -10.35490
 Alpha  occ. eigenvalues --  -10.34583 -10.34432 -10.34039 -10.33646 -10.33608
 Alpha  occ. eigenvalues --  -10.33108 -10.33049 -10.32886 -10.31024 -10.30742
 Alpha  occ. eigenvalues --  -10.30699 -10.28305 -10.28187  -1.19063  -1.15447
 Alpha  occ. eigenvalues --   -1.13166  -1.12710  -1.10915  -1.10661  -1.09623
 Alpha  occ. eigenvalues --   -1.08929  -1.08521  -1.05100  -1.05028  -1.02074
 Alpha  occ. eigenvalues --   -1.01190  -1.00457  -0.99690  -0.98551  -0.97163
 Alpha  occ. eigenvalues --   -0.96702  -0.96585  -0.92747  -0.90706  -0.87871
 Alpha  occ. eigenvalues --   -0.86092  -0.84212  -0.83656  -0.83198  -0.82587
 Alpha  occ. eigenvalues --   -0.82072  -0.78533  -0.77287  -0.75084  -0.74677
 Alpha  occ. eigenvalues --   -0.73605  -0.72973  -0.72772  -0.70938  -0.70632
 Alpha  occ. eigenvalues --   -0.67391  -0.67051  -0.66199  -0.66164  -0.64475
 Alpha  occ. eigenvalues --   -0.64347  -0.63638  -0.62631  -0.62612  -0.61796
 Alpha  occ. eigenvalues --   -0.60916  -0.60654  -0.60449  -0.59605  -0.59212
 Alpha  occ. eigenvalues --   -0.58964  -0.58333  -0.56865  -0.56468  -0.55902
 Alpha  occ. eigenvalues --   -0.55765  -0.55595  -0.55361  -0.54430  -0.54088
 Alpha  occ. eigenvalues --   -0.53838  -0.53618  -0.53491  -0.53051  -0.52986
 Alpha  occ. eigenvalues --   -0.52803  -0.52042  -0.51555  -0.50475  -0.50286
 Alpha  occ. eigenvalues --   -0.50153  -0.49939  -0.49347  -0.49184  -0.48821
 Alpha  occ. eigenvalues --   -0.48776  -0.48361  -0.48247  -0.47809  -0.47202
 Alpha  occ. eigenvalues --   -0.46779  -0.45808  -0.45413  -0.44585  -0.42987
 Alpha  occ. eigenvalues --   -0.41058  -0.40938  -0.39124  -0.38001  -0.37853
 Alpha  occ. eigenvalues --   -0.37354  -0.37295  -0.36952  -0.35745  -0.34986
 Alpha  occ. eigenvalues --   -0.34555  -0.34051  -0.33345  -0.33228  -0.32916
 Alpha  occ. eigenvalues --   -0.32673  -0.32551  -0.31962  -0.31886  -0.30660
 Alpha  occ. eigenvalues --   -0.30400  -0.29870  -0.25713  -0.25570
 Alpha virt. eigenvalues --    0.03246   0.03778   0.06492   0.08088   0.08987
 Alpha virt. eigenvalues --    0.09258   0.09722   0.10300   0.11053   0.12110
 Alpha virt. eigenvalues --    0.12983   0.14040   0.14504   0.14581   0.14668

 Mulliken charges:
               1
     1  N   -0.308075
     2  C    0.180018
     3  C    0.059645
     4  N   -0.258122
     5  C    0.145913
     6  H    0.026728
     7  N   -0.291816
     8  C    0.129207
     9  H    0.011685
    10  N   -0.282591
    11  C    0.247338
    12  C    0.086381
    13  N   -0.057911
    14  H    0.114286
    15  H    0.083762
    16  H    0.025027
    17  H    0.028947
    18  H    0.024712
    19  N   -0.306143
    20  C    0.263906
    21  C    0.182732
    22  N   -0.122968
    23  H    0.119962
    24  H    0.117643
    25  N   -0.309853
    26  C    0.244146
    27  N   -0.137094
    28  H    0.116200
    29  C    0.184880
    30  O   -0.321613
    31  C   -0.016787
    32  N   -0.225281
    33  C    0.115455
    34  H    0.020568
    35  H    0.026625
    36  H    0.030183
    37  H    0.023697
    38  H    0.064228
    39  H    0.058124
    40  H    0.074962
    41  H    0.023017
    42  C   -0.110163
    43  O   -0.267645
    44  C    0.170037
    45  H    0.130719
    46  N   -0.121140
    47  O   -0.345208
    48  C    0.344889
    49  H    0.044120
    50  C    0.164518
    51  C    0.042152
    52  N   -0.276484
    53  H    0.034858
    54  H    0.040289
    55  H    0.028583
    56  H    0.123154
    57  H    0.116222
    58  N   -0.054608
    59  C    0.093930
    60  C    0.225009
    61  N   -0.266904
    62  H    0.026686
    63  C    0.173869
    64  N   -0.312302
    65  H    0.037839
    66  C    0.128304
    67  N   -0.253700
    68  C    0.009823
    69  C    0.181863
    70  N   -0.300435
 Sum of Mulliken charges =  -0.00000

 Dipole moment (field-independent basis, Debye):
    X=             -7.2350    Y=              7.0970    Z=             -1.7920  Tot=             10.2919
 Quadrupole moment (field-independent basis, Debye-Ang):
   XX=           -154.3550   YY=           -223.2274   ZZ=           -254.8787
   XY=             -0.9077   XZ=            -10.5367   YZ=              9.2066

 Normal termination of Gaussian 16 at Sun Jan 21 23:50:37 2018.
