 Gaussian 16, Revision A.03,
 Gaussian 16:  EM64L-G16RevA.03 25-Dec-2016

 ---------------------------------------
 #p wb97xd/cc-pvdz sp scf=(maxcycles=20)
 ---------------------------------------

 ------------------
 Base pair stacking
 ------------------
 Symbolic Z-matrix:
 Charge =  0 Multiplicity = 1

                         Standard orientation:
 ---------------------------------------------------------------------
 Center     Atomic      Atomic             Coordinates (Angstroms)
 Number     Number       Type             X           Y           Z
 ---------------------------------------------------------------------
      1          7           0       -6.888660   -1.265756    0.317946
      2          6           0       -8.230406   -0.665462    0.186102
      3          6           0       -4.730207   -1.552085    0.628449
      4          7           0       -5.253882   -2.808657    0.361013
      5          6           0       -6.533313   -2.585865    0.184647
      6          1           0       -7.270448   -3.355220   -0.047008
      7          7           0       -3.242869    0.209455    1.126181
      8          6           0       -4.304691    1.020019    1.070452
      9          1           0       -4.096408    2.072686    1.256918
     10          7           0       -5.579164    0.726859    0.820147
     11          6           0       -5.725852   -0.591006    0.605316
     12          6           0       -3.423426   -1.111062    0.905438
     13          7           0       -2.364717   -1.921786    0.960641
     14          1           0       -2.451743   -2.906193    0.803843
     15          1           0       -1.448994   -1.573009    1.160498
     16          1           0       -8.846114   -1.070349    0.862234
     17          1           0       -8.171633    0.320657    0.338543
     18          1           0       -8.586467   -0.838436   -0.732202
     19          7           0       -2.775088    2.164379   -1.614919
     20          6           0       -1.427731    2.025256   -1.383956
     21          6           0       -3.553512    3.401960   -1.407218
     22          7           0        1.606114    3.379536   -0.372309
     23          1           0        2.552756    3.074827   -0.271040
     24          1           0        1.407291    4.330081   -0.132224
     25          7           0       -0.595284    2.988014   -0.932099
     26          6           0        0.645750    2.551419   -0.810292
     27          7           0        1.043218    1.270380   -1.107710
     28          1           0        2.013454    1.024647   -0.984306
     29          6           0        0.203904    0.263408   -1.573995
     30          8           0        0.663619   -0.860217   -1.812444
     31          6           0       -1.132618    0.717423   -1.709942
     32          7           0       -2.271766    0.048923   -2.136966
     33          6           0       -3.218767    0.944523   -2.064097
     34          1           0       -4.262285    0.767638   -2.326892
     35          1           0       -4.274345    3.235494   -0.735281
     36          1           0       -2.947356    4.122240   -1.072516
     37          1           0       -3.964121    3.688558   -2.272131
     38          1           0        6.830594    0.257699    0.450859
     39          1           0        7.157918    0.470828   -1.267303
     40          1           0        5.814642    1.330028   -0.513150
     41          1           0        5.520841   -4.053060   -1.236872
     42          6           0        5.133916   -3.035346   -1.184343
     43          8           0        2.901863   -3.661544   -1.687257
     44          6           0        3.741888   -2.802433   -1.420654
     45          1           0        2.380665   -1.275838   -1.490614
     46          7           0        3.357000   -1.479983   -1.329934
     47          8           0        3.724159    0.734435   -0.985297
     48          6           0        4.157784   -0.402763   -1.043752
     49          1           0        7.005791   -2.128773   -0.715276
     50          6           0        5.940047   -2.005010   -0.902957
     51          6           0        6.381544    0.410941   -0.519157
     52          7           0        5.487270   -0.708175   -0.828354
     53          1           0        3.712641    3.534254    2.928633
     54          1           0        2.599063    3.601270    1.738031
     55          1           0        4.181834    3.454049    1.367596
     56          1           0        1.002956   -3.246424    1.607440
     57          1           0        2.619604   -2.973661    2.078771
     58          7           0        1.738069   -2.594799    1.794917
     59          6           0        1.552124   -1.278919    1.672152
     60          6           0        2.208420    1.006790    1.752817
     61          7           0        1.013850    1.487186    1.369838
     62          1           0       -0.842924    0.793987    0.847836
     63          6           0        0.154801    0.491185    1.162691
     64          7           0        0.339119   -0.827384    1.285111
     65          1           0        5.304985    1.097658    2.677567
     66          6           0        4.296342    0.799527    2.390014
     67          7           0        3.875168   -0.439948    2.326676
     68          6           0        2.552781   -0.322747    1.923821
     69          6           0        3.468557    3.196524    2.019596
     70          7           0        3.339715    1.726800    2.055713
 ---------------------------------------------------------------------

 SCF Done:  E(RwB97XD) =  -2048.71538816     A.U. after   15 cycles

 The electronic state is 1-A.
 Alpha  occ. eigenvalues --  -19.25969 -19.21944 -19.20536 -14.52431 -14.51715
 Alpha  occ. eigenvalues --  -14.49491 -14.48555 -14.47887 -14.46990 -14.46378
 Alpha  occ. eigenvalues --  -14.46362 -14.44701 -14.43208 -14.42839 -14.42487
 Alpha  occ. eigenvalues --  -14.42143 -14.42033 -14.41769 -14.40855 -14.40648
 Alpha  occ. eigenvalues --  -10.45550 -10.41079 -10.40070 -10.38808 -10.38105
 Alpha  occ. eigenvalues --  -10.37725 -10.37308 -10.36181 -10.36137 -10.35571
 Alpha  occ. eigenvalues --  -10.34795 -10.34598 -10.34250 -10.34142 -10.33891
 Alpha  occ. eigenvalues --  -10.33821 -10.33084 -10.31639 -10.31559 -10.31015
 Alpha  occ. eigenvalues --  -10.30504 -10.29305 -10.28028  -1.19513  -1.14439
 Alpha  occ. eigenvalues --   -1.13210  -1.12982  -1.12090  -1.10451  -1.09326
 Alpha  occ. eigenvalues --   -1.08635  -1.08090  -1.05723  -1.03727  -1.02501
 Alpha  occ. eigenvalues --   -1.01165  -1.00393  -0.99664  -0.98463  -0.97661
 Alpha  occ. eigenvalues --   -0.96423  -0.95747  -0.93373  -0.91016  -0.86949
 Alpha  occ. eigenvalues --   -0.85501  -0.84665  -0.83989  -0.83803  -0.82998
 Alpha  occ. eigenvalues --   -0.82293  -0.78852  -0.76189  -0.74655  -0.73910
 Alpha  occ. eigenvalues --   -0.73642  -0.73551  -0.73366  -0.71830  -0.69626
 Alpha  occ. eigenvalues --   -0.67388  -0.67016  -0.66557  -0.65975  -0.64441
 Alpha  occ. eigenvalues --   -0.63698  -0.63594  -0.63313  -0.62726  -0.61789
 Alpha  occ. eigenvalues --   -0.60902  -0.60248  -0.59775  -0.59488  -0.59270
 Alpha  occ. eigenvalues --   -0.58819  -0.58149  -0.57328  -0.57075  -0.56819
 Alpha  occ. eigenvalues --   -0.56049  -0.55926  -0.55407  -0.54679  -0.54361
 Alpha  occ. eigenvalues --   -0.53730  -0.53540  -0.53043  -0.52806  -0.52619
 Alpha  occ. eigenvalues --   -0.52429  -0.52329  -0.51932  -0.51458  -0.50855
 Alpha  occ. eigenvalues --   -0.50026  -0.49783  -0.49432  -0.49105  -0.48672
 Alpha  occ. eigenvalues --   -0.48599  -0.48163  -0.48055  -0.47748  -0.47583
 Alpha  occ. eigenvalues --   -0.47336  -0.45697  -0.45580  -0.43955  -0.43002
 Alpha  occ. eigenvalues --   -0.41950  -0.39930  -0.39534  -0.37947  -0.37386
 Alpha  occ. eigenvalues --   -0.37198  -0.36871  -0.36309  -0.35799  -0.34587
 Alpha  occ. eigenvalues --   -0.34276  -0.34170  -0.33315  -0.33138  -0.32656
 Alpha  occ. eigenvalues --   -0.32502  -0.32143  -0.31924  -0.31770  -0.31597
 Alpha  occ. eigenvalues --   -0.31076  -0.28380  -0.26532  -0.25375
 Alpha virt. eigenvalues --    0.03181   0.04592   0.07224   0.07831   0.08668
 Alpha virt. eigenvalues --    0.09208   0.09507   0.10157   0.11152   0.11869
 Alpha virt. eigenvalues --    0.12915   0.13526   0.14402   0.14597   0.14669

 Mulliken charges:
               1
     1  N   -0.312039
     2  C    0.180511
     3  C    0.041962
     4  N   -0.258350
     5  C    0.134215
     6  H    0.028909
     7  N   -0.277902
     8  C    0.118508
     9  H    0.017640
    10  N   -0.288358
    11  C    0.235561
    12  C    0.113434
    13  N   -0.051007
    14  H    0.107832
    15  H    0.088088
    16  H    0.027275
    17  H    0.034383
    18  H    0.026908
    19  N   -0.299983
    20  C    0.228263
    21  C    0.180499
    22  N   -0.087516
    23  H    0.103541
    24  H    0.117926
    25  N   -0.284501
    26  C    0.201801
    27  N   -0.111361
    28  H    0.121425
    29  C    0.130456
    30  O   -0.318953
    31  C    0.019175
    32  N   -0.221055
    33  C    0.121831
    34  H    0.027787
    35  H    0.025560
    36  H    0.026475
    37  H    0.023456
    38  H    0.058169
    39  H    0.063445
    40  H    0.070052
    41  H    0.030812
    42  C   -0.112713
    43  O   -0.267399
    44  C    0.177303
    45  H    0.136521
    46  N   -0.135114
    47  O   -0.351088
    48  C    0.359941
    49  H    0.047233
    50  C    0.177866
    51  C    0.037979
    52  N   -0.290808
    53  H    0.035919
    54  H    0.026177
    55  H    0.027674
    56  H    0.121561
    57  H    0.117678
    58  N   -0.064901
    59  C    0.120977
    60  C    0.228787
    61  N   -0.268743
    62  H    0.062935
    63  C    0.154796
    64  N   -0.300232
    65  H    0.028366
    66  C    0.123020
    67  N   -0.259327
    68  C    0.011516
    69  C    0.163955
    70  N   -0.304751
 Sum of Mulliken charges =  -0.00000

 Dipole moment (field-independent basis, Debye):
    X=              6.4443    Y=              5.8619    Z=              3.4900  Tot=              9.3846
 Quadrupole moment (field-independent basis, Debye-Ang):
   XX=           -141.9945   YY=           -226.1248   ZZ=           -255.1311
   XY=             10.7596   XZ=             13.2226   YZ=            -10.0431

 Normal termination of Gaussian 16 at Mon Jan 22 03:33:21 2018.
