 Gaussian 16, Revision A.03,
 Gaussian 16:  EM64L-G16RevA.03 25-Dec-2016

 ---------------------------------------
 #p wb97xd/cc-pvdz sp scf=(maxcycles=20)
 ---------------------------------------

 ------------------
 Base pair stacking
 ------------------
 Symbolic Z-matrix:
 Charge =  0 Multiplicity = 1

                         Standard orientation:
 ---------------------------------------------------------------------
 Center     Atomic      Atomic             Coordinates (Angstroms)
 Number     Number       Type             X           Y           Z
 ---------------------------------------------------------------------
      1          7           0       -6.117988   -1.538932    0.783066
      2          6           0       -7.485847   -1.002276    0.920875
      3          6           0       -3.931059   -1.768758    0.825421
      4          7           0       -4.435256   -2.949497    0.299723
      5          6           0       -5.732624   -2.763783    0.295242
      6          1           0       -6.462244   -3.493872   -0.056274
      7          7           0       -2.463054   -0.100554    1.616007
      8          6           0       -3.552202    0.636987    1.855471
      9          1           0       -3.362667    1.622169    2.279470
     10          7           0       -4.834314    0.341681    1.650797
     11          6           0       -4.956331   -0.889719    1.128109
     12          6           0       -2.619236   -1.335010    1.089879
     13          7           0       -1.533231   -2.072753    0.850117
     14          1           0       -1.601590   -2.992192    0.461295
     15          1           0       -0.614778   -1.731768    1.050881
     16          1           0       -8.018496   -1.594781    1.525356
     17          1           0       -7.446066   -0.081729    1.308363
     18          1           0       -7.923730   -0.965345    0.022606
     19          7           0       -3.630819    2.331769   -1.411406
     20          6           0       -2.266133    2.208915   -1.308476
     21          6           0       -4.401289    3.559171   -1.127578
     22          7           0        0.832653    3.598718   -0.582023
     23          1           0        1.788268    3.305575   -0.571094
     24          1           0        0.645714    4.546243   -0.321307
     25          7           0       -1.406688    3.181022   -0.933768
     26          6           0       -0.154472    2.759622   -0.930466
     27          7           0        0.228851    1.484209   -1.267957
     28          1           0        1.209302    1.250296   -1.237010
     29          6           0       -0.638262    0.467833   -1.656509
     30          8           0       -0.189347   -0.649516   -1.940642
     31          6           0       -1.987070    0.905496   -1.664860
     32          7           0       -3.153084    0.223769   -1.985095
     33          6           0       -4.099864    1.107402   -1.820763
     34          1           0       -5.161228    0.918103   -1.984924
     35          1           0       -5.053702    3.382423   -0.391430
     36          1           0       -3.775162    4.286248   -0.849024
     37          1           0       -4.894806    3.842382   -1.949188
     38          1           0        6.148968    0.540319   -0.263150
     39          1           0        6.310766    0.760932   -2.003778
     40          1           0        5.033941    1.601889   -1.124066
     41          1           0        4.738962   -3.782977   -1.834003
     42          6           0        4.346325   -2.770245   -1.742137
     43          8           0        2.084682   -3.423093   -2.035118
     44          6           0        2.935520   -2.554161   -1.845892
     45          1           0        1.555271   -1.044432   -1.782843
     46          7           0        2.544803   -1.236768   -1.715234
     47          8           0        2.915746    0.981340   -1.399621
     48          6           0        3.355768   -0.150274   -1.502145
     49          1           0        6.242827   -1.841457   -1.448119
     50          6           0        5.162742   -1.730554   -1.534470
     51          6           0        5.608915    0.689926   -1.186205
     52          7           0        4.703230   -0.439590   -1.413559
     53          1           0        4.517961    3.073877    3.583435
     54          1           0        3.291871    3.366441    2.547467
     55          1           0        4.835040    3.404991    2.017146
     56          1           0        1.924602   -3.320793    0.854274
     57          1           0        3.569314   -3.079761    1.237631
     58          7           0        2.651905   -2.693957    1.134037
     59          6           0        2.410194   -1.400877    1.359199
     60          6           0        2.993065    0.829267    1.949500
     61          7           0        1.751171    1.319710    1.802524
     62          1           0       -0.123011    0.670424    1.286309
     63          6           0        0.910394    0.357280    1.428728
     64          7           0        1.150546   -0.938413    1.202705
     65          1           0        6.160198    0.867826    2.597514
     66          6           0        5.139036    0.591996    2.332767
     67          7           0        4.756123   -0.616275    1.999385
     68          6           0        3.397519   -0.479801    1.753829
     69          6           0        4.197973    2.955463    2.643440
     70          7           0        4.123358    1.516680    2.323503
 ---------------------------------------------------------------------

 SCF Done:  E(RwB97XD) =  -2048.75253422     A.U. after   15 cycles

 The electronic state is 1-A.
 Alpha  occ. eigenvalues --  -19.25877 -19.22101 -19.20594 -14.52369 -14.52137
 Alpha  occ. eigenvalues --  -14.48792 -14.48626 -14.47792 -14.47430 -14.46862
 Alpha  occ. eigenvalues --  -14.46546 -14.45205 -14.43799 -14.43737 -14.42242
 Alpha  occ. eigenvalues --  -14.41950 -14.41347 -14.41036 -14.40769 -14.40268
 Alpha  occ. eigenvalues --  -10.45474 -10.41131 -10.40234 -10.39398 -10.38172
 Alpha  occ. eigenvalues --  -10.37773 -10.37718 -10.36790 -10.35433 -10.35315
 Alpha  occ. eigenvalues --  -10.35149 -10.34216 -10.34035 -10.33808 -10.33343
 Alpha  occ. eigenvalues --  -10.33233 -10.33165 -10.32215 -10.31129 -10.31051
 Alpha  occ. eigenvalues --  -10.30652 -10.28479 -10.27986  -1.19437  -1.14846
 Alpha  occ. eigenvalues --   -1.13150  -1.13129  -1.11336  -1.10482  -1.09272
 Alpha  occ. eigenvalues --   -1.08730  -1.08485  -1.05041  -1.04268  -1.02489
 Alpha  occ. eigenvalues --   -1.00635  -1.00460  -0.99642  -0.98475  -0.96974
 Alpha  occ. eigenvalues --   -0.96458  -0.96278  -0.92707  -0.91016  -0.87271
 Alpha  occ. eigenvalues --   -0.85650  -0.83995  -0.83952  -0.83595  -0.82365
 Alpha  occ. eigenvalues --   -0.82331  -0.78826  -0.76598  -0.74537  -0.74350
 Alpha  occ. eigenvalues --   -0.73574  -0.73341  -0.72917  -0.71085  -0.69968
 Alpha  occ. eigenvalues --   -0.67289  -0.66520  -0.66328  -0.66299  -0.64421
 Alpha  occ. eigenvalues --   -0.63813  -0.63669  -0.62738  -0.62618  -0.61654
 Alpha  occ. eigenvalues --   -0.60437  -0.60339  -0.60056  -0.59432  -0.59107
 Alpha  occ. eigenvalues --   -0.58907  -0.58264  -0.56685  -0.56575  -0.56314
 Alpha  occ. eigenvalues --   -0.55953  -0.55484  -0.54992  -0.54503  -0.54314
 Alpha  occ. eigenvalues --   -0.53707  -0.53568  -0.53147  -0.53035  -0.52860
 Alpha  occ. eigenvalues --   -0.52433  -0.52396  -0.51841  -0.50832  -0.50274
 Alpha  occ. eigenvalues --   -0.50095  -0.49566  -0.49443  -0.48936  -0.48834
 Alpha  occ. eigenvalues --   -0.48795  -0.48315  -0.48131  -0.47501  -0.47355
 Alpha  occ. eigenvalues --   -0.46991  -0.45587  -0.44935  -0.44323  -0.43866
 Alpha  occ. eigenvalues --   -0.41173  -0.40362  -0.39437  -0.37332  -0.37267
 Alpha  occ. eigenvalues --   -0.37206  -0.37184  -0.37042  -0.36027  -0.34444
 Alpha  occ. eigenvalues --   -0.33977  -0.33885  -0.33448  -0.33389  -0.33262
 Alpha  occ. eigenvalues --   -0.32615  -0.32331  -0.32015  -0.31815  -0.30966
 Alpha  occ. eigenvalues --   -0.30482  -0.29467  -0.25723  -0.25274
 Alpha virt. eigenvalues --    0.02950   0.04512   0.07311   0.07936   0.08641
 Alpha virt. eigenvalues --    0.09212   0.09842   0.10773   0.11038   0.11585
 Alpha virt. eigenvalues --    0.13008   0.14265   0.14574   0.14596   0.15154

 Mulliken charges:
               1
     1  N   -0.312583
     2  C    0.180240
     3  C    0.058987
     4  N   -0.257680
     5  C    0.133585
     6  H    0.026153
     7  N   -0.289620
     8  C    0.133736
     9  H    0.011388
    10  N   -0.291289
    11  C    0.236289
    12  C    0.107354
    13  N   -0.049239
    14  H    0.111248
    15  H    0.088509
    16  H    0.026274
    17  H    0.032092
    18  H    0.024279
    19  N   -0.306160
    20  C    0.252754
    21  C    0.180026
    22  N   -0.112024
    23  H    0.112525
    24  H    0.115558
    25  N   -0.307720
    26  C    0.234788
    27  N   -0.144518
    28  H    0.122356
    29  C    0.175561
    30  O   -0.323559
    31  C   -0.005158
    32  N   -0.224754
    33  C    0.130600
    34  H    0.021100
    35  H    0.030987
    36  H    0.027595
    37  H    0.022592
    38  H    0.058569
    39  H    0.060106
    40  H    0.070295
    41  H    0.026923
    42  C   -0.117835
    43  O   -0.271446
    44  C    0.163433
    45  H    0.134227
    46  N   -0.119353
    47  O   -0.342668
    48  C    0.341121
    49  H    0.047752
    50  C    0.180778
    51  C    0.039837
    52  N   -0.281905
    53  H    0.034294
    54  H    0.039460
    55  H    0.024416
    56  H    0.127564
    57  H    0.116353
    58  N   -0.055938
    59  C    0.095053
    60  C    0.251079
    61  N   -0.274255
    62  H    0.038902
    63  C    0.159195
    64  N   -0.301152
    65  H    0.035173
    66  C    0.124190
    67  N   -0.260292
    68  C    0.012086
    69  C    0.179758
    70  N   -0.307992
 Sum of Mulliken charges =  -0.00000

 Dipole moment (field-independent basis, Debye):
    X=              7.2284    Y=              6.4126    Z=              2.6287  Tot=             10.0140
 Quadrupole moment (field-independent basis, Debye-Ang):
   XX=           -147.6277   YY=           -223.1472   ZZ=           -255.2116
   XY=              5.9037   XZ=              5.3819   YZ=             -6.0232

 Normal termination of Gaussian 16 at Mon Jan 22 14:31:22 2018.
