 Gaussian 16, Revision A.03,
 Gaussian 16:  EM64L-G16RevA.03 25-Dec-2016

 ---------------------------------------
 #p wb97xd/cc-pvdz sp scf=(maxcycles=20)
 ---------------------------------------

 ------------------
 Base pair stacking
 ------------------
 Symbolic Z-matrix:
 Charge =  0 Multiplicity = 1

                         Standard orientation:
 ---------------------------------------------------------------------
 Center     Atomic      Atomic             Coordinates (Angstroms)
 Number     Number       Type             X           Y           Z
 ---------------------------------------------------------------------
      1          7           0       -7.160707   -1.221078    0.158528
      2          6           0       -8.501494   -0.614928    0.045038
      3          6           0       -5.005414   -1.523119    0.475989
      4          7           0       -5.525153   -2.763595    0.135687
      5          6           0       -6.802838   -2.531987   -0.041947
      6          1           0       -7.536833   -3.287935   -0.322534
      7          7           0       -3.524910    0.209458    1.083656
      8          6           0       -4.586777    1.021543    1.060460
      9          1           0       -4.381377    2.062687    1.305581
     10          7           0       -5.858292    0.741941    0.781242
     11          6           0       -6.001573   -0.562467    0.494148
     12          6           0       -3.701995   -1.097292    0.790168
     13          7           0       -2.643240   -1.909503    0.812793
     14          1           0       -2.727768   -2.884058    0.602253
     15          1           0       -1.729973   -1.571747    1.040839
     16          1           0       -9.123961   -1.055859    0.691804
     17          1           0       -8.445180    0.361552    0.251019
     18          1           0       -8.847702   -0.738256   -0.884971
     19          7           0       -2.455018    2.216417   -1.654479
     20          6           0       -1.112010    2.065219   -1.406443
     21          6           0       -3.217792    3.470064   -1.489409
     22          7           0        1.931002    3.405401   -0.403589
     23          1           0        2.872247    3.090578   -0.284470
     24          1           0        1.743383    4.365039   -0.192365
     25          7           0       -0.270334    3.028749   -0.973741
     26          6           0        0.963195    2.578611   -0.827484
     27          7           0        1.345301    1.284270   -1.084743
     28          1           0        2.310754    1.028693   -0.944923
     29          6           0        0.496263    0.276235   -1.530677
     30          8           0        0.942272   -0.859964   -1.732825
     31          6           0       -0.832358    0.744701   -1.692512
     32          7           0       -1.976770    0.080247   -2.111698
     33          6           0       -2.911653    0.990601   -2.073425
     34          1           0       -3.955035    0.820833   -2.341370
     35          1           0       -3.947219    3.332713   -0.820167
     36          1           0       -2.604695    4.191063   -1.169208
     37          1           0       -3.616118    3.737719   -2.366059
     38          1           0        7.102802    0.235967    0.558600
     39          1           0        7.449314    0.395789   -1.161582
     40          1           0        6.111265    1.294549   -0.445206
     41          1           0        5.748201   -4.102284   -1.019736
     42          6           0        5.375232   -3.078215   -0.999723
     43          8           0        3.139393   -3.687394   -1.506700
     44          6           0        3.988929   -2.832817   -1.256182
     45          1           0        2.650153   -1.290074   -1.382535
     46          7           0        3.621945   -1.503112   -1.206570
     47          8           0        4.017117    0.714868   -0.920909
     48          6           0        4.435146   -0.429434   -0.943007
     49          1           0        7.255231   -2.184782   -0.538008
     50          6           0        6.193163   -2.051611   -0.739584
     51          6           0        6.665139    0.367889   -0.419721
     52          7           0        5.758096   -0.747024   -0.706024
     53          1           0        3.408340    3.434250    3.136225
     54          1           0        2.307323    3.565028    1.939243
     55          1           0        3.894044    3.438439    1.578184
     56          1           0        0.718550   -3.266121    1.422883
     57          1           0        2.329896   -3.018700    1.925310
     58          7           0        1.451084   -2.625344    1.652966
     59          6           0        1.265323   -1.304816    1.599346
     60          6           0        1.918772    0.973418    1.810023
     61          7           0        0.727907    1.473412    1.440878
     62          1           0       -1.122660    0.808828    0.862638
     63          6           0       -0.128069    0.489781    1.171268
     64          7           0        0.056075   -0.833415    1.224385
     65          1           0        5.005331    1.015185    2.771070
     66          6           0        4.000024    0.732691    2.457198
     67          7           0        3.580607   -0.501679    2.322698
     68          6           0        2.262447   -0.363314    1.912761
     69          6           0        3.174154    3.145952    2.207765
     70          7           0        3.046196    1.676370    2.163249
 ---------------------------------------------------------------------

 SCF Done:  E(RwB97XD) =  -2048.72706592     A.U. after   15 cycles

 The electronic state is 1-A.
 Alpha  occ. eigenvalues --  -19.25977 -19.21990 -19.20572 -14.52464 -14.51498
 Alpha  occ. eigenvalues --  -14.49553 -14.48642 -14.47870 -14.46945 -14.46616
 Alpha  occ. eigenvalues --  -14.46502 -14.44413 -14.42835 -14.42834 -14.42496
 Alpha  occ. eigenvalues --  -14.42229 -14.41943 -14.41780 -14.40948 -14.40716
 Alpha  occ. eigenvalues --  -10.45567 -10.41274 -10.40102 -10.38493 -10.38189
 Alpha  occ. eigenvalues --  -10.37746 -10.37020 -10.36185 -10.35874 -10.35605
 Alpha  occ. eigenvalues --  -10.34881 -10.34313 -10.34223 -10.34212 -10.33939
 Alpha  occ. eigenvalues --  -10.33436 -10.33212 -10.31580 -10.31411 -10.31040
 Alpha  occ. eigenvalues --  -10.30613 -10.29393 -10.28116  -1.19506  -1.14181
 Alpha  occ. eigenvalues --   -1.13212  -1.13017  -1.12163  -1.10526  -1.09358
 Alpha  occ. eigenvalues --   -1.08692  -1.07807  -1.05789  -1.03392  -1.02505
 Alpha  occ. eigenvalues --   -1.01195  -1.00314  -0.99689  -0.98469  -0.97717
 Alpha  occ. eigenvalues --   -0.96477  -0.95426  -0.93426  -0.91039  -0.86640
 Alpha  occ. eigenvalues --   -0.85148  -0.84719  -0.84083  -0.83835  -0.83048
 Alpha  occ. eigenvalues --   -0.82383  -0.78878  -0.75830  -0.74653  -0.73843
 Alpha  occ. eigenvalues --   -0.73678  -0.73486  -0.73364  -0.71876  -0.69257
 Alpha  occ. eigenvalues --   -0.67535  -0.67056  -0.66576  -0.65596  -0.64478
 Alpha  occ. eigenvalues --   -0.63774  -0.63511  -0.63093  -0.62731  -0.61957
 Alpha  occ. eigenvalues --   -0.60908  -0.59978  -0.59563  -0.59440  -0.59358
 Alpha  occ. eigenvalues --   -0.58500  -0.58344  -0.57221  -0.57103  -0.56805
 Alpha  occ. eigenvalues --   -0.56078  -0.55978  -0.55153  -0.54454  -0.54362
 Alpha  occ. eigenvalues --   -0.53633  -0.53503  -0.52911  -0.52844  -0.52650
 Alpha  occ. eigenvalues --   -0.52392  -0.52153  -0.51757  -0.51516  -0.50909
 Alpha  occ. eigenvalues --   -0.50097  -0.49796  -0.49465  -0.48939  -0.48734
 Alpha  occ. eigenvalues --   -0.48610  -0.48229  -0.47891  -0.47769  -0.47498
 Alpha  occ. eigenvalues --   -0.47364  -0.45798  -0.45325  -0.44016  -0.42850
 Alpha  occ. eigenvalues --   -0.41996  -0.39555  -0.39446  -0.37991  -0.37348
 Alpha  occ. eigenvalues --   -0.37206  -0.36553  -0.36287  -0.35811  -0.34864
 Alpha  occ. eigenvalues --   -0.34310  -0.34252  -0.33192  -0.33020  -0.32809
 Alpha  occ. eigenvalues --   -0.32543  -0.32111  -0.31957  -0.31825  -0.31684
 Alpha  occ. eigenvalues --   -0.31117  -0.28476  -0.26581  -0.25344
 Alpha virt. eigenvalues --    0.03171   0.04931   0.07134   0.08023   0.08375
 Alpha virt. eigenvalues --    0.09377   0.09683   0.10075   0.11096   0.12238
 Alpha virt. eigenvalues --    0.12728   0.13377   0.14418   0.14677   0.14914

 Mulliken charges:
               1
     1  N   -0.311549
     2  C    0.180658
     3  C    0.034885
     4  N   -0.258001
     5  C    0.134328
     6  H    0.029197
     7  N   -0.280544
     8  C    0.116886
     9  H    0.019157
    10  N   -0.287375
    11  C    0.237854
    12  C    0.113333
    13  N   -0.048918
    14  H    0.107583
    15  H    0.088500
    16  H    0.027330
    17  H    0.035356
    18  H    0.026825
    19  N   -0.302199
    20  C    0.225459
    21  C    0.183633
    22  N   -0.104979
    23  H    0.111491
    24  H    0.118541
    25  N   -0.282433
    26  C    0.210043
    27  N   -0.111266
    28  H    0.121417
    29  C    0.140890
    30  O   -0.320902
    31  C    0.002112
    32  N   -0.221357
    33  C    0.128699
    34  H    0.029426
    35  H    0.024557
    36  H    0.027170
    37  H    0.023845
    38  H    0.058725
    39  H    0.062560
    40  H    0.069891
    41  H    0.031141
    42  C   -0.110276
    43  O   -0.269291
    44  C    0.177783
    45  H    0.135374
    46  N   -0.135865
    47  O   -0.353329
    48  C    0.364522
    49  H    0.047325
    50  C    0.176529
    51  C    0.039329
    52  N   -0.294020
    53  H    0.032494
    54  H    0.037561
    55  H    0.015859
    56  H    0.120495
    57  H    0.118133
    58  N   -0.060444
    59  C    0.123750
    60  C    0.226304
    61  N   -0.258892
    62  H    0.059081
    63  C    0.143058
    64  N   -0.299575
    65  H    0.026074
    66  C    0.128272
    67  N   -0.261774
    68  C    0.017670
    69  C    0.166993
    70  N   -0.305101
 Sum of Mulliken charges =  -0.00000

 Dipole moment (field-independent basis, Debye):
    X=              6.4295    Y=              5.8494    Z=              3.2125  Tot=              9.2668
 Quadrupole moment (field-independent basis, Debye-Ang):
   XX=           -139.8655   YY=           -225.7886   ZZ=           -253.6287
   XY=             11.9152   XZ=             16.1942   YZ=             -9.0278

 Normal termination of Gaussian 16 at Mon Jan 22 17:15:03 2018.
