 Gaussian 16, Revision A.03,
 Gaussian 16:  EM64L-G16RevA.03 25-Dec-2016

 ---------------------------------------
 #p wb97xd/cc-pvdz sp scf=(maxcycles=20)
 ---------------------------------------

 ------------------
 Base pair stacking
 ------------------
 Symbolic Z-matrix:
 Charge =  0 Multiplicity = 1

                         Standard orientation:
 ---------------------------------------------------------------------
 Center     Atomic      Atomic             Coordinates (Angstroms)
 Number     Number       Type             X           Y           Z
 ---------------------------------------------------------------------
      1          7           0       -6.327744   -1.335456    0.675341
      2          6           0       -7.675565   -0.756742    0.512661
      3          6           0       -4.159872   -1.580184    0.954183
      4          7           0       -4.685104   -2.860276    0.853070
      5          6           0       -5.970146   -2.661593    0.689127
      6          1           0       -6.710026   -3.453937    0.572017
      7          7           0       -2.667100    0.229851    1.195753
      8          6           0       -3.733913    1.026730    1.075479
      9          1           0       -3.525311    2.094358    1.129653
     10          7           0       -5.013703    0.704331    0.899172
     11          6           0       -5.160308   -0.629899    0.846471
     12          6           0       -2.847712   -1.107757    1.138507
     13          7           0       -1.784019   -1.904859    1.258360
     14          1           0       -1.870882   -2.901025    1.221988
     15          1           0       -0.864558   -1.533669    1.388533
     16          1           0       -8.269508   -1.079344    1.249779
     17          1           0       -7.617071    0.240574    0.545328
     18          1           0       -8.057260   -1.037892   -0.367830
     19          7           0       -3.423657    2.028112   -1.485625
     20          6           0       -2.066840    1.913823   -1.301174
     21          6           0       -4.225695    3.234235   -1.198042
     22          7           0        0.962222    3.299377   -0.317906
     23          1           0        1.918763    3.015173   -0.258803
     24          1           0        0.747417    4.232511   -0.028357
     25          7           0       -1.244962    2.876428   -0.830033
     26          6           0        0.009628    2.467267   -0.765199
     27          7           0        0.429325    1.211872   -1.133129
     28          1           0        1.408663    0.986182   -1.049885
     29          6           0       -0.398770    0.205606   -1.620520
     30          8           0        0.081043   -0.893645   -1.924121
     31          6           0       -1.749628    0.630306   -1.695849
     32          7           0       -2.884480   -0.047561   -2.119544
     33          6           0       -3.850628    0.818787   -1.977438
     34          1           0       -4.897023    0.626868   -2.217238
     35          1           0       -4.921249    3.018643   -0.513557
     36          1           0       -3.627531    3.954121   -0.848422
     37          1           0       -4.669571    3.549068   -2.036294
     38          1           0        6.285012    0.280690    0.205586
     39          1           0        6.554144    0.580197   -1.509794
     40          1           0        5.213798    1.368886   -0.677425
     41          1           0        5.031033   -3.981561   -1.640321
     42          6           0        4.620878   -2.977720   -1.529390
     43          8           0        2.390605   -3.638415   -1.994668
     44          6           0        3.216928   -2.770700   -1.713520
     45          1           0        1.816899   -1.278528   -1.672638
     46          7           0        2.802446   -1.464237   -1.550428
     47          8           0        3.125180    0.741037   -1.114743
     48          6           0        3.584770   -0.380627   -1.238485
     49          1           0        6.483278   -2.044902   -1.074318
     50          6           0        5.409555   -1.940574   -1.224558
     51          6           0        5.802782    0.466125   -0.742644
     52          7           0        4.927376   -0.660725   -1.076741
     53          1           0        4.321863    3.753844    2.386649
     54          1           0        3.173961    3.677719    1.229657
     55          1           0        4.746023    3.489595    0.833040
     56          1           0        1.607208   -3.139127    1.958622
     57          1           0        3.235520   -2.810318    2.346698
     58          7           0        2.344345   -2.468929    2.045896
     59          6           0        2.148695   -1.177154    1.773504
     60          6           0        2.796203    1.102825    1.563351
     61          7           0        1.588791    1.532871    1.161322
     62          1           0       -0.279016    0.780291    0.779838
     63          6           0        0.728818    0.518239    1.098981
     64          7           0        0.922858   -0.776253    1.371390
     65          1           0        5.917793    1.306694    2.379631
     66          6           0        4.902670    0.975256    2.159135
     67          7           0        4.485721   -0.263507    2.255559
     68          6           0        3.151679   -0.196599    1.880602
     69          6           0        4.053156    3.310341    1.531595
     70          7           0        3.932386    1.855119    1.745463
 ---------------------------------------------------------------------

 SCF Done:  E(RwB97XD) =  -2048.69291402     A.U. after   15 cycles

 The electronic state is 1-A.
 Alpha  occ. eigenvalues --  -19.25787 -19.21830 -19.20424 -14.52367 -14.52193
 Alpha  occ. eigenvalues --  -14.49251 -14.48250 -14.47809 -14.47780 -14.46235
 Alpha  occ. eigenvalues --  -14.45307 -14.45161 -14.43820 -14.42914 -14.42782
 Alpha  occ. eigenvalues --  -14.41863 -14.41751 -14.41553 -14.40703 -14.40550
 Alpha  occ. eigenvalues --  -10.45413 -10.40481 -10.39959 -10.39558 -10.37835
 Alpha  occ. eigenvalues --  -10.37725 -10.37649 -10.36808 -10.36004 -10.35427
 Alpha  occ. eigenvalues --  -10.35229 -10.34594 -10.34500 -10.33905 -10.33875
 Alpha  occ. eigenvalues --  -10.33684 -10.32993 -10.31982 -10.31472 -10.30956
 Alpha  occ. eigenvalues --  -10.30165 -10.28975 -10.27682  -1.19483  -1.14939
 Alpha  occ. eigenvalues --   -1.13086  -1.12876  -1.11828  -1.10322  -1.09275
 Alpha  occ. eigenvalues --   -1.08958  -1.08175  -1.05580  -1.04425  -1.02403
 Alpha  occ. eigenvalues --   -1.01076  -1.00829  -0.99214  -0.98345  -0.97469
 Alpha  occ. eigenvalues --   -0.96465  -0.96148  -0.93278  -0.90938  -0.87528
 Alpha  occ. eigenvalues --   -0.86079  -0.84465  -0.83706  -0.83629  -0.82826
 Alpha  occ. eigenvalues --   -0.82012  -0.78767  -0.76818  -0.74786  -0.74309
 Alpha  occ. eigenvalues --   -0.73452  -0.73306  -0.73214  -0.71682  -0.70305
 Alpha  occ. eigenvalues --   -0.67032  -0.66889  -0.66680  -0.66416  -0.64397
 Alpha  occ. eigenvalues --   -0.64187  -0.63500  -0.63311  -0.62798  -0.61281
 Alpha  occ. eigenvalues --   -0.60980  -0.60862  -0.60512  -0.59529  -0.59341
 Alpha  occ. eigenvalues --   -0.58895  -0.58158  -0.57497  -0.56952  -0.56565
 Alpha  occ. eigenvalues --   -0.55968  -0.55819  -0.55235  -0.55124  -0.54327
 Alpha  occ. eigenvalues --   -0.54209  -0.53346  -0.53289  -0.52826  -0.52543
 Alpha  occ. eigenvalues --   -0.52433  -0.52286  -0.52230  -0.51337  -0.50599
 Alpha  occ. eigenvalues --   -0.49844  -0.49639  -0.49341  -0.48917  -0.48723
 Alpha  occ. eigenvalues --   -0.48502  -0.48279  -0.47958  -0.47424  -0.47178
 Alpha  occ. eigenvalues --   -0.47160  -0.45840  -0.45063  -0.43901  -0.43676
 Alpha  occ. eigenvalues --   -0.41609  -0.41040  -0.39485  -0.37896  -0.37767
 Alpha  occ. eigenvalues --   -0.37505  -0.37009  -0.36642  -0.35858  -0.34466
 Alpha  occ. eigenvalues --   -0.34117  -0.34030  -0.33858  -0.33006  -0.32458
 Alpha  occ. eigenvalues --   -0.32210  -0.31823  -0.31760  -0.31605  -0.31208
 Alpha  occ. eigenvalues --   -0.30928  -0.28964  -0.26201  -0.24608
 Alpha virt. eigenvalues --    0.03189   0.04349   0.07066   0.07439   0.08700
 Alpha virt. eigenvalues --    0.09434   0.10003   0.10467   0.11021   0.11593
 Alpha virt. eigenvalues --    0.13065   0.13712   0.13982   0.14772   0.14974

 Mulliken charges:
               1
     1  N   -0.313386
     2  C    0.180158
     3  C    0.055681
     4  N   -0.260437
     5  C    0.134461
     6  H    0.027712
     7  N   -0.275212
     8  C    0.144696
     9  H    0.007046
    10  N   -0.291559
    11  C    0.236798
    12  C    0.108283
    13  N   -0.053124
    14  H    0.107723
    15  H    0.087040
    16  H    0.027096
    17  H    0.031422
    18  H    0.027084
    19  N   -0.286875
    20  C    0.222065
    21  C    0.174413
    22  N   -0.055098
    23  H    0.110949
    24  H    0.106073
    25  N   -0.292082
    26  C    0.182459
    27  N   -0.139743
    28  H    0.131190
    29  C    0.143137
    30  O   -0.321828
    31  C    0.032473
    32  N   -0.219492
    33  C    0.120317
    34  H    0.017860
    35  H    0.028701
    36  H    0.026743
    37  H    0.022083
    38  H    0.059586
    39  H    0.059515
    40  H    0.063806
    41  H    0.030233
    42  C   -0.114198
    43  O   -0.264797
    44  C    0.179294
    45  H    0.132118
    46  N   -0.129776
    47  O   -0.341006
    48  C    0.349698
    49  H    0.046833
    50  C    0.176310
    51  C    0.049306
    52  N   -0.286752
    53  H    0.037545
    54  H    0.022409
    55  H    0.026201
    56  H    0.121981
    57  H    0.118340
    58  N   -0.066184
    59  C    0.111760
    60  C    0.265056
    61  N   -0.316150
    62  H    0.035654
    63  C    0.187702
    64  N   -0.306051
    65  H    0.035029
    66  C    0.102277
    67  N   -0.252655
    68  C   -0.001849
    69  C    0.182072
    70  N   -0.298137
 Sum of Mulliken charges =  -0.00000

 Dipole moment (field-independent basis, Debye):
    X=              6.7062    Y=              6.0376    Z=              3.8592  Tot=              9.8142
 Quadrupole moment (field-independent basis, Debye-Ang):
   XX=           -146.2246   YY=           -226.9970   ZZ=           -257.3473
   XY=              8.4986   XZ=              6.2607   YZ=            -12.4236

 Normal termination of Gaussian 16 at Mon Jan 22 10:36:55 2018.
