 Gaussian 16, Revision A.03,
 Gaussian 16:  EM64L-G16RevA.03 25-Dec-2016

 ---------------------------------------
 #p wb97xd/cc-pvdz sp scf=(maxcycles=20)
 ---------------------------------------

 ------------------
 Base pair stacking
 ------------------
 Symbolic Z-matrix:
 Charge =  0 Multiplicity = 1

                         Standard orientation:
 ---------------------------------------------------------------------
 Center     Atomic      Atomic             Coordinates (Angstroms)
 Number     Number       Type             X           Y           Z
 ---------------------------------------------------------------------
      1          7           0        4.272665   -1.583337   -1.913434
      2          6           0        5.637399   -1.081364   -2.165438
      3          6           0        2.095719   -1.715441   -1.629204
      4          7           0        2.587750   -3.001740   -1.461645
      5          6           0        3.879576   -2.870668   -1.639590
      6          1           0        4.599399   -3.687661   -1.581999
      7          7           0        0.649009    0.141005   -1.782729
      8          6           0        1.738165    0.871822   -2.041995
      9          1           0        1.557535    1.933103   -2.207250
     10          7           0        3.010976    0.490278   -2.127377
     11          6           0        3.122481   -0.830308   -1.908169
     12          6           0        0.794479   -1.184612   -1.566702
     13          7           0       -0.291562   -1.915804   -1.307744
     14          1           0       -0.230931   -2.900650   -1.141560
     15          1           0       -1.202314   -1.504320   -1.271034
     16          1           0        6.021945   -1.543957   -2.964372
     17          1           0        5.605204   -0.096802   -2.334976
     18          1           0        6.213703   -1.261956   -1.368403
     19          7           0        5.497714    1.814914    0.711280
     20          6           0        4.130453    1.771233    0.840600
     21          6           0        6.284021    3.014286    0.359240
     22          7           0        1.046528    3.364782    0.732188
     23          1           0        0.086536    3.124095    0.872657
     24          1           0        1.245378    4.314855    0.490230
     25          7           0        3.282408    2.808284    0.669192
     26          6           0        2.024000    2.455081    0.862231
     27          7           0        1.624538    1.184057    1.197544
     28          1           0        0.640426    1.004920    1.325553
     29          6           0        2.479691    0.101643    1.379064
     30          8           0        2.016555   -1.005162    1.681094
     31          6           0        3.834982    0.465611    1.175051
     32          7           0        4.993432   -0.295070    1.254101
     33          6           0        5.951926    0.545123    0.972004
     34          1           0        7.011754    0.290162    0.940052
     35          1           0        6.789233    2.847201   -0.486725
     36          1           0        5.666450    3.788955    0.229811
     37          1           0        6.926960    3.221415    1.095815
     38          1           0       -4.427567    0.618121    1.189099
     39          1           0       -4.276567    0.743031    2.940165
     40          1           0       -3.117957    1.565701    1.895079
     41          1           0       -3.044547   -3.859931    2.275755
     42          6           0       -2.610591   -2.865864    2.167426
     43          8           0       -0.377514   -3.654457    2.031106
     44          6           0       -1.191979   -2.731742    2.035529
     45          1           0        0.249265   -1.296560    1.808877
     46          7           0       -0.747410   -1.431586    1.904454
     47          8           0       -1.026890    0.817976    1.768098
     48          6           0       -1.513093   -0.292707    1.889243
     49          1           0       -4.467462   -1.821592    2.253067
     50          6           0       -3.383638   -1.773676    2.156185
     51          6           0       -3.729977    0.683550    2.010774
     52          7           0       -2.871422   -0.504093    2.021460
     53          1           0       -6.300205    3.934453   -1.804107
     54          1           0       -4.907060    3.942551   -0.954892
     55          1           0       -6.339428    3.920073   -0.172643
     56          1           0       -3.789364   -3.000451   -0.986634
     57          1           0       -5.451538   -2.618336   -1.022678
     58          7           0       -4.503205   -2.300117   -0.997628
     59          6           0       -4.204842   -0.999415   -0.979688
     60          6           0       -4.706578    1.326510   -0.972064
     61          7           0       -3.424131    1.724783   -0.938451
     62          1           0       -1.545312    0.906724   -0.900931
     63          6           0       -2.608603    0.672313   -0.927998
     64          7           0       -2.905485   -0.631189   -0.945924
     65          1           0       -7.924669    1.627666   -1.045528
     66          6           0       -6.897810    1.261543   -1.024344
     67          7           0       -6.557737   -0.004163   -1.026913
     68          6           0       -5.171045    0.022927   -0.993946
     69          6           0       -5.844914    3.597676   -0.979926
     70          7           0       -5.827642    2.122026   -0.991875
 ---------------------------------------------------------------------

 SCF Done:  E(RwB97XD) =  -2048.74781709     A.U. after   15 cycles

 The electronic state is 1-A.
 Alpha  occ. eigenvalues --  -19.25163 -19.21272 -19.20601 -14.52793 -14.51534
 Alpha  occ. eigenvalues --  -14.49196 -14.48895 -14.48304 -14.47097 -14.46768
 Alpha  occ. eigenvalues --  -14.46673 -14.45682 -14.45082 -14.44892 -14.43035
 Alpha  occ. eigenvalues --  -14.42043 -14.41509 -14.41186 -14.40926 -14.40735
 Alpha  occ. eigenvalues --  -10.44693 -10.41241 -10.40649 -10.39395 -10.38265
 Alpha  occ. eigenvalues --  -10.38259 -10.37666 -10.37151 -10.36383 -10.35841
 Alpha  occ. eigenvalues --  -10.34580 -10.34081 -10.33879 -10.33868 -10.33688
 Alpha  occ. eigenvalues --  -10.33296 -10.33260 -10.33235 -10.31292 -10.30444
 Alpha  occ. eigenvalues --  -10.30324 -10.28532 -10.28353  -1.18696  -1.15600
 Alpha  occ. eigenvalues --   -1.13263  -1.12299  -1.10986  -1.10876  -1.10015
 Alpha  occ. eigenvalues --   -1.08620  -1.08441  -1.05472  -1.05360  -1.01707
 Alpha  occ. eigenvalues --   -1.01312  -1.00829  -0.99743  -0.98665  -0.97544
 Alpha  occ. eigenvalues --   -0.96920  -0.96639  -0.93073  -0.90331  -0.88141
 Alpha  occ. eigenvalues --   -0.86218  -0.84419  -0.83730  -0.82874  -0.82654
 Alpha  occ. eigenvalues --   -0.82013  -0.78163  -0.77528  -0.75382  -0.74817
 Alpha  occ. eigenvalues --   -0.73675  -0.72989  -0.72620  -0.71181  -0.70911
 Alpha  occ. eigenvalues --   -0.67480  -0.67317  -0.66382  -0.65857  -0.64703
 Alpha  occ. eigenvalues --   -0.64434  -0.63385  -0.62861  -0.62639  -0.61887
 Alpha  occ. eigenvalues --   -0.61048  -0.60772  -0.60543  -0.59858  -0.58981
 Alpha  occ. eigenvalues --   -0.58845  -0.58377  -0.57166  -0.56643  -0.55892
 Alpha  occ. eigenvalues --   -0.55741  -0.55635  -0.55547  -0.54926  -0.54158
 Alpha  occ. eigenvalues --   -0.53993  -0.53758  -0.53274  -0.53196  -0.53008
 Alpha  occ. eigenvalues --   -0.51970  -0.51523  -0.51477  -0.50541  -0.50420
 Alpha  occ. eigenvalues --   -0.50243  -0.50062  -0.49687  -0.49137  -0.48928
 Alpha  occ. eigenvalues --   -0.48786  -0.48092  -0.48043  -0.47555  -0.47074
 Alpha  occ. eigenvalues --   -0.46905  -0.45813  -0.45470  -0.45028  -0.42910
 Alpha  occ. eigenvalues --   -0.41451  -0.41095  -0.38933  -0.38277  -0.38072
 Alpha  occ. eigenvalues --   -0.37626  -0.37336  -0.36985  -0.35441  -0.35182
 Alpha  occ. eigenvalues --   -0.34926  -0.34118  -0.33573  -0.33540  -0.33049
 Alpha  occ. eigenvalues --   -0.32614  -0.32419  -0.31943  -0.31063  -0.30748
 Alpha  occ. eigenvalues --   -0.30663  -0.30567  -0.26023  -0.25677
 Alpha virt. eigenvalues --    0.03099   0.04172   0.06239   0.07768   0.08798
 Alpha virt. eigenvalues --    0.09077   0.09714   0.10170   0.10815   0.11981
 Alpha virt. eigenvalues --    0.13466   0.13983   0.14221   0.14606   0.14738

 Mulliken charges:
               1
     1  N   -0.304672
     2  C    0.183015
     3  C    0.064459
     4  N   -0.257970
     5  C    0.151785
     6  H    0.029090
     7  N   -0.290423
     8  C    0.123041
     9  H    0.010595
    10  N   -0.274504
    11  C    0.239889
    12  C    0.078556
    13  N   -0.066238
    14  H    0.115149
    15  H    0.082612
    16  H    0.022624
    17  H    0.027612
    18  H    0.027804
    19  N   -0.308388
    20  C    0.268523
    21  C    0.183125
    22  N   -0.117120
    23  H    0.122229
    24  H    0.118038
    25  N   -0.304141
    26  C    0.223345
    27  N   -0.128311
    28  H    0.119036
    29  C    0.180099
    30  O   -0.319004
    31  C   -0.015882
    32  N   -0.228416
    33  C    0.110362
    34  H    0.023543
    35  H    0.024266
    36  H    0.031611
    37  H    0.025227
    38  H    0.063638
    39  H    0.054109
    40  H    0.076436
    41  H    0.022866
    42  C   -0.116874
    43  O   -0.265820
    44  C    0.171551
    45  H    0.134084
    46  N   -0.124941
    47  O   -0.349392
    48  C    0.345288
    49  H    0.043059
    50  C    0.169835
    51  C    0.044989
    52  N   -0.276386
    53  H    0.034777
    54  H    0.041089
    55  H    0.030597
    56  H    0.120216
    57  H    0.119870
    58  N   -0.061320
    59  C    0.084069
    60  C    0.209077
    61  N   -0.254609
    62  H    0.028822
    63  C    0.162028
    64  N   -0.304509
    65  H    0.040770
    66  C    0.139372
    67  N   -0.255815
    68  C    0.027986
    69  C    0.180295
    70  N   -0.305723
 Sum of Mulliken charges =  -0.00000

 Dipole moment (field-independent basis, Debye):
    X=             -7.2925    Y=              7.3648    Z=             -1.4010  Tot=             10.4587
 Quadrupole moment (field-independent basis, Debye-Ang):
   XX=           -157.7525   YY=           -224.9569   ZZ=           -252.5476
   XY=              3.7048   XZ=            -16.7638   YZ=             12.0430

 Normal termination of Gaussian 16 at Mon Jan 22 17:26:43 2018.
