 Gaussian 16, Revision A.03,
 Gaussian 16:  EM64L-G16RevA.03 25-Dec-2016

 ---------------------------------------
 #p wb97xd/cc-pvdz sp scf=(maxcycles=20)
 ---------------------------------------

 ------------------
 Base pair stacking
 ------------------
 Symbolic Z-matrix:
 Charge =  0 Multiplicity = 1

                         Standard orientation:
 ---------------------------------------------------------------------
 Center     Atomic      Atomic             Coordinates (Angstroms)
 Number     Number       Type             X           Y           Z
 ---------------------------------------------------------------------
      1          7           0        5.493563   -1.476327   -1.243593
      2          6           0        6.863861   -0.928334   -1.245484
      3          6           0        3.303819   -1.674173   -1.300047
      4          7           0        3.806509   -2.960703   -1.170217
      5          6           0        5.105630   -2.790018   -1.141406
      6          1           0        5.834771   -3.595149   -1.046179
      7          7           0        1.837124    0.160892   -1.510499
      8          6           0        2.928762    0.932223   -1.541386
      9          1           0        2.740741    2.000339   -1.641441
     10          7           0        4.211763    0.583851   -1.467570
     11          6           0        4.331762   -0.748596   -1.346611
     12          6           0        1.991325   -1.175642   -1.388031
     13          7           0        0.902824   -1.947252   -1.357011
     14          1           0        0.969656   -2.941610   -1.267508
     15          1           0       -0.016043   -1.557924   -1.422143
     16          1           0        7.376363   -1.311187   -2.014218
     17          1           0        6.825651    0.066566   -1.334075
     18          1           0        7.321997   -1.167704   -0.389449
     19          7           0        4.321050    1.961402    1.231658
     20          6           0        2.950775    1.878147    1.172806
     21          6           0        5.118841    3.157767    0.895620
     22          7           0       -0.125874    3.345366    0.507056
     23          1           0       -1.089727    3.081507    0.531888
     24          1           0        0.081248    4.280494    0.218344
     25          7           0        2.109706    2.867336    0.801092
     26          6           0        0.845928    2.484584    0.845526
     27          7           0        0.435135    1.229596    1.224683
     28          1           0       -0.552380    1.025218    1.228842
     29          6           0        1.282953    0.196254    1.611056
     30          8           0        0.809723   -0.899996    1.935100
     31          6           0        2.643878    0.592404    1.568378
     32          7           0        3.798262   -0.117258    1.869511
     33          6           0        4.765587    0.732910    1.655758
     34          1           0        5.825353    0.514946    1.792362
     35          1           0        5.742681    2.944282    0.144578
     36          1           0        4.506509    3.897147    0.618798
     37          1           0        5.645712    3.444442    1.695022
     38          1           0       -5.538753    0.445017    0.421291
     39          1           0       -5.640176    0.710291    2.160251
     40          1           0       -4.366441    1.491310    1.222722
     41          1           0       -4.211218   -3.882407    2.051519
     42          6           0       -3.791431   -2.884562    1.923783
     43          8           0       -1.542416   -3.599615    2.164016
     44          6           0       -2.372258   -2.709539    1.979843
     45          1           0       -0.949982   -1.244720    1.839343
     46          7           0       -1.946442   -1.408099    1.806153
     47          8           0       -2.260304    0.812534    1.449098
     48          6           0       -2.730670   -0.302398    1.591744
     49          1           0       -5.667403   -1.905007    1.664942
     50          6           0       -4.582338   -1.825344    1.716071
     51          6           0       -4.966285    0.599073    1.323847
     52          7           0       -4.088280   -0.552189    1.550677
     53          1           0       -5.150419    3.809305   -2.249220
     54          1           0       -3.898436    3.768682   -1.203745
     55          1           0       -5.428903    3.650111   -0.649051
     56          1           0       -2.567831   -3.121980   -1.655037
     57          1           0       -4.217883   -2.769680   -1.906615
     58          7           0       -3.294192   -2.437036   -1.713318
     59          6           0       -3.043276   -1.137591   -1.541095
     60          6           0       -3.614451    1.168652   -1.411892
     61          7           0       -2.364256    1.586586   -1.153474
     62          1           0       -0.486351    0.804086   -0.904941
     63          6           0       -1.526060    0.552919   -1.110312
     64          7           0       -1.775419   -0.749287   -1.282544
     65          1           0       -6.794594    1.414213   -1.939662
     66          6           0       -5.770909    1.067139   -1.796322
     67          7           0       -5.394051   -0.186739   -1.855049
     68          6           0       -4.028894   -0.136450   -1.613067
     69          6           0       -4.810923    3.409705   -1.397710
     70          7           0       -4.745123    1.941468   -1.531664
 ---------------------------------------------------------------------

 SCF Done:  E(RwB97XD) =  -2048.74306788     A.U. after   15 cycles

 The electronic state is 1-A.
 Alpha  occ. eigenvalues --  -19.25301 -19.21529 -19.20442 -14.52846 -14.51927
 Alpha  occ. eigenvalues --  -14.48759 -14.48525 -14.48288 -14.47351 -14.46570
 Alpha  occ. eigenvalues --  -14.46114 -14.45897 -14.44615 -14.44564 -14.42687
 Alpha  occ. eigenvalues --  -14.41737 -14.41365 -14.41125 -14.40706 -14.40376
 Alpha  occ. eigenvalues --  -10.44905 -10.40932 -10.40322 -10.39647 -10.38358
 Alpha  occ. eigenvalues --  -10.38006 -10.37550 -10.37332 -10.36054 -10.35663
 Alpha  occ. eigenvalues --  -10.34436 -10.34371 -10.34068 -10.33973 -10.33439
 Alpha  occ. eigenvalues --  -10.33126 -10.33106 -10.33022 -10.31196 -10.30658
 Alpha  occ. eigenvalues --  -10.30427 -10.28558 -10.27824  -1.19069  -1.15657
 Alpha  occ. eigenvalues --   -1.12945  -1.12568  -1.11339  -1.10261  -1.09626
 Alpha  occ. eigenvalues --   -1.08869  -1.08261  -1.05241  -1.05119  -1.02007
 Alpha  occ. eigenvalues --   -1.01416  -1.00706  -0.99324  -0.98310  -0.97237
 Alpha  occ. eigenvalues --   -0.96966  -0.96264  -0.92930  -0.90598  -0.88048
 Alpha  occ. eigenvalues --   -0.86336  -0.84058  -0.83762  -0.83181  -0.82457
 Alpha  occ. eigenvalues --   -0.82118  -0.78420  -0.77412  -0.75285  -0.74306
 Alpha  occ. eigenvalues --   -0.73318  -0.73061  -0.72901  -0.71214  -0.70788
 Alpha  occ. eigenvalues --   -0.67205  -0.67014  -0.66503  -0.66087  -0.64658
 Alpha  occ. eigenvalues --   -0.64123  -0.63469  -0.62940  -0.62496  -0.61439
 Alpha  occ. eigenvalues --   -0.61260  -0.60868  -0.60673  -0.59810  -0.59153
 Alpha  occ. eigenvalues --   -0.58696  -0.57941  -0.57059  -0.56699  -0.56089
 Alpha  occ. eigenvalues --   -0.55876  -0.55716  -0.55554  -0.54295  -0.54200
 Alpha  occ. eigenvalues --   -0.53866  -0.53659  -0.53376  -0.53243  -0.52985
 Alpha  occ. eigenvalues --   -0.52621  -0.52087  -0.51973  -0.50901  -0.50292
 Alpha  occ. eigenvalues --   -0.50166  -0.49796  -0.49141  -0.49057  -0.48903
 Alpha  occ. eigenvalues --   -0.48440  -0.48348  -0.48028  -0.47244  -0.47109
 Alpha  occ. eigenvalues --   -0.47034  -0.45751  -0.44712  -0.44594  -0.43160
 Alpha  occ. eigenvalues --   -0.41236  -0.40904  -0.39140  -0.38065  -0.37982
 Alpha  occ. eigenvalues --   -0.37666  -0.37069  -0.36820  -0.35952  -0.35019
 Alpha  occ. eigenvalues --   -0.34680  -0.33868  -0.33620  -0.33298  -0.32798
 Alpha  occ. eigenvalues --   -0.32423  -0.32149  -0.31972  -0.31667  -0.30926
 Alpha  occ. eigenvalues --   -0.30614  -0.29588  -0.25855  -0.25123
 Alpha virt. eigenvalues --    0.03361   0.03664   0.06578   0.07550   0.09157
 Alpha virt. eigenvalues --    0.09227   0.09799   0.10156   0.11200   0.12277
 Alpha virt. eigenvalues --    0.12731   0.14078   0.14131   0.14441   0.14968

 Mulliken charges:
               1
     1  N   -0.311712
     2  C    0.178309
     3  C    0.067258
     4  N   -0.260827
     5  C    0.139274
     6  H    0.026711
     7  N   -0.289178
     8  C    0.139512
     9  H    0.013265
    10  N   -0.286788
    11  C    0.246490
    12  C    0.088998
    13  N   -0.052523
    14  H    0.108956
    15  H    0.082767
    16  H    0.026707
    17  H    0.029112
    18  H    0.027046
    19  N   -0.279869
    20  C    0.212425
    21  C    0.182524
    22  N   -0.104563
    23  H    0.112400
    24  H    0.113827
    25  N   -0.295831
    26  C    0.221066
    27  N   -0.137389
    28  H    0.117067
    29  C    0.180714
    30  O   -0.322352
    31  C   -0.004366
    32  N   -0.220272
    33  C    0.119346
    34  H    0.014981
    35  H    0.024424
    36  H    0.026993
    37  H    0.021334
    38  H    0.056457
    39  H    0.056806
    40  H    0.072609
    41  H    0.026562
    42  C   -0.108414
    43  O   -0.266599
    44  C    0.171926
    45  H    0.130400
    46  N   -0.119540
    47  O   -0.333018
    48  C    0.331331
    49  H    0.046200
    50  C    0.165578
    51  C    0.043144
    52  N   -0.279304
    53  H    0.036829
    54  H    0.036826
    55  H    0.028116
    56  H    0.123451
    57  H    0.118249
    58  N   -0.059225
    59  C    0.093086
    60  C    0.212915
    61  N   -0.260520
    62  H    0.040814
    63  C    0.151893
    64  N   -0.298788
    65  H    0.037628
    66  C    0.116745
    67  N   -0.251880
    68  C    0.032721
    69  C    0.182510
    70  N   -0.291342
 Sum of Mulliken charges =  -0.00000

 Dipole moment (field-independent basis, Debye):
    X=             -7.1457    Y=              6.5963    Z=             -3.2406  Tot=             10.2506
 Quadrupole moment (field-independent basis, Debye-Ang):
   XX=           -150.9229   YY=           -225.5988   ZZ=           -257.2276
   XY=             -3.9887   XZ=             -3.5421   YZ=             12.7204

 Normal termination of Gaussian 16 at Mon Jan 22 05:42:15 2018.
