 Gaussian 16, Revision A.03,
 Gaussian 16:  EM64L-G16RevA.03 25-Dec-2016

 ---------------------------------------
 #p wb97xd/cc-pvdz sp scf=(maxcycles=20)
 ---------------------------------------

 ------------------
 Base pair stacking
 ------------------
 Symbolic Z-matrix:
 Charge =  0 Multiplicity = 1

                         Standard orientation:
 ---------------------------------------------------------------------
 Center     Atomic      Atomic             Coordinates (Angstroms)
 Number     Number       Type             X           Y           Z
 ---------------------------------------------------------------------
      1          7           0       -5.841407   -1.757292    0.856384
      2          6           0       -7.211505   -1.302159    1.162463
      3          6           0       -3.650780   -1.923833    0.752735
      4          7           0       -4.156005   -2.987462    0.019127
      5          6           0       -5.455551   -2.844555    0.110939
      6          1           0       -6.186500   -3.509641   -0.349834
      7          7           0       -2.180060   -0.407699    1.802142
      8          6           0       -3.270970    0.231817    2.236338
      9          1           0       -3.080975    1.115181    2.844474
     10          7           0       -4.555287   -0.054690    2.033061
     11          6           0       -4.677678   -1.156796    1.274899
     12          6           0       -2.336677   -1.513141    1.041519
     13          7           0       -1.248926   -2.152887    0.607145
     14          1           0       -1.317523   -2.975392    0.041449
     15          1           0       -0.328862   -1.832025    0.832251
     16          1           0       -7.700759   -2.021499    1.655790
     17          1           0       -7.171546   -0.479179    1.728359
     18          1           0       -7.694521   -1.096292    0.311402
     19          7           0       -3.926286    2.489605   -1.153809
     20          6           0       -2.557176    2.377612   -1.121477
     21          6           0       -4.693069    3.696322   -0.784253
     22          7           0        0.560559    3.771070   -0.489239
     23          1           0        1.518164    3.488132   -0.535953
     24          1           0        0.377986    4.705404   -0.181995
     25          7           0       -1.689336    3.343349   -0.749667
     26          6           0       -0.434718    2.935797   -0.823371
     27          7           0       -0.056772    1.679024   -1.229837
     28          1           0        0.926077    1.454742   -1.255394
     29          6           0       -0.932536    0.669526   -1.616880
     30          8           0       -0.487909   -0.430721   -1.966897
     31          6           0       -2.284028    1.092478   -1.542940
     32          7           0       -3.458019    0.411375   -1.834003
     33          6           0       -4.403624    1.277437   -1.589072
     34          1           0       -5.469946    1.083279   -1.709598
     35          1           0       -5.307520    3.483401   -0.025353
     36          1           0       -4.060741    4.418526   -0.507065
     37          1           0       -5.228269    4.006559   -1.569204
     38          1           0        5.913215    0.760400   -0.548908
     39          1           0        5.988670    1.051707   -2.285029
     40          1           0        4.748418    1.843136   -1.311991
     41          1           0        4.467617   -3.512191   -2.222789
     42          6           0        4.070850   -2.508217   -2.071572
     43          8           0        1.803608   -3.173473   -2.281727
     44          6           0        2.654797   -2.303541   -2.098763
     45          1           0        1.265760   -0.812601   -1.908969
     46          7           0        2.259083   -0.996703   -1.896687
     47          8           0        2.625004    1.211018   -1.510341
     48          6           0        3.069654    0.089229   -1.679248
     49          1           0        5.970966   -1.571285   -1.831775
     50          6           0        4.887017   -1.468796   -1.861687
     51          6           0        5.327841    0.940656   -1.438246
     52          7           0        4.422362   -0.188712   -1.667093
     53          1           0        4.823162    2.511203    4.064270
     54          1           0        3.540889    2.971153    3.166312
     55          1           0        5.054408    3.164268    2.586618
     56          1           0        2.230006   -3.269057    0.200368
     57          1           0        3.886473   -3.060982    0.550967
     58          7           0        2.957198   -2.690448    0.569903
     59          6           0        2.700208   -1.478460    1.066111
     60          6           0        3.265370    0.601269    2.074612
     61          7           0        2.007738    1.073102    2.087126
     62          1           0        0.123969    0.485610    1.533156
     63          6           0        1.169503    0.181808    1.561902
     64          7           0        1.424950   -1.032598    1.064378
     65          1           0        6.459506    0.603876    2.574272
     66          6           0        5.432326    0.356677    2.304575
     67          7           0        5.058427   -0.769391    1.747927
     68          6           0        3.686681   -0.627390    1.596665
     69          6           0        4.459016    2.577187    3.135271
     70          7           0        4.398429    1.232273    2.530678
 ---------------------------------------------------------------------

 SCF Done:  E(RwB97XD) =  -2048.74620885     A.U. after   15 cycles

 The electronic state is 1-A.
 Alpha  occ. eigenvalues --  -19.25976 -19.22414 -19.20734 -14.52433 -14.52149
 Alpha  occ. eigenvalues --  -14.48825 -14.48460 -14.47895 -14.47367 -14.47057
 Alpha  occ. eigenvalues --  -14.46785 -14.45266 -14.43851 -14.43823 -14.42116
 Alpha  occ. eigenvalues --  -14.41880 -14.40977 -14.40961 -14.40695 -14.39993
 Alpha  occ. eigenvalues --  -10.45553 -10.41347 -10.40529 -10.39421 -10.38342
 Alpha  occ. eigenvalues --  -10.37759 -10.37743 -10.36820 -10.35336 -10.35105
 Alpha  occ. eigenvalues --  -10.35100 -10.34411 -10.33697 -10.33686 -10.33411
 Alpha  occ. eigenvalues --  -10.33014 -10.32860 -10.32316 -10.31182 -10.30895
 Alpha  occ. eigenvalues --  -10.30895 -10.28181 -10.28141  -1.19524  -1.14883
 Alpha  occ. eigenvalues --   -1.13490  -1.13306  -1.10994  -1.10660  -1.09368
 Alpha  occ. eigenvalues --   -1.08813  -1.08673  -1.04734  -1.04353  -1.02642
 Alpha  occ. eigenvalues --   -1.00671  -1.00119  -0.99858  -0.98644  -0.96670
 Alpha  occ. eigenvalues --   -0.96648  -0.96331  -0.92395  -0.91132  -0.87288
 Alpha  occ. eigenvalues --   -0.85616  -0.84176  -0.83663  -0.83627  -0.82541
 Alpha  occ. eigenvalues --   -0.82068  -0.78943  -0.76643  -0.74715  -0.74404
 Alpha  occ. eigenvalues --   -0.73757  -0.73491  -0.72599  -0.70766  -0.70015
 Alpha  occ. eigenvalues --   -0.67488  -0.66615  -0.66385  -0.65995  -0.64588
 Alpha  occ. eigenvalues --   -0.63953  -0.63732  -0.62757  -0.62417  -0.61857
 Alpha  occ. eigenvalues --   -0.60465  -0.60155  -0.60035  -0.59482  -0.59097
 Alpha  occ. eigenvalues --   -0.58996  -0.58478  -0.56677  -0.56305  -0.56181
 Alpha  occ. eigenvalues --   -0.56082  -0.55203  -0.54936  -0.54510  -0.54410
 Alpha  occ. eigenvalues --   -0.53763  -0.53620  -0.53280  -0.53186  -0.53060
 Alpha  occ. eigenvalues --   -0.52494  -0.52442  -0.51563  -0.50531  -0.50295
 Alpha  occ. eigenvalues --   -0.50006  -0.49606  -0.49542  -0.49221  -0.49028
 Alpha  occ. eigenvalues --   -0.48605  -0.48476  -0.48054  -0.47678  -0.47510
 Alpha  occ. eigenvalues --   -0.46693  -0.45800  -0.44656  -0.44440  -0.43795
 Alpha  occ. eigenvalues --   -0.40818  -0.40373  -0.39534  -0.37440  -0.37374
 Alpha  occ. eigenvalues --   -0.37356  -0.37122  -0.36855  -0.36263  -0.34466
 Alpha  occ. eigenvalues --   -0.34153  -0.33908  -0.33599  -0.33171  -0.33150
 Alpha  occ. eigenvalues --   -0.32695  -0.32504  -0.32331  -0.31982  -0.30636
 Alpha  occ. eigenvalues --   -0.30185  -0.29253  -0.25627  -0.25248
 Alpha virt. eigenvalues --    0.02768   0.04475   0.07382   0.08160   0.08369
 Alpha virt. eigenvalues --    0.09170   0.09695   0.10764   0.11342   0.12147
 Alpha virt. eigenvalues --    0.13062   0.14354   0.14588   0.14638   0.15443

 Mulliken charges:
               1
     1  N   -0.312634
     2  C    0.180363
     3  C    0.061362
     4  N   -0.255992
     5  C    0.134190
     6  H    0.024984
     7  N   -0.295410
     8  C    0.134303
     9  H    0.010316
    10  N   -0.292289
    11  C    0.239216
    12  C    0.103283
    13  N   -0.047980
    14  H    0.113424
    15  H    0.086770
    16  H    0.025571
    17  H    0.031962
    18  H    0.022740
    19  N   -0.309558
    20  C    0.254997
    21  C    0.180534
    22  N   -0.120644
    23  H    0.114835
    24  H    0.117657
    25  N   -0.310434
    26  C    0.244726
    27  N   -0.149332
    28  H    0.122111
    29  C    0.189871
    30  O   -0.324092
    31  C   -0.013533
    32  N   -0.224022
    33  C    0.131811
    34  H    0.020982
    35  H    0.030911
    36  H    0.028753
    37  H    0.023508
    38  H    0.060040
    39  H    0.059602
    40  H    0.071776
    41  H    0.025179
    42  C   -0.117459
    43  O   -0.273778
    44  C    0.149590
    45  H    0.133251
    46  N   -0.108206
    47  O   -0.342487
    48  C    0.335145
    49  H    0.048217
    50  C    0.179984
    51  C    0.039065
    52  N   -0.278822
    53  H    0.033730
    54  H    0.041520
    55  H    0.025474
    56  H    0.127766
    57  H    0.116191
    58  N   -0.049020
    59  C    0.080538
    60  C    0.249504
    61  N   -0.273571
    62  H    0.037370
    63  C    0.162474
    64  N   -0.302223
    65  H    0.035537
    66  C    0.129194
    67  N   -0.264221
    68  C    0.024517
    69  C    0.180678
    70  N   -0.309813
 Sum of Mulliken charges =  -0.00000

 Dipole moment (field-independent basis, Debye):
    X=              7.4205    Y=              6.6957    Z=              2.3255  Tot=             10.2618
 Quadrupole moment (field-independent basis, Debye-Ang):
   XX=           -149.4013   YY=           -222.4040   ZZ=           -253.9743
   XY=              4.1728   XZ=              2.8841   YZ=             -1.9020

 Normal termination of Gaussian 16 at Mon Jan 22 05:17:44 2018.
