 Gaussian 16, Revision A.03,
 Gaussian 16:  EM64L-G16RevA.03 25-Dec-2016

 ---------------------------------------
 #p wb97xd/cc-pvdz sp scf=(maxcycles=20)
 ---------------------------------------

 ------------------
 Base pair stacking
 ------------------
 Symbolic Z-matrix:
 Charge =  0 Multiplicity = 1

                         Standard orientation:
 ---------------------------------------------------------------------
 Center     Atomic      Atomic             Coordinates (Angstroms)
 Number     Number       Type             X           Y           Z
 ---------------------------------------------------------------------
      1          7           0        5.504188   -1.578278   -1.234952
      2          6           0        6.875653   -1.045249   -1.348907
      3          6           0        3.313167   -1.768581   -1.212399
      4          7           0        3.815006   -3.024689   -0.904078
      5          6           0        5.114931   -2.859774   -0.930009
      6          1           0        5.843755   -3.646378   -0.732512
      7          7           0        1.847298    0.024036   -1.660381
      8          6           0        2.940151    0.775362   -1.829964
      9          1           0        2.752948    1.817938   -2.083426
     10          7           0        4.223508    0.433777   -1.733901
     11          6           0        4.342424   -0.866651   -1.418974
     12          6           0        2.000427   -1.280420   -1.344125
     13          7           0        0.910721   -2.032036   -1.174440
     14          1           0        0.976726   -3.002471   -0.939674
     15          1           0       -0.008275   -1.650936   -1.276148
     16          1           0        7.369191   -1.541236   -2.063468
     17          1           0        6.838272   -0.074322   -1.583492
     18          1           0        7.352697   -1.157699   -0.477266
     19          7           0        4.304064    2.077147    1.228610
     20          6           0        2.933026    1.993872    1.191556
     21          6           0        5.095461    3.279846    0.900111
     22          7           0       -0.155196    3.470122    0.603924
     23          1           0       -1.118352    3.205122    0.640467
     24          1           0        0.046548    4.410329    0.328185
     25          7           0        2.085288    2.988754    0.851577
     26          6           0        0.822631    2.604297    0.910716
     27          7           0        0.418938    1.342538    1.274721
     28          1           0       -0.568256    1.137353    1.292053
     29          6           0        1.273697    0.303261    1.628476
     30          8           0        0.806560   -0.798883    1.941238
     31          6           0        2.633516    0.701153    1.569684
     32          7           0        3.793184   -0.012775    1.838705
     33          6           0        4.756335    0.841767    1.623506
     34          1           0        5.818369    0.622272    1.738263
     35          1           0        5.706562    3.080032    0.134974
     36          1           0        4.478155    4.023476    0.646731
     37          1           0        5.635672    3.552876    1.695369
     38          1           0       -5.567339    0.567497    0.559147
     39          1           0       -5.639359    0.802179    2.303962
     40          1           0       -4.382089    1.600501    1.358804
     41          1           0       -4.210235   -3.786788    2.090497
     42          6           0       -3.793161   -2.786534    1.973173
     43          8           0       -1.540043   -3.503928    2.162651
     44          6           0       -2.373319   -2.611415    2.008221
     45          1           0       -0.954342   -1.143236    1.869313
     46          7           0       -1.951143   -1.306793    1.850171
     47          8           0       -2.272088    0.919509    1.537487
     48          6           0       -2.739424   -0.198118    1.668515
     49          1           0       -5.673733   -1.804057    1.763417
     50          6           0       -4.587981   -1.724457    1.797519
     51          6           0       -4.979705    0.706166    1.454424
     52          7           0       -4.097429   -0.448205    1.646110
     53          1           0       -5.144882    3.566029   -2.776683
     54          1           0       -3.869259    3.673277   -1.765054
     55          1           0       -5.386875    3.647995   -1.164807
     56          1           0       -2.569248   -3.216201   -1.216896
     57          1           0       -4.223640   -2.894824   -1.481069
     58          7           0       -3.294787   -2.542973   -1.360057
     59          6           0       -3.036227   -1.233966   -1.388524
     60          6           0       -3.597634    1.069442   -1.590767
     61          7           0       -2.340613    1.513259   -1.425350
     62          1           0       -0.459743    0.764585   -1.105343
     63          6           0       -1.504627    0.492235   -1.247802
     64          7           0       -1.761644   -0.819516   -1.218970
     65          1           0       -6.788374    1.253826   -2.077935
     66          6           0       -5.762660    0.925481   -1.907522
     67          7           0       -5.390871   -0.325555   -1.787663
     68          6           0       -4.020361   -0.248445   -1.586428
     69          6           0       -4.787009    3.295196   -1.883045
     70          7           0       -4.728537    1.822967   -1.798746
 ---------------------------------------------------------------------

 SCF Done:  E(RwB97XD) =  -2048.75327699     A.U. after   15 cycles

 The electronic state is 1-A.
 Alpha  occ. eigenvalues --  -19.25502 -19.21749 -19.20476 -14.52669 -14.52077
 Alpha  occ. eigenvalues --  -14.48645 -14.48517 -14.48306 -14.47482 -14.46701
 Alpha  occ. eigenvalues --  -14.46350 -14.45700 -14.44419 -14.44392 -14.42456
 Alpha  occ. eigenvalues --  -14.41835 -14.41217 -14.41063 -14.40792 -14.40340
 Alpha  occ. eigenvalues --  -10.45086 -10.41040 -10.40099 -10.39839 -10.38186
 Alpha  occ. eigenvalues --  -10.38075 -10.37432 -10.37352 -10.35875 -10.35514
 Alpha  occ. eigenvalues --  -10.34684 -10.34146 -10.34135 -10.33938 -10.33311
 Alpha  occ. eigenvalues --  -10.33223 -10.33139 -10.32835 -10.31076 -10.30792
 Alpha  occ. eigenvalues --  -10.30615 -10.28442 -10.27927  -1.19133  -1.15416
 Alpha  occ. eigenvalues --   -1.13014  -1.12758  -1.11213  -1.10381  -1.09416
 Alpha  occ. eigenvalues --   -1.08985  -1.08358  -1.05105  -1.04911  -1.02149
 Alpha  occ. eigenvalues --   -1.01190  -1.00537  -0.99474  -0.98370  -0.97045
 Alpha  occ. eigenvalues --   -0.96800  -0.96389  -0.92792  -0.90719  -0.87814
 Alpha  occ. eigenvalues --   -0.86113  -0.83942  -0.83867  -0.83279  -0.82330
 Alpha  occ. eigenvalues --   -0.82262  -0.78537  -0.77196  -0.75007  -0.74415
 Alpha  occ. eigenvalues --   -0.73423  -0.73026  -0.72921  -0.71080  -0.70563
 Alpha  occ. eigenvalues --   -0.67162  -0.66947  -0.66346  -0.66198  -0.64418
 Alpha  occ. eigenvalues --   -0.64206  -0.63536  -0.62780  -0.62492  -0.61552
 Alpha  occ. eigenvalues --   -0.60938  -0.60671  -0.60489  -0.59599  -0.59196
 Alpha  occ. eigenvalues --   -0.58837  -0.58094  -0.56786  -0.56594  -0.56106
 Alpha  occ. eigenvalues --   -0.55730  -0.55653  -0.55400  -0.54209  -0.53958
 Alpha  occ. eigenvalues --   -0.53842  -0.53701  -0.53397  -0.53300  -0.52902
 Alpha  occ. eigenvalues --   -0.52735  -0.52147  -0.51830  -0.50739  -0.50280
 Alpha  occ. eigenvalues --   -0.50047  -0.49917  -0.49173  -0.48998  -0.48783
 Alpha  occ. eigenvalues --   -0.48584  -0.48433  -0.48159  -0.47367  -0.47161
 Alpha  occ. eigenvalues --   -0.46950  -0.45797  -0.44900  -0.44689  -0.43324
 Alpha  occ. eigenvalues --   -0.41049  -0.40899  -0.39170  -0.37905  -0.37742
 Alpha  occ. eigenvalues --   -0.37344  -0.37110  -0.37001  -0.35985  -0.34821
 Alpha  occ. eigenvalues --   -0.34486  -0.33853  -0.33498  -0.33298  -0.32959
 Alpha  occ. eigenvalues --   -0.32528  -0.32281  -0.32095  -0.31747  -0.30888
 Alpha  occ. eigenvalues --   -0.30541  -0.29578  -0.25758  -0.25229
 Alpha virt. eigenvalues --    0.03368   0.03738   0.06850   0.07748   0.08889
 Alpha virt. eigenvalues --    0.09309   0.09916   0.10272   0.11092   0.12196
 Alpha virt. eigenvalues --    0.12738   0.14140   0.14308   0.14510   0.14972

 Mulliken charges:
               1
     1  N   -0.311439
     2  C    0.179158
     3  C    0.066311
     4  N   -0.259222
     5  C    0.139357
     6  H    0.026444
     7  N   -0.292424
     8  C    0.135282
     9  H    0.012113
    10  N   -0.287814
    11  C    0.244835
    12  C    0.094237
    13  N   -0.051234
    14  H    0.110839
    15  H    0.083099
    16  H    0.026106
    17  H    0.029769
    18  H    0.025518
    19  N   -0.295948
    20  C    0.242982
    21  C    0.182042
    22  N   -0.111854
    23  H    0.114191
    24  H    0.115543
    25  N   -0.304882
    26  C    0.231029
    27  N   -0.142119
    28  H    0.118905
    29  C    0.184541
    30  O   -0.323004
    31  C   -0.013856
    32  N   -0.222283
    33  C    0.123236
    34  H    0.017027
    35  H    0.027595
    36  H    0.027762
    37  H    0.021866
    38  H    0.058979
    39  H    0.059193
    40  H    0.073203
    41  H    0.025301
    42  C   -0.106676
    43  O   -0.267756
    44  C    0.165855
    45  H    0.130744
    46  N   -0.116234
    47  O   -0.337528
    48  C    0.332232
    49  H    0.046408
    50  C    0.165747
    51  C    0.037648
    52  N   -0.277730
    53  H    0.035427
    54  H    0.038193
    55  H    0.027375
    56  H    0.125497
    57  H    0.116802
    58  N   -0.055719
    59  C    0.087326
    60  C    0.230006
    61  N   -0.266949
    62  H    0.038174
    63  C    0.157473
    64  N   -0.301168
    65  H    0.037475
    66  C    0.120301
    67  N   -0.255710
    68  C    0.029005
    69  C    0.182172
    70  N   -0.298776
 Sum of Mulliken charges =  -0.00000

 Dipole moment (field-independent basis, Debye):
    X=             -7.1947    Y=              6.6367    Z=             -2.7322  Tot=             10.1624
 Quadrupole moment (field-independent basis, Debye-Ang):
   XX=           -150.7775   YY=           -223.7632   ZZ=           -256.5788
   XY=             -4.0089   XZ=             -2.9923   YZ=              9.7851

 Normal termination of Gaussian 16 at Mon Jan 22 14:19:43 2018.
