 Gaussian 16, Revision A.03,
 Gaussian 16:  EM64L-G16RevA.03 25-Dec-2016

 ---------------------------------------
 #p wb97xd/cc-pvdz sp scf=(maxcycles=20)
 ---------------------------------------

 ------------------
 Base pair stacking
 ------------------
 Symbolic Z-matrix:
 Charge =  0 Multiplicity = 1

                         Standard orientation:
 ---------------------------------------------------------------------
 Center     Atomic      Atomic             Coordinates (Angstroms)
 Number     Number       Type             X           Y           Z
 ---------------------------------------------------------------------
      1          7           0       -4.884853   -2.174705    1.315312
      2          6           0       -6.234828   -1.856631    1.819686
      3          6           0       -2.714779   -2.171039    0.957415
      4          7           0       -3.238077   -3.177799    0.159088
      5          6           0       -4.524524   -3.139715    0.406660
      6          1           0       -5.263540   -3.798737   -0.049937
      7          7           0       -1.224142   -0.682635    2.018346
      8          6           0       -2.293284   -0.176429    2.641459
      9          1           0       -2.086482    0.643389    3.328043
     10          7           0       -3.573517   -0.529208    2.544240
     11          6           0       -3.717779   -1.543891    1.675875
     12          6           0       -1.402434   -1.702790    1.150836
     13          7           0       -0.336416   -2.209436    0.527867
     14          1           0       -0.421518   -2.965073   -0.122522
     15          1           0        0.583105   -1.851168    0.689928
     16          1           0       -6.621113   -2.660578    2.272049
     17          1           0       -6.178134   -1.102596    2.473393
     18          1           0       -6.823854   -1.590463    1.056665
     19          7           0       -4.902762    2.303154   -0.607589
     20          6           0       -3.534263    2.278086   -0.728497
     21          6           0       -5.695095    3.446060   -0.110906
     22          7           0       -0.455195    3.847666   -0.385668
     23          1           0        0.506616    3.628238   -0.546943
     24          1           0       -0.658498    4.758250   -0.024786
     25          7           0       -2.690263    3.285210   -0.416377
     26          6           0       -1.429295    2.961339   -0.641516
     27          7           0       -1.023779    1.744798   -1.134557
     28          1           0       -0.038103    1.584803   -1.275302
     29          6           0       -1.874694    0.693994   -1.462624
     30          8           0       -1.406192   -0.363943   -1.900818
     31          6           0       -3.232653    1.027007   -1.226129
     32          7           0       -4.388542    0.281651   -1.413870
     33          6           0       -5.351572    1.077242   -1.034618
     34          1           0       -6.411062    0.819109   -1.045971
     35          1           0       -6.207730    3.170412    0.701514
     36          1           0       -5.080551    4.198169    0.123460
     37          1           0       -6.331659    3.745980   -0.820588
     38          1           0        5.029286    1.189261   -1.141896
     39          1           0        4.894241    1.539399   -2.863469
     40          1           0        3.724082    2.218717   -1.731826
     41          1           0        3.666854   -3.112210   -2.811545
     42          6           0        3.229590   -2.140982   -2.579719
     43          8           0        0.997184   -2.943059   -2.567720
     44          6           0        1.809510   -2.026620   -2.445058
     45          1           0        0.362878   -0.634402   -2.048419
     46          7           0        1.360709   -0.754816   -2.151188
     47          8           0        1.633676    1.458516   -1.722453
     48          6           0        2.123562    0.373379   -1.981574
     49          1           0        5.084740   -1.092332   -2.511969
     50          6           0        3.999954   -1.058552   -2.419999
     51          6           0        4.339198    1.359627   -1.954804
     52          7           0        3.483545    0.182369   -2.127116
     53          1           0        5.810316    2.454202    3.851095
     54          1           0        4.408471    2.920244    3.158451
     55          1           0        5.831253    3.285915    2.447088
     56          1           0        3.131777   -3.020041   -0.382528
     57          1           0        4.802580   -2.735073   -0.189422
     58          7           0        3.861603   -2.436609   -0.026017
     59          6           0        3.593067   -1.310441    0.637912
     60          6           0        4.148067    0.676232    1.824013
     61          7           0        2.874829    1.052294    2.028629
     62          1           0        0.977382    0.398178    1.613354
     63          6           0        2.035229    0.168755    1.492582
     64          7           0        2.302221   -0.959776    0.827219
     65          1           0        7.372842    0.850787    1.974087
     66          6           0        6.337658    0.562922    1.788432
     67          7           0        5.968605   -0.516413    1.143058
     68          6           0        4.582632   -0.456766    1.158424
     69          6           0        5.338358    2.599135    2.981463
     70          7           0        5.287282    1.330823    2.228628
 ---------------------------------------------------------------------

 SCF Done:  E(RwB97XD) =  -2048.73452716     A.U. after   15 cycles

 The electronic state is 1-A.
 Alpha  occ. eigenvalues --  -19.25889 -19.22423 -19.20801 -14.52570 -14.52334
 Alpha  occ. eigenvalues --  -14.49152 -14.47954 -14.47925 -14.47829 -14.47118
 Alpha  occ. eigenvalues --  -14.46934 -14.45384 -14.44278 -14.44165 -14.42271
 Alpha  occ. eigenvalues --  -14.41791 -14.41356 -14.40464 -14.40420 -14.39932
 Alpha  occ. eigenvalues --  -10.45479 -10.41509 -10.40389 -10.39865 -10.38455
 Alpha  occ. eigenvalues --  -10.37890 -10.37754 -10.37114 -10.35732 -10.35069
 Alpha  occ. eigenvalues --  -10.34949 -10.34682 -10.33775 -10.33719 -10.33217
 Alpha  occ. eigenvalues --  -10.32695 -10.32651 -10.32626 -10.31229 -10.31075
 Alpha  occ. eigenvalues --  -10.30425 -10.28443 -10.27851  -1.19448  -1.15099
 Alpha  occ. eigenvalues --   -1.13449  -1.13369  -1.10913  -1.10515  -1.09607
 Alpha  occ. eigenvalues --   -1.09127  -1.08808  -1.04846  -1.04557  -1.02549
 Alpha  occ. eigenvalues --   -1.00910  -1.00010  -0.99917  -0.98824  -0.96942
 Alpha  occ. eigenvalues --   -0.96874  -0.96154  -0.92246  -0.91192  -0.87533
 Alpha  occ. eigenvalues --   -0.85776  -0.84455  -0.83626  -0.83266  -0.82820
 Alpha  occ. eigenvalues --   -0.81689  -0.79048  -0.77002  -0.74942  -0.74767
 Alpha  occ. eigenvalues --   -0.73907  -0.73444  -0.72307  -0.70514  -0.70350
 Alpha  occ. eigenvalues --   -0.67679  -0.66919  -0.66530  -0.65704  -0.64793
 Alpha  occ. eigenvalues --   -0.64295  -0.63873  -0.62906  -0.62139  -0.62061
 Alpha  occ. eigenvalues --   -0.60669  -0.60312  -0.60108  -0.59542  -0.59212
 Alpha  occ. eigenvalues --   -0.59173  -0.58640  -0.56944  -0.56129  -0.56046
 Alpha  occ. eigenvalues --   -0.55692  -0.55214  -0.54909  -0.54545  -0.54072
 Alpha  occ. eigenvalues --   -0.53899  -0.53776  -0.53526  -0.53429  -0.53269
 Alpha  occ. eigenvalues --   -0.52716  -0.52463  -0.51182  -0.50475  -0.50202
 Alpha  occ. eigenvalues --   -0.49911  -0.49663  -0.49552  -0.49377  -0.49136
 Alpha  occ. eigenvalues --   -0.48732  -0.48619  -0.48247  -0.48036  -0.47534
 Alpha  occ. eigenvalues --   -0.46388  -0.45933  -0.45691  -0.44360  -0.42979
 Alpha  occ. eigenvalues --   -0.40611  -0.40597  -0.39499  -0.37877  -0.37600
 Alpha  occ. eigenvalues --   -0.37549  -0.37494  -0.36511  -0.35998  -0.34684
 Alpha  occ. eigenvalues --   -0.34329  -0.34116  -0.33588  -0.32998  -0.32897
 Alpha  occ. eigenvalues --   -0.32835  -0.32695  -0.32553  -0.32101  -0.30307
 Alpha  occ. eigenvalues --   -0.29953  -0.28952  -0.25849  -0.25179
 Alpha virt. eigenvalues --    0.02635   0.04064   0.06847   0.08412   0.08819
 Alpha virt. eigenvalues --    0.08982   0.09482   0.10531   0.11528   0.11628
 Alpha virt. eigenvalues --    0.13223   0.13993   0.14346   0.14888   0.15116

 Mulliken charges:
               1
     1  N   -0.309533
     2  C    0.181244
     3  C    0.053988
     4  N   -0.253302
     5  C    0.145520
     6  H    0.024890
     7  N   -0.298716
     8  C    0.131527
     9  H    0.009057
    10  N   -0.288615
    11  C    0.247147
    12  C    0.092051
    13  N   -0.057805
    14  H    0.117673
    15  H    0.085484
    16  H    0.023512
    17  H    0.030460
    18  H    0.022405
    19  N   -0.310537
    20  C    0.258481
    21  C    0.181304
    22  N   -0.124319
    23  H    0.117950
    24  H    0.119037
    25  N   -0.312434
    26  C    0.250740
    27  N   -0.150162
    28  H    0.120154
    29  C    0.197221
    30  O   -0.320598
    31  C   -0.015679
    32  N   -0.225721
    33  C    0.122739
    34  H    0.021925
    35  H    0.028154
    36  H    0.030477
    37  H    0.024912
    38  H    0.065832
    39  H    0.059708
    40  H    0.074591
    41  H    0.023538
    42  C   -0.130545
    43  O   -0.270564
    44  C    0.166300
    45  H    0.130932
    46  N   -0.115539
    47  O   -0.348299
    48  C    0.346128
    49  H    0.043949
    50  C    0.175572
    51  C    0.039326
    52  N   -0.275216
    53  H    0.033900
    54  H    0.042442
    55  H    0.027785
    56  H    0.126563
    57  H    0.112699
    58  N   -0.045711
    59  C    0.089624
    60  C    0.244301
    61  N   -0.271943
    62  H    0.034228
    63  C    0.172182
    64  N   -0.315642
    65  H    0.037550
    66  C    0.133885
    67  N   -0.262581
    68  C    0.012107
    69  C    0.180825
    70  N   -0.308560
 Sum of Mulliken charges =  -0.00000

 Dipole moment (field-independent basis, Debye):
    X=              7.2701    Y=              7.3940    Z=              1.6204  Tot=             10.4953
 Quadrupole moment (field-independent basis, Debye-Ang):
   XX=           -154.1723   YY=           -221.9974   ZZ=           -252.2807
   XY=              2.9674   XZ=             -8.8510   YZ=             -0.0935

 Normal termination of Gaussian 16 at Mon Jan 22 11:58:50 2018.
