 Gaussian 16, Revision A.03,
 Gaussian 16:  EM64L-G16RevA.03 25-Dec-2016

 ---------------------------------------
 #p wb97xd/cc-pvdz sp scf=(maxcycles=20)
 ---------------------------------------

 ------------------
 Base pair stacking
 ------------------
 Symbolic Z-matrix:
 Charge =  0 Multiplicity = 1

                         Standard orientation:
 ---------------------------------------------------------------------
 Center     Atomic      Atomic             Coordinates (Angstroms)
 Number     Number       Type             X           Y           Z
 ---------------------------------------------------------------------
      1          7           0        5.199020   -1.682599   -1.416598
      2          6           0        6.569882   -1.179571   -1.630424
      3          6           0        3.009281   -1.838258   -1.281967
      4          7           0        3.510191   -3.076183   -0.905992
      5          6           0        4.809386   -2.932861   -1.002154
      6          1           0        5.537361   -3.713910   -0.780917
      7          7           0        1.545208   -0.061048   -1.792822
      8          6           0        2.637751    0.659801   -2.065433
      9          1           0        2.451175    1.684062   -2.385339
     10          7           0        3.920124    0.307035   -2.002492
     11          6           0        4.038335   -0.968926   -1.599533
     12          6           0        1.697608   -1.341443   -1.389784
     13          7           0        0.608224   -2.062623   -1.117187
     14          1           0        0.673712   -3.014485   -0.815709
     15          1           0       -0.310019   -1.676257   -1.204983
     16          1           0        7.024399   -1.733039   -2.328465
     17          1           0        6.533001   -0.227639   -1.933041
     18          1           0        7.085043   -1.235966   -0.775189
     19          7           0        4.611689    2.073808    1.082484
     20          6           0        3.239430    2.006509    1.102677
     21          6           0        5.402647    3.270887    0.733069
     22          7           0        0.146773    3.523941    0.661453
     23          1           0       -0.817039    3.269509    0.736051
     24          1           0        0.347781    4.464690    0.387037
     25          7           0        2.389879    3.014536    0.809073
     26          6           0        1.126395    2.643832    0.917695
     27          7           0        0.723583    1.382917    1.285568
     28          1           0       -0.264354    1.188773    1.342587
     29          6           0        1.580196    0.330265    1.592172
     30          8           0        1.113714   -0.769786    1.913163
     31          6           0        2.940915    0.713305    1.479911
     32          7           0        4.102404   -0.016590    1.692282
     33          6           0        5.065618    0.829212    1.445232
     34          1           0        6.128898    0.596461    1.512667
     35          1           0        5.978492    3.072364   -0.059261
     36          1           0        4.784006    4.024152    0.513665
     37          1           0        5.979146    3.529239    1.507474
     38          1           0       -5.296307    0.683597    0.816261
     39          1           0       -5.291802    0.900388    2.564870
     40          1           0       -4.066237    1.694459    1.575516
     41          1           0       -3.927203   -3.701959    2.244200
     42          6           0       -3.503682   -2.705304    2.119545
     43          8           0       -1.253194   -3.450222    2.206106
     44          6           0       -2.081663   -2.546706    2.096225
     45          1           0       -0.652602   -1.093330    1.912352
     46          7           0       -1.651187   -1.245345    1.933770
     47          8           0       -1.958757    0.987679    1.657713
     48          6           0       -2.433298   -0.125906    1.797002
     49          1           0       -5.379719   -1.699351    1.999658
     50          6           0       -4.292637   -1.632452    1.988563
     51          6           0       -4.669793    0.805993    1.687220
     52          7           0       -3.793885   -0.360310    1.829561
     53          1           0       -5.449418    3.494596   -2.848704
     54          1           0       -4.127623    3.655538   -1.905813
     55          1           0       -5.616319    3.696118   -1.237823
     56          1           0       -2.883469   -3.195024   -0.917252
     57          1           0       -4.544414   -2.869018   -1.129582
     58          7           0       -3.606993   -2.523169   -1.076270
     59          6           0       -3.334920   -1.223602   -1.211373
     60          6           0       -3.878372    1.067302   -1.555102
     61          7           0       -2.610058    1.503202   -1.478959
     62          1           0       -0.725262    0.751728   -1.190105
     63          6           0       -1.778649    0.485339   -1.265358
     64          7           0       -2.049204   -0.816966   -1.129756
     65          1           0       -7.085746    1.263410   -1.910699
     66          6           0       -6.057160    0.933020   -1.763076
     67          7           0       -5.694734   -0.311495   -1.569411
     68          6           0       -4.315641   -0.240414   -1.436027
     69          6           0       -5.054116    3.283604   -1.954715
     70          7           0       -5.008844    1.820571   -1.766347
 ---------------------------------------------------------------------

 SCF Done:  E(RwB97XD) =  -2048.75230814     A.U. after   15 cycles

 The electronic state is 1-A.
 Alpha  occ. eigenvalues --  -19.25521 -19.21833 -19.20526 -14.52636 -14.52147
 Alpha  occ. eigenvalues --  -14.48755 -14.48411 -14.48310 -14.47495 -14.46767
 Alpha  occ. eigenvalues --  -14.46544 -14.45649 -14.44456 -14.44397 -14.42371
 Alpha  occ. eigenvalues --  -14.41955 -14.41005 -14.40985 -14.40907 -14.40320
 Alpha  occ. eigenvalues --  -10.45132 -10.41165 -10.40122 -10.39898 -10.38160
 Alpha  occ. eigenvalues --  -10.38150 -10.37467 -10.37344 -10.35966 -10.35423
 Alpha  occ. eigenvalues --  -10.34722 -10.34329 -10.34038 -10.33737 -10.33443
 Alpha  occ. eigenvalues --  -10.33148 -10.33039 -10.32804 -10.30867 -10.30863
 Alpha  occ. eigenvalues --  -10.30830 -10.28308 -10.28093  -1.19137  -1.15384
 Alpha  occ. eigenvalues --   -1.13114  -1.12822  -1.11002  -1.10549  -1.09473
 Alpha  occ. eigenvalues --   -1.09013  -1.08474  -1.05015  -1.04931  -1.02173
 Alpha  occ. eigenvalues --   -1.01148  -1.00409  -0.99629  -0.98485  -0.97036
 Alpha  occ. eigenvalues --   -0.96648  -0.96577  -0.92694  -0.90767  -0.87781
 Alpha  occ. eigenvalues --   -0.86050  -0.84092  -0.83724  -0.83295  -0.82463
 Alpha  occ. eigenvalues --   -0.82152  -0.78592  -0.77192  -0.74984  -0.74582
 Alpha  occ. eigenvalues --   -0.73550  -0.73054  -0.72779  -0.70939  -0.70545
 Alpha  occ. eigenvalues --   -0.67315  -0.66955  -0.66251  -0.66178  -0.64401
 Alpha  occ. eigenvalues --   -0.64307  -0.63640  -0.62630  -0.62574  -0.61714
 Alpha  occ. eigenvalues --   -0.60870  -0.60621  -0.60413  -0.59548  -0.59237
 Alpha  occ. eigenvalues --   -0.58941  -0.58263  -0.56761  -0.56480  -0.56021
 Alpha  occ. eigenvalues --   -0.55770  -0.55560  -0.55318  -0.54274  -0.53978
 Alpha  occ. eigenvalues --   -0.53818  -0.53589  -0.53491  -0.53249  -0.52930
 Alpha  occ. eigenvalues --   -0.52898  -0.52147  -0.51644  -0.50547  -0.50242
 Alpha  occ. eigenvalues --   -0.50100  -0.49932  -0.49243  -0.49065  -0.48761
 Alpha  occ. eigenvalues --   -0.48733  -0.48495  -0.48285  -0.47618  -0.47218
 Alpha  occ. eigenvalues --   -0.46807  -0.45855  -0.45175  -0.44568  -0.43158
 Alpha  occ. eigenvalues --   -0.40970  -0.40873  -0.39167  -0.37898  -0.37754
 Alpha  occ. eigenvalues --   -0.37303  -0.37232  -0.36965  -0.35916  -0.34847
 Alpha  occ. eigenvalues --   -0.34443  -0.33969  -0.33365  -0.33183  -0.33007
 Alpha  occ. eigenvalues --   -0.32647  -0.32437  -0.32204  -0.31843  -0.30731
 Alpha  occ. eigenvalues --   -0.30404  -0.29594  -0.25671  -0.25454
 Alpha virt. eigenvalues --    0.03210   0.03879   0.06653   0.08021   0.09058
 Alpha virt. eigenvalues --    0.09226   0.09773   0.10304   0.11089   0.12285
 Alpha virt. eigenvalues --    0.12750   0.14078   0.14487   0.14550   0.14799

 Mulliken charges:
               1
     1  N   -0.309840
     2  C    0.179418
     3  C    0.062467
     4  N   -0.258392
     5  C    0.142425
     6  H    0.026315
     7  N   -0.293291
     8  C    0.132855
     9  H    0.011639
    10  N   -0.286698
    11  C    0.246872
    12  C    0.089717
    13  N   -0.052123
    14  H    0.112838
    15  H    0.082948
    16  H    0.025460
    17  H    0.029460
    18  H    0.024701
    19  N   -0.303242
    20  C    0.257566
    21  C    0.182413
    22  N   -0.120060
    23  H    0.117863
    24  H    0.117026
    25  N   -0.309067
    26  C    0.242732
    27  N   -0.140299
    28  H    0.115396
    29  C    0.186744
    30  O   -0.322307
    31  C   -0.017611
    32  N   -0.223297
    33  C    0.119230
    34  H    0.018825
    35  H    0.027769
    36  H    0.029187
    37  H    0.022897
    38  H    0.060637
    39  H    0.059173
    40  H    0.074500
    41  H    0.023933
    42  C   -0.106358
    43  O   -0.267942
    44  C    0.166132
    45  H    0.130362
    46  N   -0.116366
    47  O   -0.341640
    48  C    0.337094
    49  H    0.045379
    50  C    0.164078
    51  C    0.040580
    52  N   -0.276414
    53  H    0.034904
    54  H    0.039563
    55  H    0.027858
    56  H    0.124691
    57  H    0.115657
    58  N   -0.052763
    59  C    0.088786
    60  C    0.228718
    61  N   -0.268275
    62  H    0.029990
    63  C    0.169039
    64  N   -0.307517
    65  H    0.037073
    66  C    0.124155
    67  N   -0.255329
    68  C    0.019576
    69  C    0.182138
    70  N   -0.299943
 Sum of Mulliken charges =  -0.00000

 Dipole moment (field-independent basis, Debye):
    X=             -7.2380    Y=              6.8847    Z=             -2.1515  Tot=             10.2185
 Quadrupole moment (field-independent basis, Debye-Ang):
   XX=           -152.5411   YY=           -222.9924   ZZ=           -255.7413
   XY=             -2.5065   XZ=             -6.7134   YZ=              8.5601

 Normal termination of Gaussian 16 at Sun Jan 21 23:27:15 2018.
