 Gaussian 16, Revision A.03,
 Gaussian 16:  EM64L-G16RevA.03 25-Dec-2016

 ---------------------------------------
 #p wb97xd/cc-pvdz sp scf=(maxcycles=20)
 ---------------------------------------

 ------------------
 Base pair stacking
 ------------------
 Symbolic Z-matrix:
 Charge =  0 Multiplicity = 1

                         Standard orientation:
 ---------------------------------------------------------------------
 Center     Atomic      Atomic             Coordinates (Angstroms)
 Number     Number       Type             X           Y           Z
 ---------------------------------------------------------------------
      1          7           0        5.785359   -1.445034   -1.049933
      2          6           0        7.150605   -0.885817   -1.012606
      3          6           0        3.600080   -1.661183   -1.173024
      4          7           0        4.108822   -2.942794   -1.020085
      5          6           0        5.405014   -2.761266   -0.952040
      6          1           0        6.137300   -3.559829   -0.829519
      7          7           0        2.125912    0.160533   -1.439668
      8          6           0        3.211751    0.940622   -1.441265
      9          1           0        3.018343    2.006585   -1.553416
     10          7           0        4.494598    0.603230   -1.325688
     11          6           0        4.621498   -0.727467   -1.193188
     12          6           0        2.286983   -1.173963   -1.304575
     13          7           0        1.204285   -1.954309   -1.302743
     14          1           0        1.276299   -2.947562   -1.205336
     15          1           0        0.284781   -1.572922   -1.398613
     16          1           0        7.689770   -1.268797   -1.762814
     17          1           0        7.107159    0.108211   -1.108217
     18          1           0        7.583862   -1.116572   -0.141385
     19          7           0        4.014263    2.010870    1.338840
     20          6           0        2.647187    1.916023    1.238054
     21          6           0        4.812452    3.211831    1.020614
     22          7           0       -0.419028    3.354112    0.468650
     23          1           0       -1.381026    3.082487    0.465157
     24          1           0       -0.210563    4.289265    0.180960
     25          7           0        1.810125    2.896139    0.834622
     26          6           0        0.548695    2.503271    0.842141
     27          7           0        0.136437    1.247115    1.215801
     28          1           0       -0.849050    1.034662    1.190568
     29          6           0        0.980145    0.222986    1.634356
     30          8           0        0.505910   -0.875272    1.950060
     31          6           0        2.338510    0.630061    1.631522
     32          7           0        3.488653   -0.068377    1.972478
     33          6           0        4.455286    0.788498    1.783773
     34          1           0        5.512023    0.580023    1.954423
     35          1           0        5.460993    2.999234    0.290536
     36          1           0        4.203073    3.944567    0.720589
     37          1           0        5.311942    3.507346    1.834248
     38          1           0       -5.803138    0.408936    0.232358
     39          1           0       -5.960600    0.683204    1.965742
     40          1           0       -4.664708    1.469348    1.063526
     41          1           0       -4.492079   -3.898136    1.928487
     42          6           0       -4.076567   -2.897613    1.807922
     43          8           0       -1.830415   -3.592782    2.121952
     44          6           0       -2.661276   -2.710624    1.906892
     45          1           0       -1.247149   -1.234971    1.801861
     46          7           0       -2.240746   -1.406725    1.738785
     47          8           0       -2.561220    0.809197    1.359056
     48          6           0       -3.026808   -0.308738    1.493649
     49          1           0       -5.951420   -1.934986    1.485305
     50          6           0       -4.869138   -1.846124    1.569547
     51          6           0       -5.260208    0.572798    1.151290
     52          7           0       -4.380437   -0.569907    1.412016
     53          1           0       -4.864446    3.747163   -2.416075
     54          1           0       -3.645218    3.722745   -1.332100
     55          1           0       -5.191160    3.594744   -0.824389
     56          1           0       -2.245895   -3.159191   -1.701206
     57          1           0       -3.890127   -2.821890   -2.005856
     58          7           0       -2.975581   -2.480581   -1.786011
     59          6           0       -2.740592   -1.178171   -1.613781
     60          6           0       -3.334017    1.124001   -1.515974
     61          7           0       -2.095850    1.553644   -1.221419
     62          1           0       -0.220324    0.788033   -0.910203
     63          6           0       -1.251116    0.527166   -1.146190
     64          7           0       -1.484533   -0.777999   -1.318363
     65          1           0       -6.498124    1.340425   -2.143463
     66          6           0       -5.476631    1.002590   -1.966414
     67          7           0       -5.088055   -0.248458   -2.006034
     68          6           0       -3.731513   -0.185581   -1.722174
     69          6           0       -4.548340    3.355186   -1.552106
     70          7           0       -4.466611    1.886799   -1.675285
 ---------------------------------------------------------------------

 SCF Done:  E(RwB97XD) =  -2048.73984120     A.U. after   15 cycles

 The electronic state is 1-A.
 Alpha  occ. eigenvalues --  -19.25446 -19.21600 -19.20402 -14.52731 -14.52017
 Alpha  occ. eigenvalues --  -14.48945 -14.48344 -14.48156 -14.47439 -14.46521
 Alpha  occ. eigenvalues --  -14.45829 -14.45742 -14.44427 -14.44372 -14.42712
 Alpha  occ. eigenvalues --  -14.41643 -14.41527 -14.41306 -14.40567 -14.40466
 Alpha  occ. eigenvalues --  -10.45018 -10.40790 -10.40132 -10.39723 -10.38241
 Alpha  occ. eigenvalues --  -10.37932 -10.37405 -10.37400 -10.35725 -10.35719
 Alpha  occ. eigenvalues --  -10.34613 -10.34408 -10.34199 -10.33827 -10.33560
 Alpha  occ. eigenvalues --  -10.33310 -10.32966 -10.32877 -10.31312 -10.30710
 Alpha  occ. eigenvalues --  -10.30247 -10.28663 -10.27680  -1.19152  -1.15497
 Alpha  occ. eigenvalues --   -1.12904  -1.12640  -1.11502  -1.10189  -1.09452
 Alpha  occ. eigenvalues --   -1.08930  -1.08172  -1.05328  -1.04959  -1.02097
 Alpha  occ. eigenvalues --   -1.01288  -1.00806  -0.99180  -0.98246  -0.97226
 Alpha  occ. eigenvalues --   -0.96926  -0.96158  -0.93024  -0.90662  -0.87940
 Alpha  occ. eigenvalues --   -0.86283  -0.84181  -0.83643  -0.83279  -0.82573
 Alpha  occ. eigenvalues --   -0.81988  -0.78483  -0.77275  -0.75160  -0.74198
 Alpha  occ. eigenvalues --   -0.73252  -0.73155  -0.72972  -0.71339  -0.70667
 Alpha  occ. eigenvalues --   -0.67080  -0.66888  -0.66609  -0.66149  -0.64541
 Alpha  occ. eigenvalues --   -0.64120  -0.63403  -0.63041  -0.62481  -0.61301
 Alpha  occ. eigenvalues --   -0.61102  -0.60830  -0.60672  -0.59735  -0.59181
 Alpha  occ. eigenvalues --   -0.58705  -0.57829  -0.57111  -0.56772  -0.56209
 Alpha  occ. eigenvalues --   -0.55844  -0.55760  -0.55531  -0.54385  -0.54194
 Alpha  occ. eigenvalues --   -0.53905  -0.53703  -0.53367  -0.53209  -0.52768
 Alpha  occ. eigenvalues --   -0.52504  -0.52144  -0.52083  -0.51080  -0.50434
 Alpha  occ. eigenvalues --   -0.49893  -0.49738  -0.49171  -0.49118  -0.48727
 Alpha  occ. eigenvalues --   -0.48382  -0.48357  -0.47983  -0.47209  -0.47088
 Alpha  occ. eigenvalues --   -0.47052  -0.45601  -0.44860  -0.44590  -0.43366
 Alpha  occ. eigenvalues --   -0.41244  -0.40978  -0.39252  -0.37924  -0.37869
 Alpha  occ. eigenvalues --   -0.37662  -0.36960  -0.36871  -0.36014  -0.34720
 Alpha  occ. eigenvalues --   -0.34550  -0.33780  -0.33726  -0.33140  -0.32824
 Alpha  occ. eigenvalues --   -0.32386  -0.32258  -0.31952  -0.31599  -0.31034
 Alpha  occ. eigenvalues --   -0.30739  -0.29630  -0.25910  -0.24827
 Alpha virt. eigenvalues --    0.03456   0.03612   0.06904   0.07346   0.08752
 Alpha virt. eigenvalues --    0.09215   0.09881   0.10437   0.11215   0.11957
 Alpha virt. eigenvalues --    0.12920   0.14018   0.14107   0.14596   0.15037

 Mulliken charges:
               1
     1  N   -0.313622
     2  C    0.179085
     3  C    0.067021
     4  N   -0.260273
     5  C    0.136639
     6  H    0.026876
     7  N   -0.286820
     8  C    0.144599
     9  H    0.010829
    10  N   -0.286275
    11  C    0.243720
    12  C    0.097308
    13  N   -0.054198
    14  H    0.108736
    15  H    0.084119
    16  H    0.026887
    17  H    0.029958
    18  H    0.026875
    19  N   -0.278836
    20  C    0.207288
    21  C    0.181307
    22  N   -0.095219
    23  H    0.112500
    24  H    0.111440
    25  N   -0.295377
    26  C    0.207635
    27  N   -0.145301
    28  H    0.126164
    29  C    0.175013
    30  O   -0.323268
    31  C    0.003937
    32  N   -0.221286
    33  C    0.125328
    34  H    0.014846
    35  H    0.024071
    36  H    0.026116
    37  H    0.021522
    38  H    0.061260
    39  H    0.057623
    40  H    0.069285
    41  H    0.027185
    42  C   -0.111513
    43  O   -0.266737
    44  C    0.172575
    45  H    0.130998
    46  N   -0.121362
    47  O   -0.333841
    48  C    0.333041
    49  H    0.046419
    50  C    0.169786
    51  C    0.036354
    52  N   -0.280022
    53  H    0.036781
    54  H    0.035444
    55  H    0.027219
    56  H    0.124241
    57  H    0.118463
    58  N   -0.061342
    59  C    0.096541
    60  C    0.234531
    61  N   -0.272404
    62  H    0.054948
    63  C    0.139494
    64  N   -0.297157
    65  H    0.037995
    66  C    0.112777
    67  N   -0.253854
    68  C    0.027553
    69  C    0.182090
    70  N   -0.293711
 Sum of Mulliken charges =  -0.00000

 Dipole moment (field-independent basis, Debye):
    X=             -7.0534    Y=              6.3858    Z=             -3.5382  Tot=             10.1512
 Quadrupole moment (field-independent basis, Debye-Ang):
   XX=           -149.1976   YY=           -225.7743   ZZ=           -257.4261
   XY=             -5.8628   XZ=              0.1873   YZ=             12.2043

 Normal termination of Gaussian 16 at Mon Jan 22 05:06:20 2018.
