 Gaussian 16, Revision A.03,
 Gaussian 16:  EM64L-G16RevA.03 25-Dec-2016

 ---------------------------------------
 #p wb97xd/cc-pvdz sp scf=(maxcycles=20)
 ---------------------------------------

 ------------------
 Base pair stacking
 ------------------
 Symbolic Z-matrix:
 Charge =  0 Multiplicity = 1

                         Standard orientation:
 ---------------------------------------------------------------------
 Center     Atomic      Atomic             Coordinates (Angstroms)
 Number     Number       Type             X           Y           Z
 ---------------------------------------------------------------------
      1          7           0        4.243226   -1.882729   -1.888214
      2          6           0        5.588268   -1.461365   -2.325590
      3          6           0        2.084546   -1.936490   -1.470439
      4          7           0        2.598326   -3.141608   -1.013883
      5          6           0        3.878284   -3.060989   -1.283858
      6          1           0        4.608996   -3.839224   -1.061692
      7          7           0        0.611746   -0.174041   -2.006706
      8          6           0        1.678698    0.467631   -2.494000
      9          1           0        1.478504    1.454858   -2.908202
     10          7           0        2.949847    0.074744   -2.546199
     11          6           0        3.086510   -1.150125   -2.011932
     12          6           0        0.782227   -1.404634   -1.475992
     13          7           0       -0.281613   -2.046750   -0.989068
     14          1           0       -0.202051   -2.959514   -0.586879
     15          1           0       -1.193904   -1.637559   -1.009681
     16          1           0        5.937968   -2.108618   -3.003054
     17          1           0        5.536949   -0.549772   -2.732389
     18          1           0        6.205153   -1.439189   -1.538844
     19          7           0        5.509124    1.940608    0.609650
     20          6           0        4.146407    1.921475    0.784845
     21          6           0        6.304133    3.124862    0.227279
     22          7           0        1.089068    3.568982    0.774197
     23          1           0        0.130243    3.345730    0.947565
     24          1           0        1.296358    4.514686    0.522385
     25          7           0        3.311449    2.972865    0.638294
     26          6           0        2.054208    2.642534    0.874603
     27          7           0        1.643953    1.379746    1.227558
     28          1           0        0.661683    1.218408    1.389081
     29          6           0        2.485561    0.282915    1.384126
     30          8           0        2.013425   -0.814646    1.705367
     31          6           0        3.839418    0.622266    1.133562
     32          7           0        4.986328   -0.158545    1.176437
     33          6           0        5.949435    0.663750    0.859464
     34          1           0        7.002961    0.389990    0.792927
     35          1           0        6.777666    2.946407   -0.634539
     36          1           0        5.696270    3.909947    0.115891
     37          1           0        6.974960    3.322732    0.941180
     38          1           0       -4.414044    0.920895    1.423787
     39          1           0       -4.202218    1.048199    3.168361
     40          1           0       -3.065042    1.847209    2.082188
     41          1           0       -3.074266   -3.577744    2.479184
     42          6           0       -2.626786   -2.591820    2.352902
     43          8           0       -0.413732   -3.420161    2.144637
     44          6           0       -1.211254   -2.483185    2.173100
     45          1           0        0.246575   -1.074371    1.893290
     46          7           0       -0.748548   -1.191477    2.022661
     47          8           0       -0.992884    1.062262    1.887867
     48          6           0       -1.494187   -0.039288    2.029112
     49          1           0       -4.461100   -1.514633    2.497023
     50          6           0       -3.380457   -1.486171    2.363724
     51          6           0       -3.688239    0.976364    2.221408
     52          7           0       -2.850816   -0.226241    2.207481
     53          1           0       -6.371239    3.506535   -2.617925
     54          1           0       -4.938046    3.723101   -1.868833
     55          1           0       -6.329721    3.898074   -1.034130
     56          1           0       -3.747204   -3.011835   -0.232391
     57          1           0       -5.413209   -2.647929   -0.278115
     58          7           0       -4.468349   -2.335025   -0.380809
     59          6           0       -4.183751   -1.071159   -0.701441
     60          6           0       -4.709983    1.184531   -1.246132
     61          7           0       -3.431878    1.576553   -1.377296
     62          1           0       -1.544633    0.790386   -1.232880
     63          6           0       -2.605331    0.558353   -1.147131
     64          7           0       -2.888418   -0.708230   -0.825864
     65          1           0       -7.930872    1.463276   -1.229318
     66          6           0       -6.900269    1.112210   -1.169837
     67          7           0       -6.546879   -0.114991   -0.875285
     68          6           0       -5.160625   -0.082835   -0.920203
     69          6           0       -5.872151    3.384375   -1.760030
     70          7           0       -5.839305    1.952011   -1.406129
 ---------------------------------------------------------------------

 SCF Done:  E(RwB97XD) =  -2048.74835082     A.U. after   15 cycles

 The electronic state is 1-A.
 Alpha  occ. eigenvalues --  -19.25466 -19.21620 -19.20766 -14.52574 -14.51961
 Alpha  occ. eigenvalues --  -14.49322 -14.48643 -14.47977 -14.47354 -14.47032
 Alpha  occ. eigenvalues --  -14.46859 -14.45506 -14.44869 -14.44712 -14.42532
 Alpha  occ. eigenvalues --  -14.42253 -14.41619 -14.40819 -14.40515 -14.40391
 Alpha  occ. eigenvalues --  -10.45019 -10.41474 -10.40392 -10.39742 -10.38449
 Alpha  occ. eigenvalues --  -10.38094 -10.37532 -10.37499 -10.36197 -10.35436
 Alpha  occ. eigenvalues --  -10.34775 -10.34564 -10.33988 -10.33896 -10.33315
 Alpha  occ. eigenvalues --  -10.33038 -10.32977 -10.32924 -10.31380 -10.30696
 Alpha  occ. eigenvalues --  -10.30162 -10.28539 -10.28155  -1.18984  -1.15377
 Alpha  occ. eigenvalues --   -1.13450  -1.12651  -1.11024  -1.10645  -1.09795
 Alpha  occ. eigenvalues --   -1.08868  -1.08737  -1.05243  -1.04985  -1.02009
 Alpha  occ. eigenvalues --   -1.01122  -1.00417  -0.99954  -0.98858  -0.97304
 Alpha  occ. eigenvalues --   -0.97070  -0.96294  -0.92693  -0.90694  -0.87891
 Alpha  occ. eigenvalues --   -0.86016  -0.84568  -0.83400  -0.83152  -0.82908
 Alpha  occ. eigenvalues --   -0.81735  -0.78493  -0.77331  -0.75161  -0.74993
 Alpha  occ. eigenvalues --   -0.73879  -0.72944  -0.72609  -0.70830  -0.70663
 Alpha  occ. eigenvalues --   -0.67672  -0.67127  -0.66173  -0.66020  -0.64612
 Alpha  occ. eigenvalues --   -0.64492  -0.63671  -0.62852  -0.62481  -0.62069
 Alpha  occ. eigenvalues --   -0.60810  -0.60512  -0.60189  -0.59559  -0.59223
 Alpha  occ. eigenvalues --   -0.59049  -0.58581  -0.57121  -0.56296  -0.55863
 Alpha  occ. eigenvalues --   -0.55563  -0.55523  -0.55299  -0.54718  -0.54299
 Alpha  occ. eigenvalues --   -0.53825  -0.53749  -0.53568  -0.53231  -0.53025
 Alpha  occ. eigenvalues --   -0.52542  -0.51969  -0.51236  -0.50478  -0.50334
 Alpha  occ. eigenvalues --   -0.50154  -0.49792  -0.49583  -0.49321  -0.49029
 Alpha  occ. eigenvalues --   -0.48595  -0.48355  -0.48208  -0.47909  -0.47311
 Alpha  occ. eigenvalues --   -0.46587  -0.45796  -0.45642  -0.44761  -0.43124
 Alpha  occ. eigenvalues --   -0.41059  -0.40905  -0.39179  -0.38123  -0.37842
 Alpha  occ. eigenvalues --   -0.37671  -0.37538  -0.36747  -0.35533  -0.35150
 Alpha  occ. eigenvalues --   -0.34715  -0.34239  -0.33329  -0.33156  -0.33130
 Alpha  occ. eigenvalues --   -0.32784  -0.32645  -0.32116  -0.31603  -0.30487
 Alpha  occ. eigenvalues --   -0.30340  -0.30226  -0.25919  -0.25586
 Alpha virt. eigenvalues --    0.03108   0.03916   0.06571   0.08192   0.08705
 Alpha virt. eigenvalues --    0.08912   0.09519   0.10339   0.11178   0.11785
 Alpha virt. eigenvalues --    0.13530   0.13911   0.14224   0.14911   0.14981

 Mulliken charges:
               1
     1  N   -0.306035
     2  C    0.182362
     3  C    0.055960
     4  N   -0.252983
     5  C    0.152251
     6  H    0.027909
     7  N   -0.297123
     8  C    0.127437
     9  H    0.009500
    10  N   -0.281769
    11  C    0.244002
    12  C    0.082964
    13  N   -0.067386
    14  H    0.117200
    15  H    0.084023
    16  H    0.021777
    17  H    0.028718
    18  H    0.025686
    19  N   -0.310294
    20  C    0.262030
    21  C    0.181982
    22  N   -0.123714
    23  H    0.119889
    24  H    0.119017
    25  N   -0.312769
    26  C    0.249464
    27  N   -0.145801
    28  H    0.120797
    29  C    0.194994
    30  O   -0.318482
    31  C   -0.018063
    32  N   -0.230363
    33  C    0.117928
    34  H    0.024166
    35  H    0.026232
    36  H    0.031509
    37  H    0.025656
    38  H    0.065717
    39  H    0.058065
    40  H    0.075302
    41  H    0.022074
    42  C   -0.124990
    43  O   -0.266309
    44  C    0.167099
    45  H    0.133773
    46  N   -0.123088
    47  O   -0.352511
    48  C    0.351950
    49  H    0.042189
    50  C    0.178153
    51  C    0.039157
    52  N   -0.277712
    53  H    0.034314
    54  H    0.042071
    55  H    0.029691
    56  H    0.121185
    57  H    0.117971
    58  N   -0.060344
    59  C    0.084263
    60  C    0.229168
    61  N   -0.263100
    62  H    0.033108
    63  C    0.169545
    64  N   -0.310458
    65  H    0.039933
    66  C    0.139968
    67  N   -0.258937
    68  C    0.022572
    69  C    0.180104
    70  N   -0.308598
 Sum of Mulliken charges =  -0.00000

 Dipole moment (field-independent basis, Debye):
    X=             -7.1726    Y=              7.6429    Z=             -0.7035  Tot=             10.5050
 Quadrupole moment (field-independent basis, Debye-Ang):
   XX=           -157.7258   YY=           -222.9644   ZZ=           -251.4082
   XY=              1.5302   XZ=            -16.1825   YZ=              7.0545

 Normal termination of Gaussian 16 at Mon Jan 22 04:54:06 2018.
