 Gaussian 16, Revision A.03,
 Gaussian 16:  EM64L-G16RevA.03 25-Dec-2016

 ---------------------------------------
 #p wb97xd/cc-pvdz sp scf=(maxcycles=20)
 ---------------------------------------

 ------------------
 Base pair stacking
 ------------------
 Symbolic Z-matrix:
 Charge =  0 Multiplicity = 1

                         Standard orientation:
 ---------------------------------------------------------------------
 Center     Atomic      Atomic             Coordinates (Angstroms)
 Number     Number       Type             X           Y           Z
 ---------------------------------------------------------------------
      1          7           0        5.804141   -1.527176   -1.033404
      2          6           0        7.172704   -0.979512   -1.104697
      3          6           0        3.615730   -1.741408   -1.081279
      4          7           0        4.120900   -2.990949   -0.752357
      5          6           0        5.419115   -2.811875   -0.736680
      6          1           0        6.149633   -3.589801   -0.512826
      7          7           0        2.145820    0.033575   -1.583004
      8          6           0        3.235391    0.796286   -1.719702
      9          1           0        3.045209    1.835932   -1.982830
     10          7           0        4.518576    0.469107   -1.580837
     11          6           0        4.641305   -0.828919   -1.257574
     12          6           0        2.302749   -1.268102   -1.257276
     13          7           0        1.216321   -2.031068   -1.120372
     14          1           0        1.285207   -2.999957   -0.880113
     15          1           0        0.297032   -1.660397   -1.253210
     16          1           0        7.694565   -1.472353   -1.801089
     17          1           0        7.132441   -0.009811   -1.343837
     18          1           0        7.622383   -1.083916   -0.217628
     19          7           0        3.986678    2.133672    1.343138
     20          6           0        2.618552    2.035250    1.261909
     21          6           0        4.775228    3.343912    1.036201
     22          7           0       -0.464784    3.475660    0.569098
     23          1           0       -1.425691    3.200227    0.575314
     24          1           0       -0.264411    4.417123    0.296697
     25          7           0        1.771565    3.019686    0.891047
     26          6           0        0.511894    2.621593    0.910553
     27          7           0        0.110307    1.356661    1.265770
     28          1           0       -0.874643    1.140720    1.251789
     29          6           0        0.964352    0.327961    1.650786
     30          8           0        0.499291   -0.778227    1.952159
     31          6           0        2.320965    0.740548    1.634732
     32          7           0        3.478961    0.040247    1.943793
     33          6           0        4.439263    0.904601    1.756913
     34          1           0        5.499328    0.697135    1.906857
     35          1           0        5.412999    3.148351    0.292017
     36          1           0        4.158446    4.079910    0.760268
     37          1           0        5.286329    3.625414    1.847589
     38          1           0       -5.840796    0.513731    0.359080
     39          1           0       -5.972007    0.753221    2.099790
     40          1           0       -4.693434    1.562236    1.193085
     41          1           0       -4.486977   -3.820463    1.949205
     42          6           0       -4.077193   -2.816079    1.841906
     43          8           0       -1.823766   -3.508112    2.106963
     44          6           0       -2.661224   -2.625291    1.922387
     45          1           0       -1.254503   -1.142096    1.824357
     46          7           0       -2.248321   -1.316633    1.773462
     47          8           0       -2.583085    0.904998    1.442579
     48          6           0       -3.042272   -0.217258    1.562362
     49          1           0       -5.960510   -1.854964    1.567716
     50          6           0       -4.877368   -1.763351    1.636759
     51          6           0       -5.284098    0.661714    1.272454
     52          7           0       -4.396037   -0.482291    1.496793
     53          1           0       -4.844428    3.495074   -2.938266
     54          1           0       -3.603586    3.619558   -1.886154
     55          1           0       -5.139537    3.579567   -1.335394
     56          1           0       -2.247366   -3.253453   -1.271495
     57          1           0       -3.895700   -2.951082   -1.590375
     58          7           0       -2.975135   -2.588687   -1.440539
     59          6           0       -2.730018   -1.277013   -1.465268
     60          6           0       -3.309519    1.019430   -1.693855
     61          7           0       -2.063435    1.477539   -1.489321
     62          1           0       -0.185940    0.750568   -1.105765
     63          6           0       -1.222619    0.466315   -1.281080
     64          7           0       -1.466183   -0.848075   -1.255920
     65          1           0       -6.484569    1.167258   -2.284959
     66          6           0       -5.461429    0.850729   -2.080178
     67          7           0       -5.080166   -0.395769   -1.943848
     68          6           0       -3.717842   -0.302987   -1.698532
     69          6           0       -4.512866    3.231063   -2.032526
     70          7           0       -4.441180    1.759837   -1.941114
 ---------------------------------------------------------------------

 SCF Done:  E(RwB97XD) =  -2048.75243906     A.U. after   15 cycles

 The electronic state is 1-A.
 Alpha  occ. eigenvalues --  -19.25619 -19.21811 -19.20458 -14.52536 -14.52141
 Alpha  occ. eigenvalues --  -14.48813 -14.48423 -14.48098 -14.47568 -14.46678
 Alpha  occ. eigenvalues --  -14.46232 -14.45562 -14.44231 -14.44221 -14.42477
 Alpha  occ. eigenvalues --  -14.41779 -14.41374 -14.41172 -14.40675 -14.40385
 Alpha  occ. eigenvalues --  -10.45190 -10.40953 -10.39915 -10.39905 -10.38072
 Alpha  occ. eigenvalues --  -10.38030 -10.37513 -10.37200 -10.35649 -10.35568
 Alpha  occ. eigenvalues --  -10.34816 -10.34132 -10.34067 -10.34029 -10.33413
 Alpha  occ. eigenvalues --  -10.33241 -10.33116 -10.32676 -10.31187 -10.30841
 Alpha  occ. eigenvalues --  -10.30484 -10.28538 -10.27828  -1.19219  -1.15265
 Alpha  occ. eigenvalues --   -1.12986  -1.12826  -1.11363  -1.10322  -1.09222
 Alpha  occ. eigenvalues --   -1.09045  -1.08306  -1.05170  -1.04736  -1.02234
 Alpha  occ. eigenvalues --   -1.01054  -1.00612  -0.99399  -0.98326  -0.97062
 Alpha  occ. eigenvalues --   -0.96718  -0.96306  -0.92854  -0.90781  -0.87689
 Alpha  occ. eigenvalues --   -0.86031  -0.84033  -0.83802  -0.83364  -0.82434
 Alpha  occ. eigenvalues --   -0.82167  -0.78594  -0.77046  -0.74859  -0.74333
 Alpha  occ. eigenvalues --   -0.73377  -0.73101  -0.73011  -0.71179  -0.70421
 Alpha  occ. eigenvalues --   -0.67093  -0.66786  -0.66434  -0.66263  -0.64287
 Alpha  occ. eigenvalues --   -0.64199  -0.63504  -0.62865  -0.62480  -0.61468
 Alpha  occ. eigenvalues --   -0.60810  -0.60587  -0.60460  -0.59508  -0.59232
 Alpha  occ. eigenvalues --   -0.58825  -0.58020  -0.56824  -0.56653  -0.56179
 Alpha  occ. eigenvalues --   -0.55759  -0.55672  -0.55350  -0.54291  -0.54057
 Alpha  occ. eigenvalues --   -0.53932  -0.53555  -0.53366  -0.53212  -0.52732
 Alpha  occ. eigenvalues --   -0.52656  -0.52219  -0.51929  -0.50890  -0.50351
 Alpha  occ. eigenvalues --   -0.49926  -0.49838  -0.49219  -0.49009  -0.48619
 Alpha  occ. eigenvalues --   -0.48548  -0.48479  -0.48119  -0.47285  -0.47170
 Alpha  occ. eigenvalues --   -0.47053  -0.45653  -0.44851  -0.44735  -0.43532
 Alpha  occ. eigenvalues --   -0.41174  -0.40791  -0.39257  -0.37773  -0.37596
 Alpha  occ. eigenvalues --   -0.37357  -0.37056  -0.37019  -0.35999  -0.34641
 Alpha  occ. eigenvalues --   -0.34388  -0.33792  -0.33568  -0.33319  -0.33002
 Alpha  occ. eigenvalues --   -0.32488  -0.32254  -0.31995  -0.31703  -0.30996
 Alpha  occ. eigenvalues --   -0.30623  -0.29620  -0.25821  -0.25047
 Alpha virt. eigenvalues --    0.03314   0.03872   0.07139   0.07626   0.08645
 Alpha virt. eigenvalues --    0.09290   0.09980   0.10455   0.11095   0.11834
 Alpha virt. eigenvalues --    0.12929   0.14179   0.14277   0.14590   0.15048

 Mulliken charges:
               1
     1  N   -0.312990
     2  C    0.179608
     3  C    0.066063
     4  N   -0.258996
     5  C    0.136429
     6  H    0.026546
     7  N   -0.289901
     8  C    0.136861
     9  H    0.012059
    10  N   -0.288317
    11  C    0.241495
    12  C    0.100837
    13  N   -0.052135
    14  H    0.110377
    15  H    0.084714
    16  H    0.026448
    17  H    0.030570
    18  H    0.025438
    19  N   -0.295524
    20  C    0.239776
    21  C    0.180855
    22  N   -0.106249
    23  H    0.112703
    24  H    0.114215
    25  N   -0.303956
    26  C    0.222690
    27  N   -0.144882
    28  H    0.125586
    29  C    0.178033
    30  O   -0.323656
    31  C   -0.006894
    32  N   -0.223201
    33  C    0.128118
    34  H    0.017250
    35  H    0.028040
    36  H    0.026929
    37  H    0.021779
    38  H    0.060711
    39  H    0.059241
    40  H    0.070745
    41  H    0.026155
    42  C   -0.110960
    43  O   -0.268182
    44  C    0.167207
    45  H    0.131784
    46  N   -0.118303
    47  O   -0.337733
    48  C    0.333674
    49  H    0.046914
    50  C    0.170882
    51  C    0.035305
    52  N   -0.279329
    53  H    0.035409
    54  H    0.037557
    55  H    0.026229
    56  H    0.126440
    57  H    0.117276
    58  N   -0.057900
    59  C    0.090389
    60  C    0.242594
    61  N   -0.272108
    62  H    0.045899
    63  C    0.148063
    64  N   -0.298989
    65  H    0.037389
    66  C    0.118864
    67  N   -0.257737
    68  C    0.025472
    69  C    0.181364
    70  N   -0.301039
 Sum of Mulliken charges =  -0.00000

 Dipole moment (field-independent basis, Debye):
    X=             -7.1299    Y=              6.4446    Z=             -2.9921  Tot=             10.0658
 Quadrupole moment (field-independent basis, Debye-Ang):
   XX=           -149.1284   YY=           -223.9757   ZZ=           -256.6488
   XY=             -5.4877   XZ=              0.8933   YZ=              9.3862

 Normal termination of Gaussian 16 at Mon Jan 22 13:44:13 2018.
