 Gaussian 16, Revision A.03,
 Gaussian 16:  EM64L-G16RevA.03 25-Dec-2016

 ---------------------------------------
 #p wb97xd/cc-pvdz sp scf=(maxcycles=20)
 ---------------------------------------

 ------------------
 Base pair stacking
 ------------------
 Symbolic Z-matrix:
 Charge =  0 Multiplicity = 1

                         Standard orientation:
 ---------------------------------------------------------------------
 Center     Atomic      Atomic             Coordinates (Angstroms)
 Number     Number       Type             X           Y           Z
 ---------------------------------------------------------------------
      1          7           0       -7.142565   -1.218240    0.171751
      2          6           0       -8.478188   -0.611022    0.012407
      3          6           0       -4.991331   -1.514864    0.520347
      4          7           0       -5.518367   -2.770618    0.255664
      5          6           0       -6.793307   -2.541652    0.056243
      6          1           0       -7.531337   -3.308583   -0.180581
      7          7           0       -3.501400    0.242047    1.026608
      8          6           0       -4.557079    1.058524    0.946086
      9          1           0       -4.345327    2.111559    1.126442
     10          7           0       -5.829087    0.770861    0.677466
     11          6           0       -5.980447   -0.547990    0.472145
     12          6           0       -3.686535   -1.079300    0.814845
     13          7           0       -2.633967   -1.895916    0.894793
     14          1           0       -2.724540   -2.881172    0.745467
     15          1           0       -1.719486   -1.550921    1.106556
     16          1           0       -9.107427   -1.005965    0.681918
     17          1           0       -8.415768    0.376075    0.156899
     18          1           0       -8.820197   -0.790183   -0.910050
     19          7           0       -2.486424    2.163753   -1.634683
     20          6           0       -1.143941    2.018549   -1.380304
     21          6           0       -3.260427    3.407899   -1.450998
     22          7           0        1.881269    3.363498   -0.331055
     23          1           0        2.824217    3.053967   -0.211462
     24          1           0        1.684471    4.317391   -0.102858
     25          7           0       -0.313040    2.980298   -0.923486
     26          6           0        0.923078    2.537283   -0.777314
     27          7           0        1.317387    1.251184   -1.056585
     28          1           0        2.283911    1.000692   -0.914985
     29          6           0        0.479568    0.245134   -1.527524
     30          8           0        0.936125   -0.883392   -1.748216
     31          6           0       -0.851677    0.706013   -1.689565
     32          7           0       -1.987806    0.040607   -2.129249
     33          6           0       -2.930271    0.942585   -2.080075
     34          1           0       -3.970409    0.769660   -2.358423
     35          1           0       -3.993208    3.251960   -0.789552
     36          1           0       -2.655350    4.127498   -1.112871
     37          1           0       -3.654968    3.689088   -2.325107
     38          1           0        7.071949    0.217543    0.606213
     39          1           0        7.428774    0.413000   -1.108170
     40          1           0        6.078681    1.287206   -0.384035
     41          1           0        5.763220   -4.100376   -1.063917
     42          6           0        5.381851   -3.079879   -1.026957
     43          8           0        3.154491   -3.697039   -1.560902
     44          6           0        3.995369   -2.840662   -1.288254
     45          1           0        2.645028   -1.306509   -1.394402
     46          7           0        3.617301   -1.515121   -1.215822
     47          8           0        3.992551    0.700066   -0.885175
     48          6           0        4.419982   -0.440231   -0.926213
     49          1           0        7.251394   -2.180491   -0.535299
     50          6           0        6.189669   -2.051958   -0.741624
     51          6           0        6.639863    0.364671   -0.372418
     52          7           0        5.743820   -0.751756   -0.686192
     53          1           0        3.444181    3.540745    2.913363
     54          1           0        2.350737    3.603673    1.704014
     55          1           0        3.938435    3.443436    1.361051
     56          1           0        0.714308   -3.235076    1.608920
     57          1           0        2.324669   -2.967875    2.104345
     58          7           0        1.450287   -2.586262    1.802594
     59          6           0        1.274602   -1.270456    1.664916
     60          6           0        1.943726    1.011863    1.735763
     61          7           0        0.758632    1.496002    1.328835
     62          1           0       -1.093607    0.809403    0.782589
     63          6           0       -0.103102    0.503410    1.116555
     64          7           0        0.070951   -0.815085    1.253885
     65          1           0        5.025194    1.092304    2.710553
     66          6           0        4.019576    0.797702    2.409120
     67          7           0        3.591774   -0.439711    2.350034
     68          6           0        2.276938   -0.318140    1.924404
     69          6           0        3.212948    3.196225    2.003507
     70          7           0        3.074370    1.727695    2.050752
 ---------------------------------------------------------------------

 SCF Done:  E(RwB97XD) =  -2048.70351295     A.U. after   15 cycles

 The electronic state is 1-A.
 Alpha  occ. eigenvalues --  -19.25972 -19.21935 -19.20483 -14.52458 -14.51652
 Alpha  occ. eigenvalues --  -14.49628 -14.48572 -14.47851 -14.46802 -14.46656
 Alpha  occ. eigenvalues --  -14.46207 -14.44536 -14.42994 -14.42957 -14.42456
 Alpha  occ. eigenvalues --  -14.42305 -14.41898 -14.41799 -14.41046 -14.40658
 Alpha  occ. eigenvalues --  -10.45559 -10.41255 -10.40055 -10.38635 -10.38083
 Alpha  occ. eigenvalues --  -10.37728 -10.37148 -10.36291 -10.35983 -10.35622
 Alpha  occ. eigenvalues --  -10.34957 -10.34302 -10.34259 -10.34251 -10.34053
 Alpha  occ. eigenvalues --  -10.33465 -10.33149 -10.31635 -10.31549 -10.31025
 Alpha  occ. eigenvalues --  -10.30546 -10.29485 -10.28035  -1.19508  -1.14388
 Alpha  occ. eigenvalues --   -1.13174  -1.12971  -1.12242  -1.10465  -1.09349
 Alpha  occ. eigenvalues --   -1.08726  -1.07948  -1.05893  -1.03558  -1.02484
 Alpha  occ. eigenvalues --   -1.01306  -1.00626  -0.99623  -0.98399  -0.97800
 Alpha  occ. eigenvalues --   -0.96431  -0.95596  -0.93534  -0.91027  -0.86871
 Alpha  occ. eigenvalues --   -0.85412  -0.84806  -0.84017  -0.83836  -0.83124
 Alpha  occ. eigenvalues --   -0.82339  -0.78863  -0.76009  -0.74680  -0.73910
 Alpha  occ. eigenvalues --   -0.73778  -0.73563  -0.73350  -0.71986  -0.69442
 Alpha  occ. eigenvalues --   -0.67580  -0.67153  -0.66566  -0.65811  -0.64455
 Alpha  occ. eigenvalues --   -0.63750  -0.63625  -0.63295  -0.62763  -0.62033
 Alpha  occ. eigenvalues --   -0.61018  -0.60167  -0.59724  -0.59508  -0.59474
 Alpha  occ. eigenvalues --   -0.58652  -0.58270  -0.57369  -0.57166  -0.56931
 Alpha  occ. eigenvalues --   -0.56178  -0.55921  -0.55474  -0.54549  -0.54365
 Alpha  occ. eigenvalues --   -0.53633  -0.53502  -0.52999  -0.52833  -0.52648
 Alpha  occ. eigenvalues --   -0.52484  -0.52199  -0.51848  -0.51592  -0.50987
 Alpha  occ. eigenvalues --   -0.50033  -0.49885  -0.49439  -0.49118  -0.48703
 Alpha  occ. eigenvalues --   -0.48585  -0.48173  -0.48005  -0.47812  -0.47455
 Alpha  occ. eigenvalues --   -0.47311  -0.45869  -0.45365  -0.43990  -0.42694
 Alpha  occ. eigenvalues --   -0.42095  -0.39578  -0.39453  -0.38090  -0.37293
 Alpha  occ. eigenvalues --   -0.37140  -0.36686  -0.36319  -0.35803  -0.34954
 Alpha  occ. eigenvalues --   -0.34399  -0.34327  -0.33136  -0.32959  -0.32765
 Alpha  occ. eigenvalues --   -0.32472  -0.32085  -0.31932  -0.31771  -0.31663
 Alpha  occ. eigenvalues --   -0.31208  -0.28422  -0.26685  -0.25201
 Alpha virt. eigenvalues --    0.03198   0.04676   0.07037   0.07852   0.08374
 Alpha virt. eigenvalues --    0.09362   0.09711   0.09972   0.11147   0.12321
 Alpha virt. eigenvalues --    0.12773   0.13340   0.14378   0.14698   0.14724

 Mulliken charges:
               1
     1  N   -0.311835
     2  C    0.180621
     3  C    0.036140
     4  N   -0.258292
     5  C    0.134742
     6  H    0.029533
     7  N   -0.278152
     8  C    0.112820
     9  H    0.021736
    10  N   -0.286446
    11  C    0.238470
    12  C    0.113178
    13  N   -0.049998
    14  H    0.107447
    15  H    0.088269
    16  H    0.027433
    17  H    0.035333
    18  H    0.027204
    19  N   -0.300079
    20  C    0.219090
    21  C    0.185345
    22  N   -0.097473
    23  H    0.108763
    24  H    0.118236
    25  N   -0.274683
    26  C    0.195552
    27  N   -0.105908
    28  H    0.122816
    29  C    0.135627
    30  O   -0.320657
    31  C    0.005343
    32  N   -0.220779
    33  C    0.127105
    34  H    0.029118
    35  H    0.019804
    36  H    0.026842
    37  H    0.023809
    38  H    0.058977
    39  H    0.062945
    40  H    0.069478
    41  H    0.031274
    42  C   -0.110491
    43  O   -0.267671
    44  C    0.179547
    45  H    0.135042
    46  N   -0.136510
    47  O   -0.352838
    48  C    0.364609
    49  H    0.047204
    50  C    0.175689
    51  C    0.038659
    52  N   -0.294036
    53  H    0.030434
    54  H    0.033575
    55  H    0.015653
    56  H    0.120122
    57  H    0.118063
    58  N   -0.064110
    59  C    0.125974
    60  C    0.224285
    61  N   -0.260885
    62  H    0.066671
    63  C    0.143224
    64  N   -0.299858
    65  H    0.026391
    66  C    0.128496
    67  N   -0.260909
    68  C    0.018263
    69  C    0.172783
    70  N   -0.306123
 Sum of Mulliken charges =  -0.00000

 Dipole moment (field-independent basis, Debye):
    X=              6.2529    Y=              5.7727    Z=              3.5634  Tot=              9.2261
 Quadrupole moment (field-independent basis, Debye-Ang):
   XX=           -139.8789   YY=           -226.4952   ZZ=           -254.3835
   XY=             12.2190   XZ=             15.8260   YZ=            -10.0067

 Normal termination of Gaussian 16 at Mon Jan 22 04:19:50 2018.
