 Gaussian 16, Revision A.03,
 Gaussian 16:  EM64L-G16RevA.03 25-Dec-2016

 ---------------------------------------
 #p wb97xd/cc-pvdz sp scf=(maxcycles=20)
 ---------------------------------------

 ------------------
 Base pair stacking
 ------------------
 Symbolic Z-matrix:
 Charge =  0 Multiplicity = 1

                         Standard orientation:
 ---------------------------------------------------------------------
 Center     Atomic      Atomic             Coordinates (Angstroms)
 Number     Number       Type             X           Y           Z
 ---------------------------------------------------------------------
      1          7           0       -7.176290   -1.224068    0.143284
      2          6           0       -8.522049   -0.622061    0.075992
      3          6           0       -5.017100   -1.529540    0.429462
      4          7           0       -5.529768   -2.749473    0.012735
      5          6           0       -6.810081   -2.516608   -0.142993
      6          1           0       -7.540167   -3.258502   -0.467830
      7          7           0       -3.545756    0.171550    1.139673
      8          6           0       -4.613582    0.975373    1.174295
      9          1           0       -4.414334    2.000130    1.484833
     10          7           0       -5.884608    0.704662    0.884262
     11          6           0       -6.020069   -0.579622    0.514571
     12          6           0       -3.715040   -1.114922    0.763628
     13          7           0       -2.650321   -1.918857    0.728443
     14          1           0       -2.728978   -2.878464    0.456072
     15          1           0       -1.738247   -1.589546    0.973013
     16          1           0       -9.137632   -1.108375    0.696257
     17          1           0       -8.471630    0.339548    0.344090
     18          1           0       -8.872615   -0.687952   -0.858231
     19          7           0       -2.425725    2.272818   -1.669279
     20          6           0       -1.082262    2.114791   -1.428095
     21          6           0       -3.177071    3.535363   -1.520407
     22          7           0        1.978647    3.446720   -0.469694
     23          1           0        2.918126    3.126215   -0.351787
     24          1           0        1.800361    4.411350   -0.273655
     25          7           0       -0.229699    3.078586   -1.017886
     26          6           0        1.001149    2.620833   -0.872549
     27          7           0        1.370851    1.319172   -1.110241
     28          1           0        2.335160    1.058054   -0.972810
     29          6           0        0.510464    0.310711   -1.532860
     30          8           0        0.945757   -0.832431   -1.718605
     31          6           0       -0.815423    0.787307   -1.693404
     32          7           0       -1.968163    0.125264   -2.093115
     33          6           0       -2.895304    1.043838   -2.063926
     34          1           0       -3.941925    0.878139   -2.321615
     35          1           0       -3.902786    3.415513   -0.843820
     36          1           0       -2.555844    4.256635   -1.216919
     37          1           0       -3.579453    3.791267   -2.398702
     38          1           0        7.131211    0.251573    0.510512
     39          1           0        7.466722    0.379083   -1.214546
     40          1           0        6.141182    1.301000   -0.504341
     41          1           0        5.730088   -4.101692   -0.983641
     42          6           0        5.365622   -3.074380   -0.978592
     43          8           0        3.121337   -3.673638   -1.459389
     44          6           0        3.979566   -2.821948   -1.229517
     45          1           0        2.652528   -1.270585   -1.372943
     46          7           0        3.623789   -1.488609   -1.200155
     47          8           0        4.039033    0.730591   -0.955356
     48          6           0        4.447566   -0.417335   -0.960755
     49          1           0        7.256086   -2.188744   -0.545445
     50          6           0        6.193727   -2.050280   -0.741832
     51          6           0        6.687660    0.370363   -0.466842
     52          7           0        5.769541   -0.741749   -0.727613
     53          1           0        3.375486    3.310176    3.359518
     54          1           0        2.266795    3.509306    2.179165
     55          1           0        3.852319    3.418233    1.802483
     56          1           0        0.724599   -3.286352    1.232525
     57          1           0        2.336936   -3.059537    1.741474
     58          7           0        1.453766   -2.656156    1.499569
     59          6           0        1.258151   -1.336370    1.531994
     60          6           0        1.896280    0.928489    1.885456
     61          7           0        0.699755    1.442142    1.555432
     62          1           0       -1.149197    0.802107    0.945236
     63          6           0       -0.150592    0.471422    1.227522
     64          7           0        0.043426   -0.851019    1.194423
     65          1           0        4.987845    0.931783    2.831167
     66          6           0        3.982856    0.662442    2.504992
     67          7           0        3.571632   -0.563873    2.293512
     68          6           0        2.250201   -0.409430    1.900180
     69          6           0        3.138135    3.080403    2.415661
     70          7           0        3.020569    1.615806    2.277342
 ---------------------------------------------------------------------

 SCF Done:  E(RwB97XD) =  -2048.73927756     A.U. after   15 cycles

 The electronic state is 1-A.
 Alpha  occ. eigenvalues --  -19.25991 -19.22065 -19.20649 -14.52481 -14.51360
 Alpha  occ. eigenvalues --  -14.49477 -14.48698 -14.47901 -14.47114 -14.46727
 Alpha  occ. eigenvalues --  -14.46426 -14.44309 -14.42711 -14.42693 -14.42530
 Alpha  occ. eigenvalues --  -14.42153 -14.42055 -14.41663 -14.40849 -14.40766
 Alpha  occ. eigenvalues --  -10.45584 -10.41328 -10.40166 -10.38355 -10.38275
 Alpha  occ. eigenvalues --  -10.37775 -10.36908 -10.36080 -10.35782 -10.35598
 Alpha  occ. eigenvalues --  -10.34804 -10.34366 -10.34188 -10.34123 -10.33823
 Alpha  occ. eigenvalues --  -10.33323 -10.33257 -10.31523 -10.31287 -10.31066
 Alpha  occ. eigenvalues --  -10.30667 -10.29301 -10.28173  -1.19517  -1.14025
 Alpha  occ. eigenvalues --   -1.13265  -1.13082  -1.12084  -1.10580  -1.09378
 Alpha  occ. eigenvalues --   -1.08719  -1.07667  -1.05685  -1.03241  -1.02539
 Alpha  occ. eigenvalues --   -1.01086  -1.00163  -0.99697  -0.98539  -0.97635
 Alpha  occ. eigenvalues --   -0.96526  -0.95278  -0.93318  -0.91062  -0.86466
 Alpha  occ. eigenvalues --   -0.84954  -0.84634  -0.84130  -0.83844  -0.82971
 Alpha  occ. eigenvalues --   -0.82426  -0.78904  -0.75685  -0.74669  -0.73847
 Alpha  occ. eigenvalues --   -0.73581  -0.73426  -0.73345  -0.71771  -0.69094
 Alpha  occ. eigenvalues --   -0.67545  -0.66960  -0.66600  -0.65423  -0.64510
 Alpha  occ. eigenvalues --   -0.63807  -0.63404  -0.62929  -0.62729  -0.61951
 Alpha  occ. eigenvalues --   -0.60803  -0.59864  -0.59559  -0.59287  -0.59179
 Alpha  occ. eigenvalues --   -0.58463  -0.58345  -0.57101  -0.57039  -0.56716
 Alpha  occ. eigenvalues --   -0.56062  -0.55956  -0.54887  -0.54446  -0.54249
 Alpha  occ. eigenvalues --   -0.53673  -0.53506  -0.52959  -0.52717  -0.52659
 Alpha  occ. eigenvalues --   -0.52307  -0.52134  -0.51634  -0.51438  -0.50823
 Alpha  occ. eigenvalues --   -0.50160  -0.49705  -0.49501  -0.48879  -0.48707
 Alpha  occ. eigenvalues --   -0.48647  -0.48281  -0.47846  -0.47682  -0.47532
 Alpha  occ. eigenvalues --   -0.47401  -0.45726  -0.45275  -0.44056  -0.42971
 Alpha  occ. eigenvalues --   -0.41896  -0.39559  -0.39396  -0.37891  -0.37403
 Alpha  occ. eigenvalues --   -0.37268  -0.36452  -0.36217  -0.35812  -0.34816
 Alpha  occ. eigenvalues --   -0.34221  -0.34178  -0.33261  -0.33018  -0.32832
 Alpha  occ. eigenvalues --   -0.32572  -0.32160  -0.31994  -0.31875  -0.31648
 Alpha  occ. eigenvalues --   -0.31018  -0.28446  -0.26476  -0.25449
 Alpha virt. eigenvalues --    0.03130   0.05130   0.07238   0.08187   0.08369
 Alpha virt. eigenvalues --    0.09344   0.09644   0.10185   0.11114   0.12190
 Alpha virt. eigenvalues --    0.12699   0.13425   0.14440   0.14651   0.15158

 Mulliken charges:
               1
     1  N   -0.311299
     2  C    0.180689
     3  C    0.033621
     4  N   -0.257728
     5  C    0.133857
     6  H    0.028844
     7  N   -0.282867
     8  C    0.120575
     9  H    0.016944
    10  N   -0.287927
    11  C    0.237330
    12  C    0.113267
    13  N   -0.047825
    14  H    0.107710
    15  H    0.088738
    16  H    0.027210
    17  H    0.035379
    18  H    0.026465
    19  N   -0.304125
    20  C    0.231511
    21  C    0.181998
    22  N   -0.112224
    23  H    0.112768
    24  H    0.117769
    25  N   -0.289278
    26  C    0.223466
    27  N   -0.116855
    28  H    0.119872
    29  C    0.146144
    30  O   -0.321445
    31  C   -0.000492
    32  N   -0.221910
    33  C    0.129883
    34  H    0.029639
    35  H    0.028598
    36  H    0.027411
    37  H    0.023853
    38  H    0.058487
    39  H    0.062240
    40  H    0.070374
    41  H    0.031065
    42  C   -0.109602
    43  O   -0.271165
    44  C    0.175262
    45  H    0.135638
    46  N   -0.134731
    47  O   -0.353747
    48  C    0.364452
    49  H    0.047495
    50  C    0.177365
    51  C    0.039982
    52  N   -0.294105
    53  H    0.033010
    54  H    0.039171
    55  H    0.015102
    56  H    0.120805
    57  H    0.118310
    58  N   -0.055968
    59  C    0.120705
    60  C    0.229844
    61  N   -0.259595
    62  H    0.052955
    63  C    0.145370
    64  N   -0.299779
    65  H    0.025803
    66  C    0.128452
    67  N   -0.262617
    68  C    0.016674
    69  C    0.168947
    70  N   -0.305766
 Sum of Mulliken charges =  -0.00000

 Dipole moment (field-independent basis, Debye):
    X=              6.6196    Y=              5.9101    Z=              2.8874  Tot=              9.3320
 Quadrupole moment (field-independent basis, Debye-Ang):
   XX=           -139.8552   YY=           -225.2269   ZZ=           -252.8746
   XY=             11.4680   XZ=             16.5065   YZ=             -7.9912

 Normal termination of Gaussian 16 at Mon Jan 22 00:25:18 2018.
