 Gaussian 16, Revision A.03,
 Gaussian 16:  EM64L-G16RevA.03 25-Dec-2016

 ---------------------------------------
 #p wb97xd/cc-pvdz sp scf=(maxcycles=20)
 ---------------------------------------

 ------------------
 Base pair stacking
 ------------------
 Symbolic Z-matrix:
 Charge =  0 Multiplicity = 1

                         Standard orientation:
 ---------------------------------------------------------------------
 Center     Atomic      Atomic             Coordinates (Angstroms)
 Number     Number       Type             X           Y           Z
 ---------------------------------------------------------------------
      1          7           0        4.301011   -1.449456   -1.865714
      2          6           0        5.674638   -0.926860   -2.000031
      3          6           0        2.115446   -1.604572   -1.674500
      4          7           0        2.598477   -2.905115   -1.672354
      5          6           0        3.895865   -2.759608   -1.787629
      6          1           0        4.611396   -3.581704   -1.821194
      7          7           0        0.679161    0.265298   -1.614445
      8          6           0        1.778156    1.017447   -1.733025
      9          1           0        1.605722    2.092661   -1.754122
     10          7           0        3.052191    0.642575   -1.829012
     11          6           0        3.153113   -0.696431   -1.793045
     12          6           0        0.814112   -1.078484   -1.581230
     13          7           0       -0.281751   -1.830984   -1.462908
     14          1           0       -0.229095   -2.829791   -1.434162
     15          1           0       -1.192241   -1.422235   -1.399004
     16          1           0        6.084661   -1.276056   -2.842721
     17          1           0        5.650513    0.071917   -2.031210
     18          1           0        6.223430   -1.221076   -1.217550
     19          7           0        5.479867    1.756816    0.722490
     20          6           0        4.110451    1.701522    0.820937
     21          6           0        6.261866    2.955322    0.358153
     22          7           0        1.013690    3.258062    0.599571
     23          1           0        0.053184    3.010580    0.723719
     24          1           0        1.208399    4.203772    0.337931
     25          7           0        3.256045    2.724559    0.603126
     26          6           0        1.997137    2.362686    0.775766
     27          7           0        1.602987    1.096341    1.134270
     28          1           0        0.618021    0.909805    1.243827
     29          6           0        2.464731    0.028298    1.363509
     30          8           0        2.006012   -1.075433    1.683029
     31          6           0        3.820626    0.401709    1.181886
     32          7           0        4.984673   -0.344019    1.307522
     33          6           0        5.940849    0.499110    1.026354
     34          1           0        7.003712    0.254986    1.025729
     35          1           0        6.788611    2.772249   -0.471209
     36          1           0        5.639566    3.719652    0.194437
     37          1           0        6.885066    3.188158    1.103960
     38          1           0       -4.441071    0.464407    0.999084
     39          1           0       -4.332776    0.635548    2.749405
     40          1           0       -3.158353    1.443898    1.710822
     41          1           0       -3.038035   -3.969147    2.232647
     42          6           0       -2.611906   -2.973487    2.108928
     43          8           0       -0.368228   -3.740895    2.045135
     44          6           0       -1.192045   -2.827309    2.006776
     45          1           0        0.239298   -1.382737    1.776970
     46          7           0       -0.757912   -1.526139    1.852695
     47          8           0       -1.057272    0.716028    1.651986
     48          6           0       -1.534725   -0.396436    1.790300
     49          1           0       -4.480950   -1.947678    2.124275
     50          6           0       -3.395697   -1.890437    2.051522
     51          6           0       -3.763799    0.558362    1.834868
     52          7           0       -2.893533   -0.619191    1.896160
     53          1           0       -6.256292    4.073587   -1.333791
     54          1           0       -4.892413    3.953146   -0.446426
     55          1           0       -6.350264    3.831770    0.277461
     56          1           0       -3.790961   -2.925100   -1.411831
     57          1           0       -5.450059   -2.529952   -1.448748
     58          7           0       -4.502343   -2.225072   -1.348267
     59          6           0       -4.201630   -0.941760   -1.138846
     60          6           0       -4.697758    1.363797   -0.822595
     61          7           0       -3.416204    1.744391   -0.691457
     62          1           0       -1.541669    0.915853   -0.706906
     63          6           0       -2.604007    0.695042   -0.801445
     64          7           0       -2.903251   -0.591048   -1.011206
     65          1           0       -7.910831    1.695002   -0.959036
     66          6           0       -6.886139    1.322256   -0.955484
     67          7           0       -6.549207    0.066942   -1.123808
     68          6           0       -5.164347    0.079361   -1.041790
     69          6           0       -5.829727    3.621794   -0.550260
     70          7           0       -5.815603    2.162176   -0.767843
 ---------------------------------------------------------------------

 SCF Done:  E(RwB97XD) =  -2048.73014776     A.U. after   15 cycles

 The electronic state is 1-A.
 Alpha  occ. eigenvalues --  -19.25001 -19.21078 -19.20523 -14.52960 -14.51282
 Alpha  occ. eigenvalues --  -14.49142 -14.49050 -14.48482 -14.46972 -14.46616
 Alpha  occ. eigenvalues --  -14.46593 -14.45823 -14.45227 -14.44894 -14.43269
 Alpha  occ. eigenvalues --  -14.41919 -14.41448 -14.41279 -14.41150 -14.40822
 Alpha  occ. eigenvalues --  -10.44512 -10.41099 -10.40826 -10.39210 -10.38378
 Alpha  occ. eigenvalues --  -10.38163 -10.37745 -10.36931 -10.36408 -10.36033
 Alpha  occ. eigenvalues --  -10.34458 -10.34212 -10.33880 -10.33825 -10.33414
 Alpha  occ. eigenvalues --  -10.33350 -10.33344 -10.33118 -10.31268 -10.30413
 Alpha  occ. eigenvalues --  -10.30271 -10.28701 -10.28249  -1.18585  -1.15783
 Alpha  occ. eigenvalues --   -1.13206  -1.12121  -1.11160  -1.10812  -1.10205
 Alpha  occ. eigenvalues --   -1.08558  -1.08253  -1.05662  -1.05541  -1.01556
 Alpha  occ. eigenvalues --   -1.01449  -1.01041  -0.99674  -0.98576  -0.97736
 Alpha  occ. eigenvalues --   -0.96896  -0.96783  -0.93252  -0.90120  -0.88354
 Alpha  occ. eigenvalues --   -0.86368  -0.84372  -0.83900  -0.82795  -0.82427
 Alpha  occ. eigenvalues --   -0.82168  -0.78003  -0.77657  -0.75549  -0.74743
 Alpha  occ. eigenvalues --   -0.73622  -0.73174  -0.72477  -0.71393  -0.71107
 Alpha  occ. eigenvalues --   -0.67468  -0.67401  -0.66585  -0.65701  -0.64869
 Alpha  occ. eigenvalues --   -0.64353  -0.63325  -0.63065  -0.62549  -0.61831
 Alpha  occ. eigenvalues --   -0.61286  -0.60960  -0.60781  -0.60064  -0.58928
 Alpha  occ. eigenvalues --   -0.58718  -0.58305  -0.57418  -0.56836  -0.56122
 Alpha  occ. eigenvalues --   -0.55812  -0.55788  -0.55531  -0.55054  -0.54223
 Alpha  occ. eigenvalues --   -0.54055  -0.53991  -0.53396  -0.53054  -0.52870
 Alpha  occ. eigenvalues --   -0.51778  -0.51662  -0.51059  -0.50611  -0.50552
 Alpha  occ. eigenvalues --   -0.50183  -0.50075  -0.49771  -0.49151  -0.49023
 Alpha  occ. eigenvalues --   -0.48683  -0.48083  -0.47917  -0.47294  -0.47009
 Alpha  occ. eigenvalues --   -0.46950  -0.45577  -0.45249  -0.45031  -0.42654
 Alpha  occ. eigenvalues --   -0.41573  -0.41177  -0.38876  -0.38375  -0.38217
 Alpha  occ. eigenvalues --   -0.38059  -0.37232  -0.36712  -0.35466  -0.35181
 Alpha  occ. eigenvalues --   -0.35017  -0.34295  -0.33740  -0.33583  -0.32981
 Alpha  occ. eigenvalues --   -0.32546  -0.32279  -0.31845  -0.30872  -0.30754
 Alpha  occ. eigenvalues --   -0.30674  -0.30561  -0.26180  -0.25588
 Alpha virt. eigenvalues --    0.03002   0.04325   0.05986   0.07452   0.08823
 Alpha virt. eigenvalues --    0.09085   0.09680   0.10007   0.10829   0.12112
 Alpha virt. eigenvalues --    0.13413   0.13949   0.14416   0.14428   0.14649

 Mulliken charges:
               1
     1  N   -0.305417
     2  C    0.186450
     3  C    0.069848
     4  N   -0.260728
     5  C    0.150360
     6  H    0.029318
     7  N   -0.284932
     8  C    0.127668
     9  H    0.008802
    10  N   -0.269348
    11  C    0.237177
    12  C    0.074947
    13  N   -0.065705
    14  H    0.112580
    15  H    0.082020
    16  H    0.022643
    17  H    0.025548
    18  H    0.029460
    19  N   -0.305031
    20  C    0.272619
    21  C    0.184130
    22  N   -0.101527
    23  H    0.123905
    24  H    0.117789
    25  N   -0.287169
    26  C    0.170642
    27  N   -0.108456
    28  H    0.119370
    29  C    0.165927
    30  O   -0.318358
    31  C   -0.009936
    32  N   -0.225704
    33  C    0.101105
    34  H    0.022753
    35  H    0.022192
    36  H    0.031626
    37  H    0.025160
    38  H    0.059351
    39  H    0.047734
    40  H    0.079981
    41  H    0.023816
    42  C   -0.115026
    43  O   -0.266079
    44  C    0.174638
    45  H    0.134071
    46  N   -0.126245
    47  O   -0.347145
    48  C    0.340740
    49  H    0.043359
    50  C    0.167824
    51  C    0.051909
    52  N   -0.275865
    53  H    0.035168
    54  H    0.040704
    55  H    0.031395
    56  H    0.120001
    57  H    0.121018
    58  N   -0.062924
    59  C    0.087370
    60  C    0.202054
    61  N   -0.253584
    62  H    0.028390
    63  C    0.155047
    64  N   -0.300243
    65  H    0.041330
    66  C    0.138486
    67  N   -0.253839
    68  C    0.029053
    69  C    0.180484
    70  N   -0.304702
 Sum of Mulliken charges =  -0.00000

 Dipole moment (field-independent basis, Debye):
    X=             -7.3291    Y=              7.2932    Z=             -2.0520  Tot=             10.5412
 Quadrupole moment (field-independent basis, Debye-Ang):
   XX=           -157.5538   YY=           -226.6851   ZZ=           -253.2718
   XY=              4.6919   XZ=            -16.8711   YZ=             14.6042

 Normal termination of Gaussian 16 at Mon Jan 22 08:50:48 2018.
