 Gaussian 16, Revision A.03,
 Gaussian 16:  EM64L-G16RevA.03 25-Dec-2016

 ---------------------------------------
 #p wb97xd/cc-pvdz sp scf=(maxcycles=20)
 ---------------------------------------

 ------------------
 Base pair stacking
 ------------------
 Symbolic Z-matrix:
 Charge =  0 Multiplicity = 1

                         Standard orientation:
 ---------------------------------------------------------------------
 Center     Atomic      Atomic             Coordinates (Angstroms)
 Number     Number       Type             X           Y           Z
 ---------------------------------------------------------------------
      1          7           0        4.890860   -1.553259   -1.611743
      2          6           0        6.264504   -1.030279   -1.744403
      3          6           0        2.700657   -1.714898   -1.492586
      4          7           0        3.193824   -3.002320   -1.337523
      5          6           0        4.493604   -2.853412   -1.415507
      6          1           0        5.216597   -3.665743   -1.335894
      7          7           0        1.247871    0.133457   -1.682258
      8          6           0        2.344608    0.882985   -1.833794
      9          1           0        2.164385    1.948174   -1.972185
     10          7           0        3.624519    0.515981   -1.840022
     11          6           0        3.734825   -0.810954   -1.662573
     12          6           0        1.392348   -1.198100   -1.505689
     13          7           0        0.298760   -1.947973   -1.354248
     14          1           0        0.358362   -2.937853   -1.220873
     15          1           0       -0.616892   -1.546077   -1.368944
     16          1           0        6.711403   -1.458862   -2.529758
     17          1           0        6.233503   -0.040315   -1.879059
     18          1           0        6.783311   -1.236021   -0.914641
     19          7           0        4.920021    1.893286    0.984072
     20          6           0        3.547826    1.832471    1.022168
     21          6           0        5.712101    3.088659    0.631389
     22          7           0        0.457050    3.367448    0.631450
     23          1           0       -0.506920    3.117218    0.717357
     24          1           0        0.658979    4.308878    0.360080
     25          7           0        2.699402    2.846362    0.746040
     26          6           0        1.435676    2.481086    0.869269
     27          7           0        1.031626    1.219894    1.234834
     28          1           0        0.043594    1.030164    1.303854
     29          6           0        1.887073    0.161268    1.523603
     30          8           0        1.419532   -0.938463    1.844113
     31          6           0        3.248044    0.538434    1.395514
     32          7           0        4.408666   -0.198335    1.587940
     33          6           0        5.372642    0.644323    1.333191
     34          1           0        6.435571    0.406039    1.385015
     35          1           0        6.276375    2.892213   -0.169745
     36          1           0        5.094289    3.846231    0.424827
     37          1           0        6.300124    3.339490    1.399595
     38          1           0       -4.997331    0.552453    0.841666
     39          1           0       -4.968482    0.758510    2.591339
     40          1           0       -3.752330    1.552711    1.590557
     41          1           0       -3.630833   -3.848300    2.224629
     42          6           0       -3.204133   -2.852960    2.100374
     43          8           0       -0.956361   -3.609221    2.152378
     44          6           0       -1.781792   -2.701068    2.059034
     45          1           0       -0.348201   -1.253500    1.864920
     46          7           0       -1.347138   -1.400828    1.898739
     47          8           0       -1.647424    0.835304    1.640341
     48          6           0       -2.125514   -0.276818    1.779197
     49          1           0       -5.076641   -1.837262    2.011618
     50          6           0       -3.989486   -1.775534    1.986423
     51          6           0       -4.358690    0.666494    1.704921
     52          7           0       -3.486687   -0.504860    1.828491
     53          1           0       -5.724173    3.864691   -2.070499
     54          1           0       -4.396680    3.852582   -1.121971
     55          1           0       -5.881804    3.788035   -0.447941
     56          1           0       -3.200550   -3.074268   -1.330410
     57          1           0       -4.859936   -2.705455   -1.473653
     58          7           0       -3.919636   -2.380222   -1.367483
     59          6           0       -3.638213   -1.078603   -1.279354
     60          6           0       -4.165670    1.240931   -1.221838
     61          7           0       -2.893690    1.648724   -1.079713
     62          1           0       -1.013367    0.846116   -0.935393
     63          6           0       -2.069127    0.603706   -1.048853
     64          7           0       -2.349036   -0.700697   -1.136970
     65          1           0       -7.373109    1.516791   -1.519170
     66          6           0       -6.346395    1.159030   -1.436608
     67          7           0       -5.992629   -0.102676   -1.461421
     68          6           0       -4.612409   -0.064853   -1.326155
     69          6           0       -5.326234    3.500816   -1.228343
     70          7           0       -5.291312    2.026885   -1.293935
 ---------------------------------------------------------------------

 SCF Done:  E(RwB97XD) =  -2048.74608256     A.U. after   15 cycles

 The electronic state is 1-A.
 Alpha  occ. eigenvalues --  -19.25291 -19.21523 -19.20442 -14.52832 -14.51913
 Alpha  occ. eigenvalues --  -14.48774 -14.48635 -14.48459 -14.47303 -14.46591
 Alpha  occ. eigenvalues --  -14.46512 -14.45790 -14.44731 -14.44616 -14.42790
 Alpha  occ. eigenvalues --  -14.41912 -14.41092 -14.41089 -14.41042 -14.40573
 Alpha  occ. eigenvalues --  -10.44927 -10.41079 -10.40422 -10.39631 -10.38310
 Alpha  occ. eigenvalues --  -10.38073 -10.37555 -10.37348 -10.36307 -10.35705
 Alpha  occ. eigenvalues --  -10.34290 -10.34232 -10.34182 -10.33836 -10.33525
 Alpha  occ. eigenvalues --  -10.33274 -10.33135 -10.32943 -10.30923 -10.30832
 Alpha  occ. eigenvalues --  -10.30659 -10.28494 -10.28044  -1.18981  -1.15624
 Alpha  occ. eigenvalues --   -1.13055  -1.12540  -1.11090  -1.10536  -1.09749
 Alpha  occ. eigenvalues --   -1.08813  -1.08415  -1.05274  -1.05204  -1.01947
 Alpha  occ. eigenvalues --   -1.01338  -1.00681  -0.99574  -0.98438  -0.97315
 Alpha  occ. eigenvalues --   -0.96775  -0.96588  -0.92952  -0.90578  -0.88047
 Alpha  occ. eigenvalues --   -0.86240  -0.84099  -0.83830  -0.83045  -0.82476
 Alpha  occ. eigenvalues --   -0.82243  -0.78399  -0.77439  -0.75250  -0.74560
 Alpha  occ. eigenvalues --   -0.73487  -0.72976  -0.72850  -0.71126  -0.70785
 Alpha  occ. eigenvalues --   -0.67284  -0.67190  -0.66381  -0.66075  -0.64634
 Alpha  occ. eigenvalues --   -0.64237  -0.63559  -0.62838  -0.62520  -0.61694
 Alpha  occ. eigenvalues --   -0.61230  -0.60822  -0.60630  -0.59788  -0.59136
 Alpha  occ. eigenvalues --   -0.58832  -0.58220  -0.57012  -0.56626  -0.55912
 Alpha  occ. eigenvalues --   -0.55855  -0.55651  -0.55529  -0.54618  -0.54074
 Alpha  occ. eigenvalues --   -0.53894  -0.53711  -0.53363  -0.53149  -0.52872
 Alpha  occ. eigenvalues --   -0.52434  -0.51952  -0.51725  -0.50554  -0.50404
 Alpha  occ. eigenvalues --   -0.50102  -0.50007  -0.49424  -0.49082  -0.48957
 Alpha  occ. eigenvalues --   -0.48707  -0.48238  -0.48092  -0.47759  -0.47089
 Alpha  occ. eigenvalues --   -0.46946  -0.45759  -0.45243  -0.44611  -0.42850
 Alpha  occ. eigenvalues --   -0.41212  -0.41108  -0.39025  -0.38112  -0.38020
 Alpha  occ. eigenvalues --   -0.37279  -0.37229  -0.37118  -0.35634  -0.35115
 Alpha  occ. eigenvalues --   -0.34699  -0.34153  -0.33511  -0.33295  -0.32831
 Alpha  occ. eigenvalues --   -0.32534  -0.32381  -0.31794  -0.31680  -0.30739
 Alpha  occ. eigenvalues --   -0.30541  -0.30066  -0.25935  -0.25414
 Alpha virt. eigenvalues --    0.03431   0.03649   0.06348   0.07882   0.09004
 Alpha virt. eigenvalues --    0.09406   0.09798   0.10122   0.10866   0.12270
 Alpha virt. eigenvalues --    0.12910   0.14060   0.14378   0.14474   0.14611

 Mulliken charges:
               1
     1  N   -0.308447
     2  C    0.179437
     3  C    0.062993
     4  N   -0.260316
     5  C    0.145429
     6  H    0.027274
     7  N   -0.286204
     8  C    0.125118
     9  H    0.014902
    10  N   -0.277199
    11  C    0.247416
    12  C    0.082090
    13  N   -0.058306
    14  H    0.112074
    15  H    0.082548
    16  H    0.026150
    17  H    0.028099
    18  H    0.025986
    19  N   -0.300735
    20  C    0.262884
    21  C    0.183588
    22  N   -0.117919
    23  H    0.120659
    24  H    0.116884
    25  N   -0.300936
    26  C    0.225099
    27  N   -0.122205
    28  H    0.113490
    29  C    0.175589
    30  O   -0.322005
    31  C   -0.015967
    32  N   -0.223326
    33  C    0.109751
    34  H    0.019596
    35  H    0.024910
    36  H    0.029876
    37  H    0.023077
    38  H    0.062278
    39  H    0.054593
    40  H    0.075751
    41  H    0.024769
    42  C   -0.107457
    43  O   -0.266141
    44  C    0.173075
    45  H    0.130658
    46  N   -0.122407
    47  O   -0.342186
    48  C    0.342069
    49  H    0.044656
    50  C    0.161897
    51  C    0.050330
    52  N   -0.277234
    53  H    0.035544
    54  H    0.039268
    55  H    0.029085
    56  H    0.121411
    57  H    0.118060
    58  N   -0.058317
    59  C    0.098253
    60  C    0.206507
    61  N   -0.263747
    62  H    0.015461
    63  C    0.184106
    64  N   -0.311337
    65  H    0.037743
    66  C    0.125060
    67  N   -0.249362
    68  C    0.010190
    69  C    0.182276
    70  N   -0.296208
 Sum of Mulliken charges =  -0.00000

 Dipole moment (field-independent basis, Debye):
    X=             -7.1931    Y=              6.9796    Z=             -2.2625  Tot=             10.2750
 Quadrupole moment (field-independent basis, Debye-Ang):
   XX=           -154.6169   YY=           -224.8020   ZZ=           -255.4865
   XY=             -0.1035   XZ=            -11.1250   YZ=             12.3120

 Normal termination of Gaussian 16 at Mon Jan 22 02:58:35 2018.
