 Gaussian 16, Revision A.03,
 Gaussian 16:  EM64L-G16RevA.03 25-Dec-2016

 ---------------------------------------
 #p wb97xd/cc-pvdz sp scf=(maxcycles=20)
 ---------------------------------------

 ------------------
 Base pair stacking
 ------------------
 Symbolic Z-matrix:
 Charge =  0 Multiplicity = 1

                         Standard orientation:
 ---------------------------------------------------------------------
 Center     Atomic      Atomic             Coordinates (Angstroms)
 Number     Number       Type             X           Y           Z
 ---------------------------------------------------------------------
      1          7           0       -6.610546   -1.305582    0.491793
      2          6           0       -7.954706   -0.714522    0.343817
      3          6           0       -4.447760   -1.572533    0.789132
      4          7           0       -4.973359   -2.842652    0.601241
      5          6           0       -6.255324   -2.630977    0.429617
      6          1           0       -6.994508   -3.412727    0.252385
      7          7           0       -2.956138    0.215403    1.165014
      8          6           0       -4.019649    1.020897    1.077200
      9          1           0       -3.810240    2.082632    1.200196
     10          7           0       -5.296998    0.713208    0.861286
     11          6           0       -5.444857   -0.614866    0.724338
     12          6           0       -3.137947   -1.115687    1.022783
     13          7           0       -2.077564   -1.921374    1.110117
     14          1           0       -2.165417   -2.913196    1.011193
     15          1           0       -1.159685   -1.561241    1.277318
     16          1           0       -8.560776   -1.080298    1.050266
     17          1           0       -7.895153    0.278743    0.438680
     18          1           0       -8.322817   -0.940045   -0.558198
     19          7           0       -3.099640    2.100978   -1.558705
     20          6           0       -1.747556    1.974477   -1.349147
     21          6           0       -3.891542    3.322283   -1.309677
     22          7           0        1.281483    3.344243   -0.343965
     23          1           0        2.233380    3.050008   -0.262922
     24          1           0        1.073336    4.285710   -0.077446
     25          7           0       -0.921908    2.936899   -0.884268
     26          6           0        0.326345    2.514328   -0.789903
     27          7           0        0.736715    1.246634   -1.124655
     28          1           0        1.711713    1.011126   -1.020306
     29          6           0       -0.095415    0.240293   -1.604972
     30          8           0        0.375907   -0.870670   -1.877650
     31          6           0       -1.439549    0.679320   -1.711773
     32          7           0       -2.575419    0.006257   -2.140365
     33          6           0       -3.533141    0.886785   -2.032496
     34          1           0       -4.577688    0.702334   -2.285835
     35          1           0       -4.600919    3.129296   -0.632662
     36          1           0       -3.290510    4.042164   -0.965016
     37          1           0       -4.317603    3.624761   -2.161611
     38          1           0        6.557619    0.274220    0.331306
     39          1           0        6.858771    0.534608   -1.385128
     40          1           0        5.514552    1.356352   -0.591925
     41          1           0        5.282438   -4.010497   -1.446811
     42          6           0        4.882788   -2.999761   -1.363598
     43          8           0        2.652628   -3.643529   -1.852527
     44          6           0        3.484714   -2.779988   -1.575541
     45          1           0        2.102524   -1.270794   -1.589101
     46          7           0        3.083573   -1.465579   -1.446528
     47          8           0        3.425952    0.744333   -1.051209
     48          6           0        3.873802   -0.385044   -1.143962
     49          1           0        6.748658   -2.079796   -0.896664
     50          6           0        5.678924   -1.965904   -1.067073
     51          6           0        6.093467    0.445504   -0.628530
     52          7           0        5.210017   -0.677613   -0.953913
     53          1           0        4.018626    3.641641    2.680187
     54          1           0        2.889103    3.639709    1.502791
     55          1           0        4.466963    3.472302    1.120140
     56          1           0        1.300174   -3.205022    1.786427
     57          1           0        2.922645   -2.904854    2.219554
     58          7           0        2.036898   -2.543350    1.926331
     59          6           0        1.847639   -1.236768    1.730843
     60          6           0        2.502024    1.050148    1.671525
     61          7           0        1.301823    1.507177    1.277751
     62          1           0       -0.560890    0.784244    0.821355
     63          6           0        0.441341    0.500499    1.139601
     64          7           0        0.628975   -0.808783    1.334915
     65          1           0        5.610586    1.195472    2.547808
     66          6           0        4.598569    0.880819    2.291409
     67          7           0        4.178174   -0.360453    2.304899
     68          6           0        2.850355   -0.267230    1.913819
     69          6           0        3.762822    3.252221    1.795364
     70          7           0        3.636367    1.786918    1.917402
 ---------------------------------------------------------------------

 SCF Done:  E(RwB97XD) =  -2048.70398192     A.U. after   15 cycles

 The electronic state is 1-A.
 Alpha  occ. eigenvalues --  -19.25933 -19.21909 -19.20544 -14.52420 -14.51866
 Alpha  occ. eigenvalues --  -14.49384 -14.48485 -14.47882 -14.47339 -14.46427
 Alpha  occ. eigenvalues --  -14.45816 -14.44887 -14.43468 -14.42853 -14.42386
 Alpha  occ. eigenvalues --  -14.42043 -14.42011 -14.41694 -14.40734 -14.40644
 Alpha  occ. eigenvalues --  -10.45527 -10.40759 -10.40041 -10.39112 -10.38034
 Alpha  occ. eigenvalues --  -10.37707 -10.37463 -10.36435 -10.36064 -10.35473
 Alpha  occ. eigenvalues --  -10.35124 -10.34659 -10.34236 -10.34172 -10.34022
 Alpha  occ. eigenvalues --  -10.33792 -10.33080 -10.31692 -10.31518 -10.31004
 Alpha  occ. eigenvalues --  -10.30385 -10.29155 -10.27962  -1.19531  -1.14619
 Alpha  occ. eigenvalues --   -1.13227  -1.12955  -1.11969  -1.10436  -1.09312
 Alpha  occ. eigenvalues --   -1.08731  -1.08205  -1.05634  -1.04014  -1.02489
 Alpha  occ. eigenvalues --   -1.01114  -1.00534  -0.99490  -0.98483  -0.97568
 Alpha  occ. eigenvalues --   -0.96426  -0.95972  -0.93301  -0.90999  -0.87187
 Alpha  occ. eigenvalues --   -0.85766  -0.84571  -0.83892  -0.83758  -0.82915
 Alpha  occ. eigenvalues --   -0.82208  -0.78834  -0.76469  -0.74590  -0.74260
 Alpha  occ. eigenvalues --   -0.73544  -0.73452  -0.73352  -0.71751  -0.69931
 Alpha  occ. eigenvalues --   -0.67253  -0.66949  -0.66550  -0.66270  -0.64420
 Alpha  occ. eigenvalues --   -0.63858  -0.63627  -0.63334  -0.62796  -0.61576
 Alpha  occ. eigenvalues --   -0.60887  -0.60579  -0.60049  -0.59497  -0.59163
 Alpha  occ. eigenvalues --   -0.59033  -0.58122  -0.57428  -0.57017  -0.56690
 Alpha  occ. eigenvalues --   -0.56007  -0.55868  -0.55371  -0.54908  -0.54322
 Alpha  occ. eigenvalues --   -0.54084  -0.53493  -0.53073  -0.52725  -0.52577
 Alpha  occ. eigenvalues --   -0.52531  -0.52316  -0.52027  -0.51380  -0.50746
 Alpha  occ. eigenvalues --   -0.49972  -0.49719  -0.49405  -0.49051  -0.48619
 Alpha  occ. eigenvalues --   -0.48574  -0.48207  -0.48038  -0.47714  -0.47506
 Alpha  occ. eigenvalues --   -0.47304  -0.45881  -0.45394  -0.43886  -0.43354
 Alpha  occ. eigenvalues --   -0.41845  -0.40537  -0.39537  -0.37895  -0.37575
 Alpha  occ. eigenvalues --   -0.37198  -0.37165  -0.36369  -0.35760  -0.34350
 Alpha  occ. eigenvalues --   -0.34273  -0.34101  -0.33813  -0.33099  -0.32581
 Alpha  occ. eigenvalues --   -0.32346  -0.31881  -0.31749  -0.31582  -0.31547
 Alpha  occ. eigenvalues --   -0.31001  -0.28473  -0.26403  -0.25166
 Alpha virt. eigenvalues --    0.03167   0.04626   0.07332   0.07578   0.08798
 Alpha virt. eigenvalues --    0.09239   0.09783   0.10279   0.11082   0.11502
 Alpha virt. eigenvalues --    0.13050   0.13647   0.14275   0.14558   0.14690

 Mulliken charges:
               1
     1  N   -0.312423
     2  C    0.180347
     3  C    0.049825
     4  N   -0.259262
     5  C    0.134319
     6  H    0.028355
     7  N   -0.277585
     8  C    0.128772
     9  H    0.012844
    10  N   -0.290329
    11  C    0.234201
    12  C    0.111260
    13  N   -0.051622
    14  H    0.107786
    15  H    0.087991
    16  H    0.027171
    17  H    0.032962
    18  H    0.026932
    19  N   -0.296563
    20  C    0.238211
    21  C    0.174978
    22  N   -0.067698
    23  H    0.101745
    24  H    0.113167
    25  N   -0.288508
    26  C    0.196212
    27  N   -0.120262
    28  H    0.120566
    29  C    0.133795
    30  O   -0.319643
    31  C    0.028432
    32  N   -0.220488
    33  C    0.116355
    34  H    0.024583
    35  H    0.029801
    36  H    0.026334
    37  H    0.022794
    38  H    0.057260
    39  H    0.063002
    40  H    0.068629
    41  H    0.030598
    42  C   -0.114476
    43  O   -0.265772
    44  C    0.178396
    45  H    0.134481
    46  N   -0.133096
    47  O   -0.347223
    48  C    0.357111
    49  H    0.047174
    50  C    0.178175
    51  C    0.041687
    52  N   -0.288580
    53  H    0.037720
    54  H    0.018901
    55  H    0.027590
    56  H    0.121708
    57  H    0.117587
    58  N   -0.066718
    59  C    0.114871
    60  C    0.244878
    61  N   -0.293795
    62  H    0.041497
    63  C    0.184231
    64  N   -0.304498
    65  H    0.031993
    66  C    0.113371
    67  N   -0.255360
    68  C    0.002146
    69  C    0.175184
    70  N   -0.304026
 Sum of Mulliken charges =  -0.00000

 Dipole moment (field-independent basis, Debye):
    X=              6.5123    Y=              5.9524    Z=              3.6177  Tot=              9.5357
 Quadrupole moment (field-independent basis, Debye-Ang):
   XX=           -144.2571   YY=           -226.4589   ZZ=           -256.4039
   XY=              9.5601   XZ=              9.7610   YZ=            -11.1623

 Normal termination of Gaussian 16 at Mon Jan 22 07:05:08 2018.
