 Gaussian 16, Revision A.03,
 Gaussian 16:  EM64L-G16RevA.03 25-Dec-2016

 ---------------------------------------
 #p wb97xd/cc-pvdz sp scf=(maxcycles=20)
 ---------------------------------------

 ------------------
 Base pair stacking
 ------------------
 Symbolic Z-matrix:
 Charge =  0 Multiplicity = 1

                         Standard orientation:
 ---------------------------------------------------------------------
 Center     Atomic      Atomic             Coordinates (Angstroms)
 Number     Number       Type             X           Y           Z
 ---------------------------------------------------------------------
      1          7           0        4.261115   -1.666115   -1.922835
      2          6           0        5.620129   -1.182821   -2.235106
      3          6           0        2.089555   -1.779311   -1.592948
      4          7           0        2.587749   -3.048439   -1.336348
      5          6           0        3.876093   -2.929444   -1.545368
      6          1           0        4.598975   -3.738668   -1.437898
      7          7           0        0.635513    0.058041   -1.862892
      8          6           0        1.718243    0.768555   -2.195190
      9          1           0        1.532048    1.813948   -2.437597
     10          7           0        2.990480    0.383425   -2.272638
     11          6           0        3.109157   -0.916493   -1.955566
     12          6           0        0.788103   -1.247104   -1.549190
     13          7           0       -0.291514   -1.958016   -1.217219
     14          1           0       -0.225481   -2.927280   -0.977695
     15          1           0       -1.202639   -1.546229   -1.196641
     16          1           0        5.992603   -1.704303   -3.002890
     17          1           0        5.582479   -0.214059   -2.478438
     18          1           0        6.210061   -1.301452   -1.436413
     19          7           0        5.503625    1.850508    0.693155
     20          6           0        4.137704    1.813554    0.837813
     21          6           0        6.292581    3.047739    0.339757
     22          7           0        1.061719    3.424787    0.774731
     23          1           0        0.102062    3.188526    0.924627
     24          1           0        1.263118    4.375276    0.536538
     25          7           0        3.293580    2.856361    0.682665
     26          6           0        2.035491    2.508894    0.887825
     27          7           0        1.632763    1.237974    1.219631
     28          1           0        0.649181    1.063457    1.357733
     29          6           0        2.483858    0.149709    1.384506
     30          8           0        2.017995   -0.956433    1.684795
     31          6           0        3.838751    0.507471    1.167330
     32          7           0        4.993747   -0.260086    1.228325
     33          6           0        5.953657    0.576588    0.940624
     34          1           0        7.011613    0.315978    0.894955
     35          1           0        6.787173    2.883286   -0.512962
     36          1           0        5.677916    3.826618    0.222302
     37          1           0        6.945016    3.246589    1.070227
     38          1           0       -4.422117    0.705578    1.276748
     39          1           0       -4.250488    0.818431    3.026737
     40          1           0       -3.099272    1.641357    1.973707
     41          1           0       -3.051915   -3.786925    2.319142
     42          6           0       -2.613658   -2.794596    2.212162
     43          8           0       -0.386730   -3.594633    2.045351
     44          6           0       -1.195914   -2.667479    2.064921
     45          1           0        0.250677   -1.238865    1.830907
     46          7           0       -0.745584   -1.368981    1.937007
     47          8           0       -1.014011    0.882911    1.818103
     48          6           0       -1.505002   -0.225817    1.937769
     49          1           0       -4.463556   -1.740639    2.325621
     50          6           0       -3.380658   -1.698109    2.216671
     51          6           0       -3.714860    0.761885    2.090799
     52          7           0       -2.862900   -0.430532    2.084143
     53          1           0       -6.323271    3.829020   -2.056166
     54          1           0       -4.916247    3.903653   -1.233490
     55          1           0       -6.335359    3.938708   -0.427908
     56          1           0       -3.780582   -3.020056   -0.756020
     57          1           0       -5.444137   -2.644143   -0.793159
     58          7           0       -4.496377   -2.323600   -0.808257
     59          6           0       -4.201261   -1.024871   -0.894264
     60          6           0       -4.709053    1.294184   -1.055079
     61          7           0       -3.427298    1.695667   -1.073334
     62          1           0       -1.545919    0.885494   -1.005221
     63          6           0       -2.608870    0.648196   -0.996571
     64          7           0       -2.902502   -0.653308   -0.910369
     65          1           0       -7.928717    1.584313   -1.097291
     66          6           0       -6.900657    1.222315   -1.065550
     67          7           0       -6.557270   -0.039434   -0.977582
     68          6           0       -5.170304   -0.007949   -0.970008
     69          6           0       -5.853459    3.556553   -1.216509
     70          7           0       -5.832418    2.084283   -1.116529
 ---------------------------------------------------------------------

 SCF Done:  E(RwB97XD) =  -2048.74974702     A.U. after   15 cycles

 The electronic state is 1-A.
 Alpha  occ. eigenvalues --  -19.25258 -19.21379 -19.20656 -14.52715 -14.51665
 Alpha  occ. eigenvalues --  -14.49238 -14.48814 -14.48199 -14.47172 -14.46862
 Alpha  occ. eigenvalues --  -14.46723 -14.45617 -14.45009 -14.44847 -14.42887
 Alpha  occ. eigenvalues --  -14.42112 -14.41548 -14.41079 -14.40795 -14.40638
 Alpha  occ. eigenvalues --  -10.44795 -10.41319 -10.40559 -10.39499 -10.38328
 Alpha  occ. eigenvalues --  -10.38201 -10.37614 -10.37268 -10.36333 -10.35717
 Alpha  occ. eigenvalues --  -10.34649 -10.34142 -10.34017 -10.33917 -10.33570
 Alpha  occ. eigenvalues --  -10.33206 -10.33168 -10.33157 -10.31319 -10.30529
 Alpha  occ. eigenvalues --  -10.30272 -10.28418 -10.28416  -1.18780  -1.15520
 Alpha  occ. eigenvalues --   -1.13323  -1.12403  -1.10927  -1.10877  -1.09931
 Alpha  occ. eigenvalues --   -1.08690  -1.08542  -1.05388  -1.05245  -1.01799
 Alpha  occ. eigenvalues --   -1.01244  -1.00701  -0.99808  -0.98729  -0.97458
 Alpha  occ. eigenvalues --   -0.96969  -0.96531  -0.92956  -0.90443  -0.88050
 Alpha  occ. eigenvalues --   -0.86147  -0.84467  -0.83625  -0.82945  -0.82757
 Alpha  occ. eigenvalues --   -0.81924  -0.78261  -0.77459  -0.75304  -0.74875
 Alpha  occ. eigenvalues --   -0.73739  -0.72876  -0.72709  -0.71066  -0.70824
 Alpha  occ. eigenvalues --   -0.67541  -0.67248  -0.66268  -0.65951  -0.64627
 Alpha  occ. eigenvalues --   -0.64490  -0.63466  -0.62747  -0.62703  -0.61944
 Alpha  occ. eigenvalues --   -0.60952  -0.60680  -0.60414  -0.59759  -0.59043
 Alpha  occ. eigenvalues --   -0.58911  -0.58439  -0.57125  -0.56533  -0.55784
 Alpha  occ. eigenvalues --   -0.55698  -0.55661  -0.55478  -0.54850  -0.54195
 Alpha  occ. eigenvalues --   -0.53943  -0.53717  -0.53348  -0.53160  -0.53075
 Alpha  occ. eigenvalues --   -0.52156  -0.51655  -0.51431  -0.50518  -0.50354
 Alpha  occ. eigenvalues --   -0.50271  -0.49981  -0.49645  -0.49189  -0.48872
 Alpha  occ. eigenvalues --   -0.48818  -0.48165  -0.48102  -0.47679  -0.47150
 Alpha  occ. eigenvalues --   -0.46809  -0.45828  -0.45531  -0.44959  -0.42997
 Alpha  occ. eigenvalues --   -0.41336  -0.41034  -0.39003  -0.38224  -0.37992
 Alpha  occ. eigenvalues --   -0.37586  -0.37402  -0.36962  -0.35437  -0.35196
 Alpha  occ. eigenvalues --   -0.34858  -0.34132  -0.33480  -0.33421  -0.33091
 Alpha  occ. eigenvalues --   -0.32669  -0.32502  -0.32002  -0.31243  -0.30677
 Alpha  occ. eigenvalues --   -0.30575  -0.30465  -0.25930  -0.25718
 Alpha virt. eigenvalues --    0.03126   0.04088   0.06358   0.07916   0.08770
 Alpha virt. eigenvalues --    0.09036   0.09661   0.10241   0.10915   0.11920
 Alpha virt. eigenvalues --    0.13493   0.13970   0.14199   0.14707   0.14804

 Mulliken charges:
               1
     1  N   -0.304936
     2  C    0.182595
     3  C    0.061441
     4  N   -0.256421
     5  C    0.152091
     6  H    0.028777
     7  N   -0.293041
     8  C    0.123977
     9  H    0.010622
    10  N   -0.277000
    11  C    0.241103
    12  C    0.080273
    13  N   -0.066625
    14  H    0.116158
    15  H    0.082972
    16  H    0.022365
    17  H    0.028077
    18  H    0.026977
    19  N   -0.309388
    20  C    0.266105
    21  C    0.182698
    22  N   -0.121191
    23  H    0.121388
    24  H    0.118377
    25  N   -0.308833
    26  C    0.237757
    27  N   -0.135946
    28  H    0.119715
    29  C    0.185587
    30  O   -0.318902
    31  C   -0.016600
    32  N   -0.229436
    33  C    0.113549
    34  H    0.023845
    35  H    0.025056
    36  H    0.031593
    37  H    0.025351
    38  H    0.064873
    39  H    0.055998
    40  H    0.075742
    41  H    0.022377
    42  C   -0.118575
    43  O   -0.265805
    44  C    0.169861
    45  H    0.134003
    46  N   -0.124305
    47  O   -0.350621
    48  C    0.347577
    49  H    0.042818
    50  C    0.171879
    51  C    0.042014
    52  N   -0.276764
    53  H    0.034609
    54  H    0.041385
    55  H    0.030257
    56  H    0.120529
    57  H    0.119259
    58  N   -0.060851
    59  C    0.083229
    60  C    0.216027
    61  N   -0.257321
    62  H    0.030243
    63  C    0.164590
    64  N   -0.306419
    65  H    0.040493
    66  C    0.139623
    67  N   -0.256811
    68  C    0.026354
    69  C    0.180203
    70  N   -0.306602
 Sum of Mulliken charges =  -0.00000

 Dipole moment (field-independent basis, Debye):
    X=             -7.2541    Y=              7.4380    Z=             -1.1099  Tot=             10.4488
 Quadrupole moment (field-independent basis, Debye-Ang):
   XX=           -157.7839   YY=           -224.2072   ZZ=           -252.1992
   XY=              3.1073   XZ=            -16.6153   YZ=             10.5620

 Normal termination of Gaussian 16 at Mon Jan 22 00:36:44 2018.
