 Gaussian 16, Revision A.03,
 Gaussian 16:  EM64L-G16RevA.03 25-Dec-2016

 ---------------------------------------
 #p wb97xd/cc-pvdz sp scf=(maxcycles=20)
 ---------------------------------------

 ------------------
 Base pair stacking
 ------------------
 Symbolic Z-matrix:
 Charge =  0 Multiplicity = 1

                         Standard orientation:
 ---------------------------------------------------------------------
 Center     Atomic      Atomic             Coordinates (Angstroms)
 Number     Number       Type             X           Y           Z
 ---------------------------------------------------------------------
      1          7           0       -4.555789   -2.208941    1.520292
      2          6           0       -5.895166   -1.901576    2.058458
      3          6           0       -2.398529   -2.175399    1.093212
      4          7           0       -2.927041   -3.214151    0.340615
      5          6           0       -4.205563   -3.192789    0.628038
      6          1           0       -4.945653   -3.878189    0.213997
      7          7           0       -0.904423   -0.629856    2.063723
      8          6           0       -1.963071   -0.125847    2.706245
      9          1           0       -1.750727    0.717011    3.362572
     10          7           0       -3.238636   -0.504902    2.659964
     11          6           0       -3.390426   -1.546560    1.825493
     12          6           0       -1.090083   -1.677596    1.231337
     13          7           0       -0.034553   -2.182092    0.589063
     14          1           0       -0.125393   -2.957510   -0.036795
     15          1           0        0.882486   -1.802373    0.711509
     16          1           0       -6.251356   -2.699220    2.545348
     17          1           0       -5.832578   -1.128176    2.688586
     18          1           0       -6.512941   -1.668338    1.307492
     19          7           0       -5.211743    2.176088   -0.503495
     20          6           0       -3.847491    2.172886   -0.667348
     21          6           0       -6.010095    3.317907   -0.014000
     22          7           0       -0.790204    3.808357   -0.467380
     23          1           0        0.170132    3.602212   -0.653119
     24          1           0       -0.999688    4.724986   -0.125890
     25          7           0       -3.013793    3.203990   -0.410784
     26          6           0       -1.754489    2.897173   -0.666953
     27          7           0       -1.341151    1.674702   -1.138358
     28          1           0       -0.357471    1.529013   -1.306018
     29          6           0       -2.181413    0.599358   -1.409407
     30          8           0       -1.706485   -0.461862   -1.832482
     31          6           0       -3.537465    0.913843   -1.139057
     32          7           0       -4.684020    0.142151   -1.268725
     33          6           0       -5.649890    0.930339   -0.881359
     34          1           0       -6.704002    0.652430   -0.851559
     35          1           0       -6.491478    3.056243    0.821817
     36          1           0       -5.403186    4.087677    0.179378
     37          1           0       -6.674352    3.585528   -0.711103
     38          1           0        4.718333    1.231272   -1.323700
     39          1           0        4.522445    1.529325   -3.049224
     40          1           0        3.375490    2.219055   -1.900255
     41          1           0        3.387771   -3.140784   -2.827476
     42          6           0        2.939261   -2.171556   -2.609138
     43          8           0        0.724319   -3.014138   -2.503228
     44          6           0        1.522174   -2.079679   -2.432393
     45          1           0        0.061988   -0.703661   -2.028947
     46          7           0        1.058238   -0.808498   -2.160145
     47          8           0        1.301564    1.420899   -1.802679
     48          6           0        1.804019    0.338025   -2.046773
     49          1           0        4.774929   -1.087266   -2.630228
     50          6           0        3.693118   -1.070938   -2.504604
     51          6           0        3.999842    1.365451   -2.118582
     52          7           0        3.162198    0.168121   -2.230305
     53          1           0        6.121993    2.687869    3.581739
     54          1           0        4.690291    3.107832    2.921470
     55          1           0        6.082637    3.479210    2.154979
     56          1           0        3.418365   -2.954163   -0.408668
     57          1           0        5.088578   -2.632918   -0.277178
     58          7           0        4.147591   -2.347350   -0.092206
     59          6           0        3.878266   -1.207765    0.548088
     60          6           0        4.431640    0.822036    1.659579
     61          7           0        3.158409    1.180192    1.894173
     62          1           0        1.261890    0.479442    1.558328
     63          6           0        2.319669    0.266260    1.410273
     64          7           0        2.587451   -0.875756    0.768662
     65          1           0        7.655552    1.060463    1.701474
     66          6           0        6.620815    0.748282    1.557182
     67          7           0        6.252661   -0.355761    0.954503
     68          6           0        4.866954   -0.321343    1.012510
     69          6           0        5.620206    2.799038    2.723918
     70          7           0        5.570100    1.508927    2.009012
 ---------------------------------------------------------------------

 SCF Done:  E(RwB97XD) =  -2048.73857665     A.U. after   15 cycles

 The electronic state is 1-A.
 Alpha  occ. eigenvalues --  -19.25805 -19.22080 -19.20814 -14.52481 -14.52424
 Alpha  occ. eigenvalues --  -14.49265 -14.48183 -14.47810 -14.47669 -14.47136
 Alpha  occ. eigenvalues --  -14.46966 -14.45423 -14.44546 -14.44395 -14.42320
 Alpha  occ. eigenvalues --  -14.41929 -14.41505 -14.40481 -14.40303 -14.40000
 Alpha  occ. eigenvalues --  -10.45390 -10.41552 -10.40173 -10.40080 -10.38488
 Alpha  occ. eigenvalues --  -10.37974 -10.37901 -10.37282 -10.35930 -10.35018
 Alpha  occ. eigenvalues --  -10.35008 -10.34768 -10.33901 -10.33772 -10.33114
 Alpha  occ. eigenvalues --  -10.32801 -10.32665 -10.32661 -10.31329 -10.30885
 Alpha  occ. eigenvalues --  -10.30238 -10.28528 -10.27842  -1.19346  -1.15208
 Alpha  occ. eigenvalues --   -1.13493  -1.13102  -1.10999  -1.10434  -1.09674
 Alpha  occ. eigenvalues --   -1.09154  -1.08839  -1.05015  -1.04605  -1.02375
 Alpha  occ. eigenvalues --   -1.00992  -1.00047  -0.99981  -0.98886  -0.97054
 Alpha  occ. eigenvalues --   -0.97039  -0.96080  -0.92301  -0.91111  -0.87672
 Alpha  occ. eigenvalues --   -0.85862  -0.84547  -0.83538  -0.83194  -0.82907
 Alpha  occ. eigenvalues --   -0.81601  -0.78929  -0.77141  -0.75012  -0.74929
 Alpha  occ. eigenvalues --   -0.73949  -0.73317  -0.72299  -0.70565  -0.70423
 Alpha  occ. eigenvalues --   -0.67729  -0.66957  -0.66537  -0.65706  -0.64733
 Alpha  occ. eigenvalues --   -0.64365  -0.63912  -0.62940  -0.62156  -0.62104
 Alpha  occ. eigenvalues --   -0.60726  -0.60353  -0.60124  -0.59526  -0.59271
 Alpha  occ. eigenvalues --   -0.59203  -0.58677  -0.57044  -0.56091  -0.56033
 Alpha  occ. eigenvalues --   -0.55537  -0.55290  -0.54988  -0.54563  -0.54262
 Alpha  occ. eigenvalues --   -0.53885  -0.53777  -0.53638  -0.53325  -0.53175
 Alpha  occ. eigenvalues --   -0.52811  -0.52361  -0.51098  -0.50501  -0.50181
 Alpha  occ. eigenvalues --   -0.49964  -0.49628  -0.49527  -0.49512  -0.49135
 Alpha  occ. eigenvalues --   -0.48676  -0.48425  -0.48232  -0.48146  -0.47487
 Alpha  occ. eigenvalues --   -0.46352  -0.45888  -0.45726  -0.44421  -0.43012
 Alpha  occ. eigenvalues --   -0.40723  -0.40663  -0.39438  -0.37968  -0.37685
 Alpha  occ. eigenvalues --   -0.37633  -0.37599  -0.36478  -0.35830  -0.34919
 Alpha  occ. eigenvalues --   -0.34449  -0.34269  -0.33408  -0.33024  -0.32939
 Alpha  occ. eigenvalues --   -0.32857  -0.32638  -0.32253  -0.32123  -0.30259
 Alpha  occ. eigenvalues --   -0.29956  -0.29495  -0.25911  -0.25243
 Alpha virt. eigenvalues --    0.02744   0.03853   0.06747   0.08457   0.08799
 Alpha virt. eigenvalues --    0.08877   0.09455   0.10469   0.11482   0.11529
 Alpha virt. eigenvalues --    0.13358   0.13937   0.14264   0.15003   0.15150

 Mulliken charges:
               1
     1  N   -0.308270
     2  C    0.181850
     3  C    0.052158
     4  N   -0.251891
     5  C    0.149391
     6  H    0.025567
     7  N   -0.299358
     8  C    0.130242
     9  H    0.008833
    10  N   -0.286660
    11  C    0.246991
    12  C    0.088487
    13  N   -0.065057
    14  H    0.118183
    15  H    0.087363
    16  H    0.022512
    17  H    0.029825
    18  H    0.023306
    19  N   -0.310616
    20  C    0.258681
    21  C    0.181387
    22  N   -0.124342
    23  H    0.118357
    24  H    0.119245
    25  N   -0.312776
    26  C    0.250984
    27  N   -0.149666
    28  H    0.120767
    29  C    0.198544
    30  O   -0.319194
    31  C   -0.015935
    32  N   -0.228194
    33  C    0.121007
    34  H    0.023098
    35  H    0.027448
    36  H    0.030951
    37  H    0.025405
    38  H    0.067019
    39  H    0.059435
    40  H    0.075099
    41  H    0.023855
    42  C   -0.138479
    43  O   -0.271277
    44  C    0.172019
    45  H    0.132140
    46  N   -0.121876
    47  O   -0.350985
    48  C    0.352312
    49  H    0.042293
    50  C    0.181327
    51  C    0.038782
    52  N   -0.276220
    53  H    0.034052
    54  H    0.042680
    55  H    0.028586
    56  H    0.125791
    57  H    0.113919
    58  N   -0.055041
    59  C    0.093090
    60  C    0.242233
    61  N   -0.269610
    62  H    0.034225
    63  C    0.173900
    64  N   -0.316184
    65  H    0.038783
    66  C    0.137050
    67  N   -0.261653
    68  C    0.012995
    69  C    0.180458
    70  N   -0.309335
 Sum of Mulliken charges =  -0.00000

 Dipole moment (field-independent basis, Debye):
    X=              7.2274    Y=              7.6989    Z=              1.2322  Tot=             10.6314
 Quadrupole moment (field-independent basis, Debye-Ang):
   XX=           -155.6941   YY=           -222.1602   ZZ=           -251.3625
   XY=              2.2296   XZ=            -12.4132   YZ=             -1.3098

 Normal termination of Gaussian 16 at Mon Jan 22 12:45:45 2018.
