 Gaussian 16, Revision A.03,
 Gaussian 16:  EM64L-G16RevA.03 25-Dec-2016

 ---------------------------------------
 #p wb97xd/cc-pvdz sp scf=(maxcycles=20)
 ---------------------------------------

 ------------------
 Base pair stacking
 ------------------
 Symbolic Z-matrix:
 Charge =  0 Multiplicity = 1

                         Standard orientation:
 ---------------------------------------------------------------------
 Center     Atomic      Atomic             Coordinates (Angstroms)
 Number     Number       Type             X           Y           Z
 ---------------------------------------------------------------------
      1          7           0        5.498663   -1.524548   -1.243288
      2          6           0        6.869811   -0.981689   -1.300543
      3          6           0        3.308068   -1.720293   -1.260327
      4          7           0        3.809959   -2.995317   -1.043142
      5          6           0        5.109624   -2.826344   -1.041563
      6          1           0        5.838401   -3.624328   -0.896422
      7          7           0        1.842274    0.098443   -1.586796
      8          6           0        2.934847    0.862660   -1.686017
      9          1           0        2.747557    1.921187   -1.861237
     10          7           0        4.217989    0.517246   -1.601685
     11          6           0        4.337031   -0.803209   -1.385664
     12          6           0        1.995524   -1.226061   -1.369358
     13          7           0        0.906105   -1.990572   -1.270024
     14          1           0        0.972211   -2.975976   -1.109318
     15          1           0       -0.012766   -1.604619   -1.352809
     16          1           0        7.372743   -1.420664   -2.045221
     17          1           0        6.832332    0.004245   -1.460700
     18          1           0        7.337353   -1.159474   -0.434645
     19          7           0        4.312971    2.015797    1.234760
     20          6           0        2.942262    1.932762    1.186637
     21          6           0        5.107624    3.215910    0.904688
     22          7           0       -0.140243    3.406007    0.562584
     23          1           0       -1.103786    3.141605    0.592772
     24          1           0        0.064231    4.344210    0.282067
     25          7           0        2.097856    2.925568    0.832583
     26          6           0        0.834579    2.541978    0.883651
     27          7           0        0.427291    1.282915    1.252939
     28          1           0       -0.560108    1.078202    1.263305
     29          6           0        1.278579    0.245805    1.621138
     30          8           0        0.808346   -0.853979    1.937537
     31          6           0        2.639011    0.642800    1.571145
     32          7           0        3.796058   -0.069667    1.854939
     33          6           0        4.761359    0.783026    1.642029
     34          1           0        5.822289    0.563946    1.767333
     35          1           0        5.725125    3.010593    0.146172
     36          1           0        4.492800    3.957995    0.640921
     37          1           0        5.641187    3.494250    1.702593
     38          1           0       -5.553018    0.505071    0.491910
     39          1           0       -5.639761    0.751850    2.234384
     40          1           0       -4.374178    1.543168    1.294433
     41          1           0       -4.210779   -3.838994    2.064832
     42          6           0       -3.792306   -2.839718    1.944134
     43          8           0       -1.541166   -3.556585    2.157724
     44          6           0       -2.372739   -2.664867    1.990040
     45          1           0       -0.952033   -1.198193    1.853034
     46          7           0       -1.948701   -1.361519    1.826554
     47          8           0       -2.266053    0.862671    1.495754
     48          6           0       -2.734949   -0.253860    1.630537
     49          1           0       -5.670617   -1.858052    1.711613
     50          6           0       -4.585163   -1.778604    1.754389
     51          6           0       -4.972952    0.649721    1.391166
     52          7           0       -4.092819   -0.503613    1.598325
     53          1           0       -5.146894    3.701692   -2.509031
     54          1           0       -3.883021    3.733827   -1.477673
     55          1           0       -5.407196    3.659803   -0.898470
     56          1           0       -2.569817   -3.174843   -1.442499
     57          1           0       -4.222037   -2.837458   -1.700211
     58          7           0       -3.295596   -2.494062   -1.542096
     59          6           0       -3.040429   -1.186193   -1.467551
     60          6           0       -3.606022    1.124817   -1.499683
     61          7           0       -2.352195    1.557168   -1.286513
     62          1           0       -0.472934    0.789913   -1.003179
     63          6           0       -1.515384    0.527191   -1.177931
     64          7           0       -1.769007   -0.783429   -1.252304
     65          1           0       -6.791597    1.339654   -2.007710
     66          6           0       -5.766950    1.001251   -1.851180
     67          7           0       -5.392985   -0.254552   -1.822982
     68          6           0       -4.025049   -0.190370   -1.600834
     69          6           0       -4.798310    3.364075   -1.634671
     70          7           0       -4.736633    1.889823   -1.662392
 ---------------------------------------------------------------------

 SCF Done:  E(RwB97XD) =  -2048.75048216     A.U. after   15 cycles

 The electronic state is 1-A.
 Alpha  occ. eigenvalues --  -19.25406 -19.21630 -19.20446 -14.52762 -14.52003
 Alpha  occ. eigenvalues --  -14.48713 -14.48415 -14.48402 -14.47412 -14.46630
 Alpha  occ. eigenvalues --  -14.46233 -14.45795 -14.44518 -14.44480 -14.42584
 Alpha  occ. eigenvalues --  -14.41781 -14.41302 -14.41124 -14.40738 -14.40383
 Alpha  occ. eigenvalues --  -10.44998 -10.40979 -10.40211 -10.39737 -10.38270
 Alpha  occ. eigenvalues --  -10.38029 -10.37452 -10.37387 -10.35966 -10.35604
 Alpha  occ. eigenvalues --  -10.34571 -10.34256 -10.34050 -10.34015 -10.33389
 Alpha  occ. eigenvalues --  -10.33166 -10.33157 -10.32928 -10.31141 -10.30726
 Alpha  occ. eigenvalues --  -10.30516 -10.28516 -10.27864  -1.19090  -1.15532
 Alpha  occ. eigenvalues --   -1.12965  -1.12654  -1.11287  -1.10311  -1.09517
 Alpha  occ. eigenvalues --   -1.08924  -1.08299  -1.05187  -1.05012  -1.02073
 Alpha  occ. eigenvalues --   -1.01299  -1.00635  -0.99390  -0.98324  -0.97141
 Alpha  occ. eigenvalues --   -0.96890  -0.96317  -0.92876  -0.90657  -0.87926
 Alpha  occ. eigenvalues --   -0.86222  -0.83998  -0.83814  -0.83226  -0.82403
 Alpha  occ. eigenvalues --   -0.82183  -0.78475  -0.77302  -0.75136  -0.74349
 Alpha  occ. eigenvalues --   -0.73358  -0.73003  -0.72958  -0.71158  -0.70673
 Alpha  occ. eigenvalues --   -0.67118  -0.67030  -0.66433  -0.66140  -0.64533
 Alpha  occ. eigenvalues --   -0.64151  -0.63487  -0.62871  -0.62473  -0.61483
 Alpha  occ. eigenvalues --   -0.61100  -0.60776  -0.60585  -0.59703  -0.59166
 Alpha  occ. eigenvalues --   -0.58766  -0.58007  -0.56905  -0.56654  -0.56085
 Alpha  occ. eigenvalues --   -0.55787  -0.55678  -0.55492  -0.54228  -0.54079
 Alpha  occ. eigenvalues --   -0.53823  -0.53702  -0.53349  -0.53303  -0.52946
 Alpha  occ. eigenvalues --   -0.52667  -0.52110  -0.51909  -0.50817  -0.50298
 Alpha  occ. eigenvalues --   -0.50119  -0.49856  -0.49116  -0.49066  -0.48860
 Alpha  occ. eigenvalues --   -0.48506  -0.48368  -0.48085  -0.47289  -0.47111
 Alpha  occ. eigenvalues --   -0.47013  -0.45785  -0.44778  -0.44707  -0.43253
 Alpha  occ. eigenvalues --   -0.41115  -0.40957  -0.39139  -0.37982  -0.37857
 Alpha  occ. eigenvalues --   -0.37483  -0.37073  -0.36932  -0.35964  -0.34916
 Alpha  occ. eigenvalues --   -0.34587  -0.33836  -0.33578  -0.33318  -0.32866
 Alpha  occ. eigenvalues --   -0.32470  -0.32210  -0.32028  -0.31699  -0.30930
 Alpha  occ. eigenvalues --   -0.30606  -0.29607  -0.25820  -0.25172
 Alpha virt. eigenvalues --    0.03399   0.03672   0.06719   0.07646   0.09022
 Alpha virt. eigenvalues --    0.09282   0.09890   0.10201   0.11104   0.12227
 Alpha virt. eigenvalues --    0.12728   0.14103   0.14204   0.14482   0.14967

 Mulliken charges:
               1
     1  N   -0.311355
     2  C    0.178719
     3  C    0.067376
     4  N   -0.260053
     5  C    0.139463
     6  H    0.026656
     7  N   -0.290502
     8  C    0.136914
     9  H    0.012349
    10  N   -0.286815
    11  C    0.244967
    12  C    0.091563
    13  N   -0.051874
    14  H    0.109911
    15  H    0.082942
    16  H    0.026406
    17  H    0.029475
    18  H    0.026312
    19  N   -0.289001
    20  C    0.230954
    21  C    0.182272
    22  N   -0.108193
    23  H    0.113435
    24  H    0.114723
    25  N   -0.300685
    26  C    0.225804
    27  N   -0.139890
    28  H    0.117866
    29  C    0.182575
    30  O   -0.322814
    31  C   -0.010635
    32  N   -0.221292
    33  C    0.121305
    34  H    0.016026
    35  H    0.026157
    36  H    0.027330
    37  H    0.021518
    38  H    0.057721
    39  H    0.058282
    40  H    0.073044
    41  H    0.026001
    42  C   -0.107398
    43  O   -0.267081
    44  C    0.169025
    45  H    0.130591
    46  N   -0.117895
    47  O   -0.335332
    48  C    0.331552
    49  H    0.046308
    50  C    0.165314
    51  C    0.040033
    52  N   -0.278494
    53  H    0.036053
    54  H    0.037392
    55  H    0.027719
    56  H    0.124344
    57  H    0.117503
    58  N   -0.057596
    59  C    0.090517
    60  C    0.221978
    61  N   -0.263917
    62  H    0.039754
    63  C    0.154725
    64  N   -0.300042
    65  H    0.037631
    66  C    0.118343
    67  N   -0.253773
    68  C    0.030546
    69  C    0.182409
    70  N   -0.295167
 Sum of Mulliken charges =  -0.00000

 Dipole moment (field-independent basis, Debye):
    X=             -7.1657    Y=              6.6032    Z=             -2.9854  Tot=             10.1913
 Quadrupole moment (field-independent basis, Debye-Ang):
   XX=           -150.8257   YY=           -224.6242   ZZ=           -256.9214
   XY=             -4.0279   XZ=             -3.3283   YZ=             11.3244

 Normal termination of Gaussian 16 at Mon Jan 22 01:24:22 2018.
