 Gaussian 16, Revision A.03,
 Gaussian 16:  EM64L-G16RevA.03 25-Dec-2016

 ---------------------------------------
 #p wb97xd/cc-pvdz sp scf=(maxcycles=20)
 ---------------------------------------

 ------------------
 Base pair stacking
 ------------------
 Symbolic Z-matrix:
 Charge =  0 Multiplicity = 1

                         Standard orientation:
 ---------------------------------------------------------------------
 Center     Atomic      Atomic             Coordinates (Angstroms)
 Number     Number       Type             X           Y           Z
 ---------------------------------------------------------------------
      1          7           0       -5.822811   -1.628423    0.979149
      2          6           0       -7.192966   -1.112233    1.164193
      3          6           0       -3.632652   -1.827748    0.951294
      4          7           0       -4.136696   -3.011135    0.431404
      5          6           0       -5.436004   -2.843681    0.468997
      6          1           0       -6.166108   -3.581074    0.134127
      7          7           0       -2.163820   -0.145570    1.710051
      8          6           0       -3.255028    0.574580    1.989737
      9          1           0       -3.065958    1.558825    2.416087
     10          7           0       -4.538714    0.262927    1.822606
     11          6           0       -4.660000   -0.965750    1.293386
     12          6           0       -2.319321   -1.377746    1.178424
     13          7           0       -1.231254   -2.098136    0.898558
     14          1           0       -1.299041   -3.015223    0.504132
     15          1           0       -0.311766   -1.745885    1.073500
     16          1           0       -7.698192   -1.717118    1.779852
     17          1           0       -7.153811   -0.194426    1.558167
     18          1           0       -7.659229   -1.074135    0.280370
     19          7           0       -3.957393    2.288872   -1.296730
     20          6           0       -2.588585    2.184418   -1.237481
     21          6           0       -4.735495    3.502931   -0.978430
     22          7           0        0.511915    3.611746   -0.596083
     23          1           0        1.471357    3.332011   -0.617497
     24          1           0        0.320154    4.554370   -0.321501
     25          7           0       -1.731346    3.165429   -0.881396
     26          6           0       -0.473941    2.761708   -0.920789
     27          7           0       -0.083775    1.494628   -1.281061
     28          1           0        0.900305    1.274308   -1.282740
     29          6           0       -0.948493    0.469352   -1.651127
     30          8           0       -0.493289   -0.639197   -1.958751
     31          6           0       -2.302817    0.888017   -1.613636
     32          7           0       -3.468755    0.192580   -1.903202
     33          6           0       -4.422052    1.061411   -1.701802
     34          1           0       -5.485317    0.858528   -1.834402
     35          1           0       -5.362034    3.310987   -0.223842
     36          1           0       -4.111066    4.236453   -0.713283
     37          1           0       -5.258364    3.785880   -1.781773
     38          1           0        5.877376    0.626038   -0.469588
     39          1           0        5.981538    0.863161   -2.212447
     40          1           0        4.721392    1.678812   -1.286115
     41          1           0        4.478796   -3.703680   -2.032924
     42          6           0        4.075263   -2.697366   -1.920123
     43          8           0        1.814797   -3.379593   -2.148034
     44          6           0        2.659048   -2.500339   -1.977953
     45          1           0        1.260714   -1.010780   -1.858862
     46          7           0        2.254436   -1.189694   -1.823823
     47          8           0        2.604383    1.030752   -1.500806
     48          6           0        3.056576   -0.093665   -1.626761
     49          1           0        5.967024   -1.744398   -1.677407
     50          6           0        4.883329   -1.648012   -1.729064
     51          6           0        5.306679    0.775581   -1.374022
     52          7           0        4.410023   -0.364684   -1.582748
     53          1           0        4.830816    3.110684    3.486069
     54          1           0        3.568964    3.394431    2.491424
     55          1           0        5.094084    3.459054    1.913577
     56          1           0        2.241940   -3.297314    0.784090
     57          1           0        3.894352   -3.036285    1.118011
     58          7           0        2.968902   -2.662610    1.046416
     59          6           0        2.716504   -1.374950    1.290152
     60          6           0        3.286682    0.858275    1.881198
     61          7           0        2.034141    1.332367    1.777268
     62          1           0        0.153871    0.660988    1.314185
     63          6           0        1.195459    0.361278    1.421603
     64          7           0        1.446309   -0.929008    1.177022
     65          1           0        6.471715    0.936144    2.430422
     66          6           0        5.446684    0.648137    2.195289
     67          7           0        5.070255   -0.562644    1.863604
     68          6           0        3.702872   -0.443318    1.661722
     69          6           0        4.483215    2.995481    2.555537
     70          7           0        4.418526    1.558465    2.225687
 ---------------------------------------------------------------------

 SCF Done:  E(RwB97XD) =  -2048.75270799     A.U. after   15 cycles

 The electronic state is 1-A.
 Alpha  occ. eigenvalues --  -19.25793 -19.22083 -19.20579 -14.52339 -14.52275
 Alpha  occ. eigenvalues --  -14.48641 -14.48639 -14.47792 -14.47714 -14.46866
 Alpha  occ. eigenvalues --  -14.46535 -14.45407 -14.44050 -14.44019 -14.42187
 Alpha  occ. eigenvalues --  -14.41939 -14.41177 -14.40942 -14.40818 -14.40207
 Alpha  occ. eigenvalues --  -10.45362 -10.41148 -10.40168 -10.39670 -10.38178
 Alpha  occ. eigenvalues --  -10.37914 -10.37624 -10.37008 -10.35512 -10.35343
 Alpha  occ. eigenvalues --  -10.34968 -10.34226 -10.33896 -10.33886 -10.33270
 Alpha  occ. eigenvalues --  -10.33217 -10.33066 -10.32491 -10.31042 -10.30990
 Alpha  occ. eigenvalues --  -10.30705 -10.28346 -10.28004  -1.19349  -1.15065
 Alpha  occ. eigenvalues --   -1.13137  -1.13088  -1.11181  -1.10490  -1.09188
 Alpha  occ. eigenvalues --   -1.09012  -1.08484  -1.04958  -1.04535  -1.02408
 Alpha  occ. eigenvalues --   -1.00851  -1.00370  -0.99634  -0.98475  -0.96865
 Alpha  occ. eigenvalues --   -0.96517  -0.96481  -0.92631  -0.90927  -0.87478
 Alpha  occ. eigenvalues --   -0.85812  -0.83998  -0.83844  -0.83478  -0.82361
 Alpha  occ. eigenvalues --   -0.82254  -0.78738  -0.76836  -0.74646  -0.74490
 Alpha  occ. eigenvalues --   -0.73561  -0.73266  -0.72811  -0.70977  -0.70202
 Alpha  occ. eigenvalues --   -0.67289  -0.66573  -0.66417  -0.66215  -0.64375
 Alpha  occ. eigenvalues --   -0.64041  -0.63656  -0.62647  -0.62594  -0.61665
 Alpha  occ. eigenvalues --   -0.60575  -0.60359  -0.60234  -0.59345  -0.59285
 Alpha  occ. eigenvalues --   -0.58934  -0.58255  -0.56654  -0.56500  -0.56228
 Alpha  occ. eigenvalues --   -0.55893  -0.55445  -0.55128  -0.54354  -0.54203
 Alpha  occ. eigenvalues --   -0.53719  -0.53559  -0.53385  -0.53201  -0.52867
 Alpha  occ. eigenvalues --   -0.52611  -0.52330  -0.51747  -0.50710  -0.50194
 Alpha  occ. eigenvalues --   -0.50094  -0.49718  -0.49380  -0.48819  -0.48796
 Alpha  occ. eigenvalues --   -0.48765  -0.48379  -0.48272  -0.47489  -0.47323
 Alpha  occ. eigenvalues --   -0.46882  -0.45711  -0.44777  -0.44667  -0.43673
 Alpha  occ. eigenvalues --   -0.41022  -0.40564  -0.39366  -0.37611  -0.37357
 Alpha  occ. eigenvalues --   -0.37229  -0.37183  -0.37062  -0.36086  -0.34560
 Alpha  occ. eigenvalues --   -0.34169  -0.33927  -0.33364  -0.33292  -0.33225
 Alpha  occ. eigenvalues --   -0.32613  -0.32364  -0.32126  -0.31837  -0.30838
 Alpha  occ. eigenvalues --   -0.30411  -0.29489  -0.25661  -0.25236
 Alpha virt. eigenvalues --    0.03094   0.04156   0.07301   0.07909   0.08507
 Alpha virt. eigenvalues --    0.09264   0.09862   0.10611   0.11177   0.11914
 Alpha virt. eigenvalues --    0.12959   0.14367   0.14497   0.14589   0.15099

 Mulliken charges:
               1
     1  N   -0.312787
     2  C    0.180035
     3  C    0.063486
     4  N   -0.257553
     5  C    0.135511
     6  H    0.025834
     7  N   -0.292967
     8  C    0.134684
     9  H    0.011279
    10  N   -0.290910
    11  C    0.240733
    12  C    0.103260
    13  N   -0.050320
    14  H    0.111938
    15  H    0.085541
    16  H    0.025995
    17  H    0.031250
    18  H    0.024012
    19  N   -0.305091
    20  C    0.252648
    21  C    0.180680
    22  N   -0.115001
    23  H    0.113609
    24  H    0.116199
    25  N   -0.308509
    26  C    0.236308
    27  N   -0.146751
    28  H    0.123787
    29  C    0.183491
    30  O   -0.323771
    31  C   -0.011787
    32  N   -0.223919
    33  C    0.129926
    34  H    0.019237
    35  H    0.030233
    36  H    0.027979
    37  H    0.022558
    38  H    0.060106
    39  H    0.059602
    40  H    0.071251
    41  H    0.025051
    42  C   -0.112365
    43  O   -0.270144
    44  C    0.159724
    45  H    0.132524
    46  N   -0.114307
    47  O   -0.340390
    48  C    0.334233
    49  H    0.047474
    50  C    0.173961
    51  C    0.037097
    52  N   -0.278851
    53  H    0.034441
    54  H    0.039775
    55  H    0.025775
    56  H    0.128047
    57  H    0.116389
    58  N   -0.053982
    59  C    0.084549
    60  C    0.247936
    61  N   -0.272578
    62  H    0.039871
    63  C    0.155921
    64  N   -0.300427
    65  H    0.036537
    66  C    0.124793
    67  N   -0.261122
    68  C    0.024211
    69  C    0.180825
    70  N   -0.306773
 Sum of Mulliken charges =  -0.00000

 Dipole moment (field-independent basis, Debye):
    X=              7.2617    Y=              6.5644    Z=              2.5416  Tot=             10.1135
 Quadrupole moment (field-independent basis, Debye-Ang):
   XX=           -149.2340   YY=           -222.7693   ZZ=           -255.5957
   XY=              4.9437   XZ=              1.8456   YZ=             -6.0084

 Normal termination of Gaussian 16 at Mon Jan 22 13:55:55 2018.
