 Gaussian 16, Revision A.03,
 Gaussian 16:  EM64L-G16RevA.03 25-Dec-2016

 ---------------------------------------
 #p wb97xd/cc-pvdz sp scf=(maxcycles=20)
 ---------------------------------------

 ------------------
 Base pair stacking
 ------------------
 Symbolic Z-matrix:
 Charge =  0 Multiplicity = 1

                         Standard orientation:
 ---------------------------------------------------------------------
 Center     Atomic      Atomic             Coordinates (Angstroms)
 Number     Number       Type             X           Y           Z
 ---------------------------------------------------------------------
      1          7           0       -7.189412   -1.227447    0.125065
      2          6           0       -8.540001   -0.632903    0.104677
      3          6           0       -5.026465   -1.534329    0.379665
      4          7           0       -5.532195   -2.727757   -0.115015
      5          6           0       -6.815043   -2.495100   -0.248599
      6          1           0       -7.541266   -3.219401   -0.618640
      7          7           0       -3.564151    0.127126    1.194600
      8          6           0       -4.637784    0.918432    1.288000
      9          1           0       -4.444581    1.921729    1.665246
     10          7           0       -5.908282    0.657677    0.986770
     11          6           0       -6.036076   -0.600131    0.532871
     12          6           0       -3.725779   -1.132690    0.734376
     13          7           0       -2.655252   -1.924097    0.640430
     14          1           0       -2.728161   -2.863995    0.305013
     15          1           0       -1.744366   -1.604667    0.901966
     16          1           0       -9.148550   -1.164316    0.694119
     17          1           0       -8.495375    0.309060    0.436089
     18          1           0       -8.895111   -0.639095   -0.830128
     19          7           0       -2.398156    2.334695   -1.677278
     20          6           0       -1.054312    2.168743   -1.443654
     21          6           0       -3.137694    3.605650   -1.541427
     22          7           0        2.024778    3.488340   -0.527334
     23          1           0        2.962371    3.161587   -0.411630
     24          1           0        1.856093    4.457210   -0.344151
     25          7           0       -0.190611    3.131111   -1.053875
     26          6           0        1.037371    2.665032   -0.910879
     27          7           0        1.394305    1.356934   -1.132169
     28          1           0        2.357383    1.089629   -0.997995
     29          6           0        0.522323    0.349792   -1.533654
     30          8           0        0.946571   -0.799610   -1.705798
     31          6           0       -0.800646    0.835304   -1.691434
     32          7           0       -1.961887    0.177359   -2.072944
     33          6           0       -2.881002    1.104142   -2.050428
     34          1           0       -3.930875    0.943641   -2.297978
     35          1           0       -3.859348    3.501878   -0.857850
     36          1           0       -2.508172    4.325941   -1.253098
     37          1           0       -3.544443    3.852131   -2.420415
     38          1           0        7.157380    0.263969    0.461802
     39          1           0        7.481087    0.363420   -1.267348
     40          1           0        6.168704    1.306885   -0.561039
     41          1           0        5.708530   -4.098526   -0.958087
     42          6           0        5.352786   -3.068173   -0.965428
     43          8           0        3.099997   -3.655199   -1.420932
     44          6           0        3.967071   -2.807598   -1.209856
     45          1           0        2.652124   -1.247228   -1.366278
     46          7           0        3.622767   -1.470981   -1.197432
     47          8           0        4.058522    0.747924   -0.988235
     48          6           0        4.457313   -0.403412   -0.979799
     49          1           0        7.253812   -2.192488   -0.559167
     50          6           0        6.191229   -2.047830   -0.749768
     51          6           0        6.707582    0.372260   -0.513912
     52          7           0        5.778202   -0.735670   -0.751627
     53          1           0        3.345190    3.165069    3.585052
     54          1           0        2.228672    3.433741    2.426050
     55          1           0        3.812780    3.380466    2.036385
     56          1           0        0.732539   -3.295578    1.035626
     57          1           0        2.345852   -3.090541    1.550682
     58          7           0        1.458375   -2.678879    1.340557
     59          6           0        1.253019   -1.365771    1.461932
     60          6           0        1.875999    0.875424    1.962606
     61          7           0        0.673881    1.400513    1.673443
     62          1           0       -1.173479    0.788080    1.030950
     63          6           0       -0.170897    0.447165    1.285661
     64          7           0        0.032873   -0.868547    1.163442
     65          1           0        4.972515    0.839954    2.891305
     66          6           0        3.967837    0.585075    2.552803
     67          7           0        3.564696   -0.627603    2.261978
     68          6           0        2.240039   -0.457675    1.886296
     69          6           0        3.104482    2.996893    2.629142
     70          7           0        2.997190    1.543901    2.393976
 ---------------------------------------------------------------------

 SCF Done:  E(RwB97XD) =  -2048.74516446     A.U. after   15 cycles

 The electronic state is 1-A.
 Alpha  occ. eigenvalues --  -19.26009 -19.22162 -19.20724 -14.52510 -14.51237
 Alpha  occ. eigenvalues --  -14.49401 -14.48745 -14.47944 -14.47201 -14.46908
 Alpha  occ. eigenvalues --  -14.46216 -14.44215 -14.42587 -14.42551 -14.42525
 Alpha  occ. eigenvalues --  -14.42141 -14.42077 -14.41548 -14.40811 -14.40746
 Alpha  occ. eigenvalues --  -10.45610 -10.41397 -10.40246 -10.38355 -10.38206
 Alpha  occ. eigenvalues --  -10.37815 -10.36806 -10.35974 -10.35690 -10.35600
 Alpha  occ. eigenvalues --  -10.34727 -10.34418 -10.34129 -10.34033 -10.33711
 Alpha  occ. eigenvalues --  -10.33294 -10.33185 -10.31466 -10.31167 -10.31102
 Alpha  occ. eigenvalues --  -10.30718 -10.29208 -10.28223  -1.19538  -1.13898
 Alpha  occ. eigenvalues --   -1.13325  -1.13167  -1.12003  -1.10633  -1.09410
 Alpha  occ. eigenvalues --   -1.08772  -1.07521  -1.05581  -1.03090  -1.02586
 Alpha  occ. eigenvalues --   -1.00976  -1.00128  -0.99628  -0.98608  -0.97552
 Alpha  occ. eigenvalues --   -0.96575  -0.95134  -0.93209  -0.91095  -0.86321
 Alpha  occ. eigenvalues --   -0.84799  -0.84550  -0.84171  -0.83863  -0.82894
 Alpha  occ. eigenvalues --   -0.82469  -0.78942  -0.75548  -0.74703  -0.73879
 Alpha  occ. eigenvalues --   -0.73485  -0.73455  -0.73239  -0.71669  -0.68940
 Alpha  occ. eigenvalues --   -0.67578  -0.66864  -0.66637  -0.65267  -0.64550
 Alpha  occ. eigenvalues --   -0.63847  -0.63300  -0.62831  -0.62694  -0.61973
 Alpha  occ. eigenvalues --   -0.60702  -0.59811  -0.59592  -0.59133  -0.58995
 Alpha  occ. eigenvalues --   -0.58537  -0.58207  -0.56993  -0.56973  -0.56675
 Alpha  occ. eigenvalues --   -0.56101  -0.55863  -0.54693  -0.54484  -0.54111
 Alpha  occ. eigenvalues --   -0.53722  -0.53523  -0.53007  -0.52677  -0.52604
 Alpha  occ. eigenvalues --   -0.52239  -0.52102  -0.51509  -0.51356  -0.50734
 Alpha  occ. eigenvalues --   -0.50226  -0.49614  -0.49548  -0.48930  -0.48707
 Alpha  occ. eigenvalues --   -0.48589  -0.48332  -0.47840  -0.47622  -0.47534
 Alpha  occ. eigenvalues --   -0.47423  -0.45652  -0.45214  -0.44105  -0.43028
 Alpha  occ. eigenvalues --   -0.41795  -0.39581  -0.39319  -0.37793  -0.37444
 Alpha  occ. eigenvalues --   -0.37325  -0.36386  -0.36130  -0.35796  -0.34796
 Alpha  occ. eigenvalues --   -0.34133  -0.34101  -0.33346  -0.32981  -0.32866
 Alpha  occ. eigenvalues --   -0.32561  -0.32205  -0.32044  -0.31922  -0.31582
 Alpha  occ. eigenvalues --   -0.30916  -0.28358  -0.26370  -0.25531
 Alpha virt. eigenvalues --    0.03073   0.05298   0.07345   0.08337   0.08361
 Alpha virt. eigenvalues --    0.09304   0.09599   0.10299   0.11164   0.12187
 Alpha virt. eigenvalues --    0.12677   0.13483   0.14460   0.14619   0.15443

 Mulliken charges:
               1
     1  N   -0.311047
     2  C    0.180719
     3  C    0.032414
     4  N   -0.257465
     5  C    0.133365
     6  H    0.028477
     7  N   -0.284622
     8  C    0.123384
     9  H    0.015315
    10  N   -0.288174
    11  C    0.236841
    12  C    0.112947
    13  N   -0.046666
    14  H    0.107833
    15  H    0.088981
    16  H    0.027087
    17  H    0.035404
    18  H    0.026114
    19  N   -0.305854
    20  C    0.237354
    21  C    0.181111
    22  N   -0.118245
    23  H    0.113807
    24  H    0.117497
    25  N   -0.294910
    26  C    0.232700
    27  N   -0.122396
    28  H    0.118799
    29  C    0.152663
    30  O   -0.322025
    31  C   -0.003850
    32  N   -0.222339
    33  C    0.130772
    34  H    0.029875
    35  H    0.030998
    36  H    0.027630
    37  H    0.023906
    38  H    0.058390
    39  H    0.062009
    40  H    0.070941
    41  H    0.031041
    42  C   -0.108311
    43  O   -0.273542
    44  C    0.172356
    45  H    0.135769
    46  N   -0.133290
    47  O   -0.354095
    48  C    0.364467
    49  H    0.047715
    50  C    0.178190
    51  C    0.040376
    52  N   -0.294183
    53  H    0.032588
    54  H    0.040266
    55  H    0.014861
    56  H    0.121002
    57  H    0.118478
    58  N   -0.050694
    59  C    0.116802
    60  C    0.233527
    61  N   -0.260319
    62  H    0.047629
    63  C    0.147333
    64  N   -0.299926
    65  H    0.025532
    66  C    0.128357
    67  N   -0.263201
    68  C    0.015726
    69  C    0.172750
    70  N   -0.306945
 Sum of Mulliken charges =  -0.00000

 Dipole moment (field-independent basis, Debye):
    X=              6.8238    Y=              5.9619    Z=              2.5839  Tot=              9.4226
 Quadrupole moment (field-independent basis, Debye-Ang):
   XX=           -139.8384   YY=           -224.7847   ZZ=           -252.0986
   XY=             10.8965   XZ=             16.7872   YZ=             -6.8650

 Normal termination of Gaussian 16 at Mon Jan 22 17:38:02 2018.
