 Gaussian 16, Revision A.03,
 Gaussian 16:  EM64L-G16RevA.03 25-Dec-2016

 ---------------------------------------
 #p wb97xd/cc-pvdz sp scf=(maxcycles=20)
 ---------------------------------------

 ------------------
 Base pair stacking
 ------------------
 Symbolic Z-matrix:
 Charge =  0 Multiplicity = 1

                         Standard orientation:
 ---------------------------------------------------------------------
 Center     Atomic      Atomic             Coordinates (Angstroms)
 Number     Number       Type             X           Y           Z
 ---------------------------------------------------------------------
      1          7           0       -5.530332   -1.875366    1.045029
      2          6           0       -6.897964   -1.449986    1.400880
      3          6           0       -3.341580   -1.998031    0.867078
      4          7           0       -3.850428   -3.064540    0.140186
      5          6           0       -5.148697   -2.947956    0.276486
      6          1           0       -5.881679   -3.622941   -0.166309
      7          7           0       -1.866127   -0.463132    1.881998
      8          6           0       -2.954053    0.150873    2.358452
      9          1           0       -2.760915    1.032143    2.968632
     10          7           0       -4.238688   -0.158830    2.195099
     11          6           0       -4.365066   -1.256085    1.430582
     12          6           0       -2.026724   -1.564369    1.116124
     13          7           0       -0.941956   -2.178664    0.639595
     14          1           0       -1.013549   -2.997097    0.068402
     15          1           0       -0.021243   -1.841940    0.837193
     16          1           0       -7.356534   -2.183284    1.903053
     17          1           0       -6.854992   -0.631641    1.973228
     18          1           0       -7.412986   -1.245785    0.568391
     19          7           0       -4.260566    2.418919   -1.011167
     20          6           0       -2.889245    2.333453   -1.025401
     21          6           0       -5.037703    3.606937   -0.604486
     22          7           0        0.220446    3.781803   -0.483277
     23          1           0        1.181230    3.518110   -0.564538
     24          1           0        0.030259    4.709505   -0.160940
     25          7           0       -2.028240    3.312542   -0.673101
     26          6           0       -0.769156    2.930320   -0.792415
     27          7           0       -0.380860    1.684996   -1.223589
     28          1           0        0.604734    1.480237   -1.283957
     29          6           0       -1.249442    0.662149   -1.591293
     30          8           0       -0.795634   -0.425909   -1.966702
     31          6           0       -2.605606    1.057860   -1.468356
     32          7           0       -3.775330    0.356609   -1.727008
     33          6           0       -4.728731    1.201703   -1.442284
     34          1           0       -5.794545    0.987825   -1.529271
     35          1           0       -5.622253    3.375038    0.172251
     36          1           0       -4.410488    4.338794   -0.341319
     37          1           0       -5.604664    3.913857   -1.368133
     38          1           0        5.625120    0.877185   -0.750283
     39          1           0        5.636963    1.185905   -2.484984
     40          1           0        4.414865    1.943897   -1.463566
     41          1           0        4.207015   -3.407270   -2.417319
     42          6           0        3.796251   -2.412707   -2.243120
     43          8           0        1.536499   -3.120252   -2.384469
     44          6           0        2.376407   -2.235545   -2.221286
     45          1           0        0.966021   -0.773900   -1.970782
     46          7           0        1.962562   -0.938624   -1.993294
     47          8           0        2.298584    1.272183   -1.597544
     48          6           0        2.758873    0.160919   -1.792176
     49          1           0        5.684920   -1.440996   -2.057301
     50          6           0        4.598798   -1.359471   -2.050195
     51          6           0        5.007027    1.054136   -1.617870
     52          7           0        4.116334   -0.090585   -1.827678
     53          1           0        5.151168    2.571351    3.939121
     54          1           0        3.831018    3.014367    3.088799
     55          1           0        5.320351    3.242405    2.461122
     56          1           0        2.542306   -3.222704    0.106582
     57          1           0        4.205244   -2.985487    0.404042
     58          7           0        3.270148   -2.633400    0.457467
     59          6           0        3.006573   -1.431309    0.973863
     60          6           0        3.564919    0.649701    1.983518
     61          7           0        2.299551    1.096686    2.042422
     62          1           0        0.410006    0.477556    1.545512
     63          6           0        1.461574    0.194030    1.536541
     64          7           0        1.723617   -1.010503    1.018857
     65          1           0        6.773310    0.710236    2.376897
     66          6           0        5.742651    0.445471    2.139006
     67          7           0        5.372133   -0.682514    1.583994
     68          6           0        3.993623   -0.566023    1.479763
     69          6           0        4.755015    2.638755    3.023417
     70          7           0        4.700205    1.298536    2.407928
 ---------------------------------------------------------------------

 SCF Done:  E(RwB97XD) =  -2048.74393753     A.U. after   15 cycles

 The electronic state is 1-A.
 Alpha  occ. eigenvalues --  -19.25913 -19.22518 -19.20733 -14.52421 -14.52258
 Alpha  occ. eigenvalues --  -14.48888 -14.48305 -14.47910 -14.47740 -14.47043
 Alpha  occ. eigenvalues --  -14.46796 -14.45367 -14.44017 -14.43976 -14.42130
 Alpha  occ. eigenvalues --  -14.41842 -14.41050 -14.40811 -14.40627 -14.39974
 Alpha  occ. eigenvalues --  -10.45481 -10.41369 -10.40478 -10.39632 -10.38352
 Alpha  occ. eigenvalues --  -10.37845 -10.37559 -10.36942 -10.35483 -10.35045
 Alpha  occ. eigenvalues --  -10.35021 -10.34465 -10.33731 -10.33558 -10.33492
 Alpha  occ. eigenvalues --  -10.32918 -10.32796 -10.32464 -10.31181 -10.30973
 Alpha  occ. eigenvalues --  -10.30788 -10.28233 -10.28047  -1.19468  -1.15001
 Alpha  occ. eigenvalues --   -1.13485  -1.13317  -1.10848  -1.10704  -1.09362
 Alpha  occ. eigenvalues --   -1.09012  -1.08686  -1.04685  -1.04561  -1.02619
 Alpha  occ. eigenvalues --   -1.00808  -1.00054  -0.99867  -0.98666  -0.96710
 Alpha  occ. eigenvalues --   -0.96663  -0.96408  -0.92348  -0.91087  -0.87410
 Alpha  occ. eigenvalues --   -0.85712  -0.84230  -0.83578  -0.83549  -0.82598
 Alpha  occ. eigenvalues --   -0.81966  -0.78915  -0.76813  -0.74754  -0.74574
 Alpha  occ. eigenvalues --   -0.73771  -0.73461  -0.72512  -0.70683  -0.70187
 Alpha  occ. eigenvalues --   -0.67515  -0.66718  -0.66449  -0.65908  -0.64619
 Alpha  occ. eigenvalues --   -0.64092  -0.63781  -0.62766  -0.62336  -0.61891
 Alpha  occ. eigenvalues --   -0.60546  -0.60256  -0.60099  -0.59440  -0.59207
 Alpha  occ. eigenvalues --   -0.59048  -0.58493  -0.56728  -0.56234  -0.56074
 Alpha  occ. eigenvalues --   -0.56037  -0.55208  -0.54969  -0.54443  -0.54195
 Alpha  occ. eigenvalues --   -0.53782  -0.53638  -0.53470  -0.53329  -0.53096
 Alpha  occ. eigenvalues --   -0.52579  -0.52447  -0.51465  -0.50434  -0.50319
 Alpha  occ. eigenvalues --   -0.49963  -0.49620  -0.49581  -0.49121  -0.49049
 Alpha  occ. eigenvalues --   -0.48596  -0.48527  -0.48255  -0.47747  -0.47501
 Alpha  occ. eigenvalues --   -0.46603  -0.45892  -0.45017  -0.44511  -0.43455
 Alpha  occ. eigenvalues --   -0.40719  -0.40501  -0.39488  -0.37706  -0.37413
 Alpha  occ. eigenvalues --   -0.37389  -0.37293  -0.36752  -0.36237  -0.34491
 Alpha  occ. eigenvalues --   -0.34224  -0.33958  -0.33628  -0.33082  -0.33065
 Alpha  occ. eigenvalues --   -0.32766  -0.32616  -0.32448  -0.32010  -0.30535
 Alpha  occ. eigenvalues --   -0.30123  -0.29063  -0.25699  -0.25180
 Alpha virt. eigenvalues --    0.02891   0.04267   0.07363   0.08108   0.08321
 Alpha virt. eigenvalues --    0.09234   0.09659   0.10644   0.11400   0.12221
 Alpha virt. eigenvalues --    0.13001   0.14208   0.14604   0.14681   0.15198

 Mulliken charges:
               1
     1  N   -0.312004
     2  C    0.180385
     3  C    0.061633
     4  N   -0.255636
     5  C    0.137622
     6  H    0.024886
     7  N   -0.297369
     8  C    0.134072
     9  H    0.009976
    10  N   -0.291759
    11  C    0.243014
    12  C    0.099144
    13  N   -0.048738
    14  H    0.114425
    15  H    0.083776
    16  H    0.025098
    17  H    0.031289
    18  H    0.022551
    19  N   -0.309258
    20  C    0.256239
    21  C    0.180973
    22  N   -0.121884
    23  H    0.116167
    24  H    0.118068
    25  N   -0.311165
    26  C    0.246423
    27  N   -0.150037
    28  H    0.121351
    29  C    0.194165
    30  O   -0.323271
    31  C   -0.016150
    32  N   -0.223350
    33  C    0.128713
    34  H    0.020172
    35  H    0.029966
    36  H    0.029251
    37  H    0.023744
    38  H    0.061066
    39  H    0.059644
    40  H    0.072742
    41  H    0.023686
    42  C   -0.113139
    43  O   -0.270354
    44  C    0.150504
    45  H    0.131141
    46  N   -0.106284
    47  O   -0.342993
    48  C    0.334426
    49  H    0.047124
    50  C    0.172565
    51  C    0.038344
    52  N   -0.276395
    53  H    0.033877
    54  H    0.041537
    55  H    0.026410
    56  H    0.126699
    57  H    0.114156
    58  N   -0.044636
    59  C    0.076570
    60  C    0.245320
    61  N   -0.273602
    62  H    0.035209
    63  C    0.166498
    64  N   -0.304702
    65  H    0.036122
    66  C    0.129357
    67  N   -0.263613
    68  C    0.027732
    69  C    0.181079
    70  N   -0.308574
 Sum of Mulliken charges =  -0.00000

 Dipole moment (field-independent basis, Debye):
    X=              7.3585    Y=              6.8429    Z=              2.1357  Tot=             10.2730
 Quadrupole moment (field-independent basis, Debye-Ang):
   XX=           -151.0662   YY=           -221.9790   ZZ=           -254.1600
   XY=              3.5924   XZ=             -1.1059   YZ=             -1.7210

 Normal termination of Gaussian 16 at Mon Jan 22 06:05:30 2018.
