 Gaussian 16, Revision A.03,
 Gaussian 16:  EM64L-G16RevA.03 25-Dec-2016

 ---------------------------------------
 #p wb97xd/cc-pvdz sp scf=(maxcycles=20)
 ---------------------------------------

 ------------------
 Base pair stacking
 ------------------
 Symbolic Z-matrix:
 Charge =  0 Multiplicity = 1

                         Standard orientation:
 ---------------------------------------------------------------------
 Center     Atomic      Atomic             Coordinates (Angstroms)
 Number     Number       Type             X           Y           Z
 ---------------------------------------------------------------------
      1          7           0       -6.423580   -1.510272    0.509060
      2          6           0       -7.792352   -0.997490    0.712807
      3          6           0       -4.237854   -1.752565    0.543936
      4          7           0       -4.736484   -2.830981   -0.172400
      5          6           0       -6.033342   -2.641845   -0.164742
      6          1           0       -6.759093   -3.302734   -0.639552
      7          7           0       -2.778478   -0.239658    1.613640
      8          6           0       -3.869705    0.453870    1.953987
      9          1           0       -3.684581    1.356936    2.534048
     10          7           0       -5.149253    0.200542    1.686648
     11          6           0       -5.265866   -0.929856    0.970386
     12          6           0       -2.929218   -1.372373    0.893019
     13          7           0       -1.841134   -2.066043    0.552315
     14          1           0       -1.905486   -2.910389    0.019251
     15          1           0       -0.925064   -1.765560    0.818150
     16          1           0       -8.334565   -1.677682    1.206300
     17          1           0       -7.756568   -0.151727    1.244336
     18          1           0       -8.217327   -0.814338   -0.173670
     19          7           0       -3.265557    2.545928   -1.419826
     20          6           0       -1.905451    2.390946   -1.300836
     21          6           0       -4.009689    3.792330   -1.148829
     22          7           0        1.217141    3.709028   -0.543333
     23          1           0        2.165289    3.393243   -0.520489
     24          1           0        1.049912    4.661649   -0.287841
     25          7           0       -1.027372    3.343597   -0.919432
     26          6           0        0.214304    2.892489   -0.900384
     27          7           0        0.570889    1.607129   -1.229343
     28          1           0        1.545072    1.350026   -1.186391
     29          6           0       -0.315745    0.610361   -1.624551
     30          8           0        0.109584   -0.518364   -1.899902
     31          6           0       -1.653535    1.080003   -1.649801
     32          7           0       -2.831768    0.425157   -1.981206
     33          6           0       -3.759006    1.331661   -1.830599
     34          1           0       -4.822642    1.167138   -2.006327
     35          1           0       -4.674498    3.633757   -0.419654
     36          1           0       -3.369603    4.505252   -0.865444
     37          1           0       -4.486908    4.084347   -1.976956
     38          1           0        6.454948    0.525935   -0.153590
     39          1           0        6.641807    0.736554   -1.892946
     40          1           0        5.375482    1.610762   -1.030669
     41          1           0        4.960151   -3.767990   -1.726582
     42          6           0        4.590788   -2.745871   -1.642496
     43          8           0        2.317680   -3.345653   -1.959329
     44          6           0        3.186807   -2.496588   -1.763146
     45          1           0        1.842364   -0.954192   -1.720815
     46          7           0        2.826180   -1.169811   -1.641228
     47          8           0        3.246345    1.039910   -1.328519
     48          6           0        3.660373   -0.102218   -1.422339
     49          1           0        6.505435   -1.861524   -1.329723
     50          6           0        5.429365   -1.725215   -1.428814
     51          6           0        5.929181    0.685143   -1.083261
     52          7           0        4.999445   -0.423247   -1.317360
     53          1           0        4.179071    2.547986    4.163901
     54          1           0        2.968371    3.008768    3.171937
     55          1           0        4.519001    3.126306    2.676146
     56          1           0        1.614191   -3.312050    0.402656
     57          1           0        3.253667   -3.142556    0.842552
     58          7           0        2.338473   -2.741462    0.789952
     59          6           0        2.095741   -1.500729    1.217558
     60          6           0        2.673873    0.602575    2.168139
     61          7           0        1.435023    1.115222    2.085145
     62          1           0       -0.432687    0.565169    1.445062
     63          6           0        0.598053    0.229062    1.549317
     64          7           0        0.839237   -1.014093    1.120412
     65          1           0        5.831503    0.523520    2.857538
     66          6           0        4.813765    0.298070    2.537656
     67          7           0        4.433618   -0.839022    2.008334
     68          6           0        3.078885   -0.659330    1.769304
     69          6           0        3.872319    2.584106    3.212800
     70          7           0        3.799869    1.216133    2.663783
 ---------------------------------------------------------------------

 SCF Done:  E(RwB97XD) =  -2048.74635008     A.U. after   15 cycles

 The electronic state is 1-A.
 Alpha  occ. eigenvalues --  -19.26076 -19.22313 -19.20779 -14.52603 -14.51703
 Alpha  occ. eigenvalues --  -14.48793 -14.48784 -14.48030 -14.47083 -14.46860
 Alpha  occ. eigenvalues --  -14.46478 -14.44807 -14.43276 -14.43148 -14.42150
 Alpha  occ. eigenvalues --  -14.42012 -14.41361 -14.40914 -14.40886 -14.40127
 Alpha  occ. eigenvalues --  -10.45701 -10.41366 -10.40541 -10.38743 -10.38358
 Alpha  occ. eigenvalues --  -10.38071 -10.37307 -10.36293 -10.35421 -10.35313
 Alpha  occ. eigenvalues --  -10.34822 -10.34421 -10.34038 -10.33426 -10.33337
 Alpha  occ. eigenvalues --  -10.33320 -10.33073 -10.31711 -10.31250 -10.31083
 Alpha  occ. eigenvalues --  -10.30816 -10.28453 -10.28184  -1.19643  -1.14394
 Alpha  occ. eigenvalues --   -1.13485  -1.13336  -1.11334  -1.10649  -1.09500
 Alpha  occ. eigenvalues --   -1.08704  -1.08127  -1.04928  -1.03684  -1.02750
 Alpha  occ. eigenvalues --   -1.00332  -1.00161  -0.99911  -0.98655  -0.96927
 Alpha  occ. eigenvalues --   -0.96617  -0.95721  -0.92574  -0.91268  -0.86795
 Alpha  occ. eigenvalues --   -0.85204  -0.84159  -0.83939  -0.83834  -0.82502
 Alpha  occ. eigenvalues --   -0.82317  -0.79093  -0.76074  -0.74704  -0.73849
 Alpha  occ. eigenvalues --   -0.73790  -0.73592  -0.72841  -0.71009  -0.69442
 Alpha  occ. eigenvalues --   -0.67513  -0.66776  -0.66237  -0.65775  -0.64657
 Alpha  occ. eigenvalues --   -0.63888  -0.63255  -0.62795  -0.62619  -0.61863
 Alpha  occ. eigenvalues --   -0.60212  -0.60157  -0.59692  -0.59536  -0.58839
 Alpha  occ. eigenvalues --   -0.58619  -0.58524  -0.56663  -0.56490  -0.56418
 Alpha  occ. eigenvalues --   -0.56165  -0.55314  -0.54707  -0.54605  -0.54478
 Alpha  occ. eigenvalues --   -0.53778  -0.53616  -0.53049  -0.52870  -0.52717
 Alpha  occ. eigenvalues --   -0.52653  -0.51948  -0.51773  -0.50782  -0.50302
 Alpha  occ. eigenvalues --   -0.50188  -0.49686  -0.49388  -0.49275  -0.49055
 Alpha  occ. eigenvalues --   -0.48624  -0.48420  -0.47889  -0.47616  -0.47527
 Alpha  occ. eigenvalues --   -0.46931  -0.45577  -0.44980  -0.44281  -0.43479
 Alpha  occ. eigenvalues --   -0.41118  -0.39877  -0.39635  -0.37374  -0.37335
 Alpha  occ. eigenvalues --   -0.37133  -0.36638  -0.36622  -0.36185  -0.34302
 Alpha  occ. eigenvalues --   -0.33976  -0.33643  -0.33472  -0.33377  -0.33173
 Alpha  occ. eigenvalues --   -0.32789  -0.32429  -0.32269  -0.31935  -0.30915
 Alpha  occ. eigenvalues --   -0.30354  -0.28900  -0.25667  -0.25529
 Alpha virt. eigenvalues --    0.02632   0.05043   0.07475   0.08076   0.08819
 Alpha virt. eigenvalues --    0.09002   0.09647   0.10989   0.11100   0.11813
 Alpha virt. eigenvalues --    0.12942   0.14078   0.14584   0.14636   0.15685

 Mulliken charges:
               1
     1  N   -0.311654
     2  C    0.180488
     3  C    0.050454
     4  N   -0.256318
     5  C    0.131416
     6  H    0.025855
     7  N   -0.291109
     8  C    0.131887
     9  H    0.011330
    10  N   -0.291712
    11  C    0.232887
    12  C    0.110089
    13  N   -0.046590
    14  H    0.111218
    15  H    0.091939
    16  H    0.026172
    17  H    0.033424
    18  H    0.023784
    19  N   -0.310566
    20  C    0.253953
    21  C    0.180173
    22  N   -0.119148
    23  H    0.112898
    24  H    0.117211
    25  N   -0.308976
    26  C    0.243735
    27  N   -0.142089
    28  H    0.117052
    29  C    0.175394
    30  O   -0.323434
    31  C   -0.002899
    32  N   -0.225137
    33  C    0.131282
    34  H    0.025227
    35  H    0.032142
    36  H    0.028201
    37  H    0.023520
    38  H    0.058116
    39  H    0.060899
    40  H    0.071792
    41  H    0.029047
    42  C   -0.116785
    43  O   -0.279986
    44  C    0.147374
    45  H    0.137501
    46  N   -0.117336
    47  O   -0.347491
    48  C    0.350734
    49  H    0.048982
    50  C    0.190194
    51  C    0.041284
    52  N   -0.284331
    53  H    0.032946
    54  H    0.041423
    55  H    0.022696
    56  H    0.129361
    57  H    0.112743
    58  N   -0.044391
    59  C    0.095873
    60  C    0.248377
    61  N   -0.273559
    62  H    0.036674
    63  C    0.166221
    64  N   -0.301045
    65  H    0.031781
    66  C    0.127457
    67  N   -0.261850
    68  C    0.004409
    69  C    0.179701
    70  N   -0.310908
 Sum of Mulliken charges =  -0.00000

 Dipole moment (field-independent basis, Debye):
    X=              7.4603    Y=              6.3981    Z=              2.2727  Tot=             10.0875
 Quadrupole moment (field-independent basis, Debye-Ang):
   XX=           -145.7046   YY=           -223.1552   ZZ=           -253.0280
   XY=              5.5077   XZ=              9.3707   YZ=             -2.8829

 Normal termination of Gaussian 16 at Mon Jan 22 06:41:21 2018.
