 Gaussian 16, Revision A.03,
 Gaussian 16:  EM64L-G16RevA.03 25-Dec-2016

 ---------------------------------------
 #p wb97xd/cc-pvdz sp scf=(maxcycles=20)
 ---------------------------------------

 ------------------
 Base pair stacking
 ------------------
 Symbolic Z-matrix:
 Charge =  0 Multiplicity = 1

                         Standard orientation:
 ---------------------------------------------------------------------
 Center     Atomic      Atomic             Coordinates (Angstroms)
 Number     Number       Type             X           Y           Z
 ---------------------------------------------------------------------
      1          7           0        5.794742   -1.484139   -1.045098
      2          6           0        7.161867   -0.928537   -1.061450
      3          6           0        3.607719   -1.700804   -1.130736
      4          7           0        4.114371   -2.969967   -0.891435
      5          6           0        5.411683   -2.788637   -0.849411
      6          1           0        6.142921   -3.578962   -0.677264
      7          7           0        2.136085    0.102372   -1.512561
      8          6           0        3.224050    0.876487   -1.580802
      9          1           0        3.032533    1.932356   -1.767098
     10          7           0        4.507053    0.543694   -1.454055
     11          6           0        4.631522   -0.774553   -1.227853
     12          6           0        2.294736   -1.219593   -1.283835
     13          7           0        1.209921   -1.993960   -1.215383
     14          1           0        1.280100   -2.977942   -1.047799
     15          1           0        0.290570   -1.617162   -1.329212
     16          1           0        7.692318   -1.366151   -1.787606
     17          1           0        7.120264    0.056250   -1.227582
     18          1           0        7.603282   -1.097845   -0.180276
     19          7           0        4.000718    2.068852    1.345376
     20          6           0        2.633074    1.972540    1.254148
     21          6           0        4.794197    3.274927    1.034785
     22          7           0       -0.441684    3.413494    0.525244
     23          1           0       -1.403183    3.140083    0.526127
     24          1           0       -0.237185    4.352291    0.246739
     25          7           0        1.791096    2.955629    0.868557
     26          6           0        0.530481    2.560277    0.881368
     27          7           0        0.123460    1.299119    1.243739
     28          1           0       -0.861809    1.085071    1.223749
     29          6           0        0.972287    0.271868    1.643904
     30          8           0        0.502539   -0.830858    1.950626
     31          6           0        2.329837    0.681559    1.635184
     32          7           0        3.483890   -0.018541    1.959103
     33          6           0        4.447443    0.842292    1.772749
     34          1           0        5.505862    0.633908    1.932761
     35          1           0        5.437406    3.071984    0.297285
     36          1           0        4.181160    4.009894    0.747969
     37          1           0        5.299482    3.562025    1.847850
     38          1           0       -5.822073    0.460890    0.297002
     39          1           0       -5.966492    0.714896    2.034607
     40          1           0       -4.679125    1.513850    1.131436
     41          1           0       -4.489919   -3.862879    1.933171
     42          6           0       -4.077195   -2.860233    1.820907
     43          8           0       -1.827386   -3.554656    2.109409
     44          6           0       -2.661518   -2.671677    1.911002
     45          1           0       -1.250954   -1.192199    1.811957
     46          7           0       -2.244702   -1.365123    1.754642
     47          8           0       -2.572192    0.854397    1.402960
     48          6           0       -3.034664   -0.265906    1.528296
     49          1           0       -5.956274   -1.897569    1.523995
     50          6           0       -4.873522   -1.807600    1.600832
     51          6           0       -5.272282    0.615217    1.213503
     52          7           0       -4.388415   -0.528724    1.454201
     53          1           0       -4.853639    3.634651   -2.674074
     54          1           0       -3.623565    3.683588   -1.603265
     55          1           0       -5.164637    3.597741   -1.072404
     56          1           0       -2.247515   -3.212038   -1.492326
     57          1           0       -3.893796   -2.891581   -1.804048
     58          7           0       -2.976102   -2.538661   -1.618280
     59          6           0       -2.735698   -1.228100   -1.542119
     60          6           0       -3.321590    1.077258   -1.603598
     61          7           0       -2.079287    1.522494   -1.352847
     62          1           0       -0.202886    0.774477   -1.006188
     63          6           0       -1.236739    0.501048   -1.212665
     64          7           0       -1.475585   -0.812257   -1.288590
     65          1           0       -6.491280    1.259416   -2.213600
     66          6           0       -5.468993    0.931508   -2.022936
     67          7           0       -5.084386   -0.320537   -1.976683
     68          6           0       -3.724857   -0.242308   -1.711509
     69          6           0       -4.529909    3.304419   -1.787431
     70          7           0       -4.453581    1.830707   -1.805907
 ---------------------------------------------------------------------

 SCF Done:  E(RwB97XD) =  -2048.74846419     A.U. after   15 cycles

 The electronic state is 1-A.
 Alpha  occ. eigenvalues --  -19.25534 -19.21699 -19.20417 -14.52635 -14.52079
 Alpha  occ. eigenvalues --  -14.48889 -14.48293 -14.48225 -14.47502 -14.46593
 Alpha  occ. eigenvalues --  -14.46044 -14.45649 -14.44323 -14.44306 -14.42606
 Alpha  occ. eigenvalues --  -14.41708 -14.41460 -14.41262 -14.40612 -14.40445
 Alpha  occ. eigenvalues --  -10.45106 -10.40865 -10.40019 -10.39813 -10.38154
 Alpha  occ. eigenvalues --  -10.37970 -10.37459 -10.37299 -10.35695 -10.35661
 Alpha  occ. eigenvalues --  -10.34723 -10.34265 -10.34144 -10.33925 -10.33498
 Alpha  occ. eigenvalues --  -10.33298 -10.33038 -10.32773 -10.31255 -10.30775
 Alpha  occ. eigenvalues --  -10.30364 -10.28616 -10.27744  -1.19176  -1.15375
 Alpha  occ. eigenvalues --   -1.12931  -1.12725  -1.11443  -1.10245  -1.09334
 Alpha  occ. eigenvalues --   -1.08985  -1.08229  -1.05261  -1.04844  -1.02162
 Alpha  occ. eigenvalues --   -1.01166  -1.00720  -0.99283  -0.98271  -0.97151
 Alpha  occ. eigenvalues --   -0.96822  -0.96223  -0.92951  -0.90719  -0.87808
 Alpha  occ. eigenvalues --   -0.86152  -0.84114  -0.83715  -0.83318  -0.82513
 Alpha  occ. eigenvalues --   -0.82071  -0.78536  -0.77157  -0.74997  -0.74255
 Alpha  occ. eigenvalues --   -0.73298  -0.73100  -0.73030  -0.71269  -0.70540
 Alpha  occ. eigenvalues --   -0.67022  -0.66886  -0.66530  -0.66203  -0.64405
 Alpha  occ. eigenvalues --   -0.64151  -0.63439  -0.62963  -0.62459  -0.61374
 Alpha  occ. eigenvalues --   -0.60954  -0.60709  -0.60572  -0.59620  -0.59199
 Alpha  occ. eigenvalues --   -0.58765  -0.57910  -0.56954  -0.56720  -0.56172
 Alpha  occ. eigenvalues --   -0.55778  -0.55722  -0.55454  -0.54301  -0.54115
 Alpha  occ. eigenvalues --   -0.53934  -0.53640  -0.53291  -0.53266  -0.52746
 Alpha  occ. eigenvalues --   -0.52574  -0.52177  -0.52013  -0.50984  -0.50405
 Alpha  occ. eigenvalues --   -0.49904  -0.49807  -0.49164  -0.49091  -0.48686
 Alpha  occ. eigenvalues --   -0.48465  -0.48395  -0.48043  -0.47198  -0.47131
 Alpha  occ. eigenvalues --   -0.47094  -0.45628  -0.44866  -0.44693  -0.43454
 Alpha  occ. eigenvalues --   -0.41211  -0.40912  -0.39237  -0.37850  -0.37729
 Alpha  occ. eigenvalues --   -0.37497  -0.36992  -0.36958  -0.35995  -0.34667
 Alpha  occ. eigenvalues --   -0.34495  -0.33775  -0.33661  -0.33253  -0.32905
 Alpha  occ. eigenvalues --   -0.32430  -0.32235  -0.31964  -0.31644  -0.31034
 Alpha  occ. eigenvalues --   -0.30705  -0.29643  -0.25885  -0.24935
 Alpha virt. eigenvalues --    0.03398   0.03736   0.07033   0.07482   0.08702
 Alpha virt. eigenvalues --    0.09265   0.09964   0.10423   0.11121   0.11880
 Alpha virt. eigenvalues --    0.12923   0.14100   0.14154   0.14608   0.15038

 Mulliken charges:
               1
     1  N   -0.313249
     2  C    0.179350
     3  C    0.066686
     4  N   -0.259649
     5  C    0.136668
     6  H    0.026782
     7  N   -0.288049
     8  C    0.139391
     9  H    0.011649
    10  N   -0.287021
    11  C    0.242662
    12  C    0.099287
    13  N   -0.053145
    14  H    0.109573
    15  H    0.084394
    16  H    0.026676
    17  H    0.030274
    18  H    0.026173
    19  N   -0.288135
    20  C    0.226793
    21  C    0.180985
    22  N   -0.100880
    23  H    0.112692
    24  H    0.112932
    25  N   -0.300089
    26  C    0.214839
    27  N   -0.144722
    28  H    0.126192
    29  C    0.175996
    30  O   -0.323562
    31  C   -0.002404
    32  N   -0.222389
    33  C    0.126608
    34  H    0.016064
    35  H    0.026264
    36  H    0.026434
    37  H    0.021577
    38  H    0.060959
    39  H    0.058612
    40  H    0.070143
    41  H    0.026725
    42  C   -0.111127
    43  O   -0.267379
    44  C    0.170156
    45  H    0.131394
    46  N   -0.119875
    47  O   -0.335910
    48  C    0.333147
    49  H    0.046673
    50  C    0.170206
    51  C    0.035518
    52  N   -0.279665
    53  H    0.036046
    54  H    0.036411
    55  H    0.026624
    56  H    0.125283
    57  H    0.117853
    58  N   -0.059556
    59  C    0.093640
    60  C    0.238660
    61  N   -0.272154
    62  H    0.050192
    63  C    0.143654
    64  N   -0.298252
    65  H    0.037731
    66  C    0.115747
    67  N   -0.255831
    68  C    0.026364
    69  C    0.181718
    70  N   -0.297355
 Sum of Mulliken charges =  -0.00000

 Dipole moment (field-independent basis, Debye):
    X=             -7.0824    Y=              6.4025    Z=             -3.2631  Tot=             10.0896
 Quadrupole moment (field-independent basis, Debye-Ang):
   XX=           -149.1347   YY=           -224.8099   ZZ=           -257.0650
   XY=             -5.7023   XZ=              0.4900   YZ=             10.8586

 Normal termination of Gaussian 16 at Mon Jan 22 00:48:47 2018.
