 Gaussian 16, Revision A.03,
 Gaussian 16:  EM64L-G16RevA.03 25-Dec-2016

 ---------------------------------------
 #p wb97xd/cc-pvdz sp scf=(maxcycles=20)
 ---------------------------------------

 ------------------
 Base pair stacking
 ------------------
 Symbolic Z-matrix:
 Charge =  0 Multiplicity = 1

                         Standard orientation:
 ---------------------------------------------------------------------
 Center     Atomic      Atomic             Coordinates (Angstroms)
 Number     Number       Type             X           Y           Z
 ---------------------------------------------------------------------
      1          7           0       -6.848227   -1.251770    0.339916
      2          6           0       -8.180225   -0.657281    0.115471
      3          6           0       -4.697642   -1.521836    0.713222
      4          7           0       -5.234663   -2.795900    0.598777
      5          6           0       -6.508827   -2.582201    0.378455
      6          1           0       -7.253245   -3.365962    0.235352
      7          7           0       -3.193173    0.270917    1.005723
      8          6           0       -4.243412    1.080318    0.834143
      9          1           0       -4.023464    2.145593    0.889618
     10          7           0       -5.518574    0.772831    0.605398
     11          6           0       -5.680114   -0.559792    0.555949
     12          6           0       -3.388539   -1.064687    0.950285
     13          7           0       -2.341412   -1.874272    1.121321
     14          1           0       -2.439588   -2.869511    1.088333
     15          1           0       -1.423606   -1.513791    1.288158
     16          1           0       -8.809308   -0.966652    0.828710
     17          1           0       -8.110222    0.339434    0.143527
     18          1           0       -8.527501   -0.940292   -0.778562
     19          7           0       -2.837088    2.061879   -1.570675
     20          6           0       -1.490997    1.931804   -1.327402
     21          6           0       -3.634941    3.280241   -1.326346
     22          7           0        1.510956    3.286320   -0.224987
     23          1           0        2.460319    2.990473   -0.122901
     24          1           0        1.296116    4.224291    0.048433
     25          7           0       -0.677594    2.887482   -0.828291
     26          6           0        0.567647    2.462950   -0.706800
     27          7           0        0.986346    1.199565   -1.047464
     28          1           0        1.958208    0.962116   -0.920692
     29          6           0        0.166859    0.200167   -1.562753
     30          8           0        0.644899   -0.907357   -1.837674
     31          6           0       -1.173909    0.641385   -1.698966
     32          7           0       -2.298298   -0.025267   -2.166117
     33          6           0       -3.258302    0.854341   -2.071748
     34          1           0       -4.295882    0.673877   -2.354837
     35          1           0       -4.361898    3.078732   -0.670801
     36          1           0       -3.042989    3.995142   -0.956509
     37          1           0       -4.038410    3.594245   -2.185073
     38          1           0        6.766775    0.204463    0.547762
     39          1           0        7.112940    0.487387   -1.156582
     40          1           0        5.748577    1.299361   -0.388103
     41          1           0        5.537637   -4.055553   -1.319887
     42          6           0        5.136199   -3.045765   -1.233796
     43          8           0        2.919487   -3.681671   -1.789595
     44          6           0        3.744221   -2.822376   -1.479431
     45          1           0        2.363242   -1.312298   -1.509240
     46          7           0        3.340162   -1.509545   -1.343564
     47          8           0        3.672596    0.694730   -0.910125
     48          6           0        4.122441   -0.433588   -1.006064
     49          1           0        6.989397   -2.133193   -0.705894
     50          6           0        5.924530   -2.016409   -0.902799
     51          6           0        6.328028    0.388730   -0.421582
     52          7           0        5.453146   -0.729452   -0.784900
     53          1           0        3.783636    3.714996    2.470194
     54          1           0        2.685407    3.644577    1.265604
     55          1           0        4.270430    3.433502    0.938130
     56          1           0        1.000416   -3.146061    1.975142
     57          1           0        2.614761   -2.834968    2.430338
     58          7           0        1.741786   -2.484622    2.089180
     59          6           0        1.574778   -1.192582    1.799465
     60          6           0        2.260284    1.077322    1.601081
     61          7           0        1.076869    1.519551    1.144583
     62          1           0       -0.782531    0.787817    0.688708
     63          6           0        0.207238    0.515461    1.052642
     64          7           0        0.372591   -0.779269    1.342312
     65          1           0        5.346458    1.247819    2.549027
     66          6           0        4.337478    0.927616    2.287563
     67          7           0        3.900716   -0.304984    2.374819
     68          6           0        2.584925   -0.224048    1.942517
     69          6           0        3.546032    3.268406    1.607582
     70          7           0        3.397306    1.816508    1.826406
 ---------------------------------------------------------------------

 SCF Done:  E(RwB97XD) =  -2048.63278332     A.U. after   15 cycles

 The electronic state is 1-A.
 Alpha  occ. eigenvalues --  -19.25985 -19.21888 -19.20498 -14.52454 -14.51822
 Alpha  occ. eigenvalues --  -14.49617 -14.48502 -14.47891 -14.47227 -14.46030
 Alpha  occ. eigenvalues --  -14.45161 -14.44834 -14.43455 -14.43062 -14.42270
 Alpha  occ. eigenvalues --  -14.42135 -14.41966 -14.41894 -14.40958 -14.40639
 Alpha  occ. eigenvalues --  -10.45565 -10.41059 -10.40020 -10.38958 -10.38020
 Alpha  occ. eigenvalues --  -10.37713 -10.37453 -10.36350 -10.36310 -10.35626
 Alpha  occ. eigenvalues --  -10.34912 -10.34786 -10.34301 -10.34203 -10.33999
 Alpha  occ. eigenvalues --  -10.33848 -10.33028 -10.31707 -10.31659 -10.31009
 Alpha  occ. eigenvalues --  -10.30381 -10.29442 -10.28005  -1.19574  -1.14821
 Alpha  occ. eigenvalues --   -1.13422  -1.12940  -1.12220  -1.10476  -1.09351
 Alpha  occ. eigenvalues --   -1.09094  -1.08133  -1.05888  -1.03920  -1.02499
 Alpha  occ. eigenvalues --   -1.01367  -1.00941  -0.99538  -0.98587  -0.97801
 Alpha  occ. eigenvalues --   -0.96558  -0.95882  -0.93549  -0.91023  -0.87299
 Alpha  occ. eigenvalues --   -0.85999  -0.84828  -0.83969  -0.83842  -0.83136
 Alpha  occ. eigenvalues --   -0.82325  -0.78862  -0.76566  -0.75087  -0.74224
 Alpha  occ. eigenvalues --   -0.73805  -0.73525  -0.73378  -0.72048  -0.69993
 Alpha  occ. eigenvalues --   -0.67642  -0.67200  -0.66625  -0.66381  -0.64463
 Alpha  occ. eigenvalues --   -0.63928  -0.63750  -0.63510  -0.62954  -0.62145
 Alpha  occ. eigenvalues --   -0.61153  -0.60602  -0.59994  -0.59526  -0.59489
 Alpha  occ. eigenvalues --   -0.59122  -0.58027  -0.57944  -0.57192  -0.57094
 Alpha  occ. eigenvalues --   -0.56382  -0.56033  -0.55614  -0.54589  -0.54392
 Alpha  occ. eigenvalues --   -0.54110  -0.53526  -0.53159  -0.52752  -0.52631
 Alpha  occ. eigenvalues --   -0.52525  -0.52416  -0.51662  -0.51580  -0.50880
 Alpha  occ. eigenvalues --   -0.49977  -0.49926  -0.49487  -0.49408  -0.48647
 Alpha  occ. eigenvalues --   -0.48601  -0.48422  -0.48145  -0.47771  -0.47402
 Alpha  occ. eigenvalues --   -0.47265  -0.46121  -0.45675  -0.43938  -0.42791
 Alpha  occ. eigenvalues --   -0.42097  -0.40087  -0.39610  -0.38119  -0.37566
 Alpha  occ. eigenvalues --   -0.37262  -0.37115  -0.36187  -0.35738  -0.34890
 Alpha  occ. eigenvalues --   -0.34419  -0.34323  -0.33388  -0.33089  -0.32580
 Alpha  occ. eigenvalues --   -0.32361  -0.31890  -0.31779  -0.31653  -0.31374
 Alpha  occ. eigenvalues --   -0.30377  -0.27560  -0.26697  -0.25363
 Alpha virt. eigenvalues --    0.03210   0.04225   0.07080   0.07738   0.08725
 Alpha virt. eigenvalues --    0.08992   0.09288   0.10068   0.11475   0.12019
 Alpha virt. eigenvalues --    0.13082   0.13451   0.14272   0.14480   0.14664

 Mulliken charges:
               1
     1  N   -0.312629
     2  C    0.180454
     3  C    0.044127
     4  N   -0.259110
     5  C    0.134693
     6  H    0.029312
     7  N   -0.275313
     8  C    0.117978
     9  H    0.016440
    10  N   -0.288365
    11  C    0.237449
    12  C    0.111984
    13  N   -0.052871
    14  H    0.107250
    15  H    0.087468
    16  H    0.027462
    17  H    0.033982
    18  H    0.027654
    19  N   -0.296008
    20  C    0.223292
    21  C    0.176050
    22  N   -0.070955
    23  H    0.081674
    24  H    0.114572
    25  N   -0.273747
    26  C    0.203750
    27  N   -0.110183
    28  H    0.122283
    29  C    0.123511
    30  O   -0.318681
    31  C    0.027955
    32  N   -0.218737
    33  C    0.115557
    34  H    0.027265
    35  H    0.029399
    36  H    0.025933
    37  H    0.022864
    38  H    0.058952
    39  H    0.064145
    40  H    0.069608
    41  H    0.031356
    42  C   -0.112246
    43  O   -0.264922
    44  C    0.180967
    45  H    0.135250
    46  N   -0.135876
    47  O   -0.350205
    48  C    0.362055
    49  H    0.047157
    50  C    0.175953
    51  C    0.037427
    52  N   -0.291537
    53  H    0.034403
    54  H    0.003238
    55  H    0.031277
    56  H    0.119848
    57  H    0.117829
    58  N   -0.069917
    59  C    0.122120
    60  C    0.237170
    61  N   -0.293799
    62  H    0.069338
    63  C    0.171863
    64  N   -0.303085
    65  H    0.028353
    66  C    0.119408
    67  N   -0.256998
    68  C    0.009562
    69  C    0.185285
    70  N   -0.307738
 Sum of Mulliken charges =  -0.00000

 Dipole moment (field-independent basis, Debye):
    X=              6.1255    Y=              5.7175    Z=              4.0579  Tot=              9.3102
 Quadrupole moment (field-independent basis, Debye-Ang):
   XX=           -142.1930   YY=           -228.1407   ZZ=           -256.2848
   XY=             10.7433   XZ=             12.2313   YZ=            -11.8649

 Normal termination of Gaussian 16 at Mon Jan 22 12:11:26 2018.
