 Gaussian 16, Revision A.03,
 Gaussian 16:  EM64L-G16RevA.03 25-Dec-2016

 ---------------------------------------
 #p wb97xd/cc-pvdz sp scf=(maxcycles=20)
 ---------------------------------------

 ------------------
 Base pair stacking
 ------------------
 Symbolic Z-matrix:
 Charge =  0 Multiplicity = 1

                         Standard orientation:
 ---------------------------------------------------------------------
 Center     Atomic      Atomic             Coordinates (Angstroms)
 Number     Number       Type             X           Y           Z
 ---------------------------------------------------------------------
      1          7           0        4.882649   -1.794060   -1.580833
      2          6           0        6.247442   -1.328136   -1.894278
      3          6           0        2.700102   -1.907296   -1.333854
      4          7           0        3.204235   -3.121804   -0.891655
      5          6           0        4.498964   -3.004972   -1.058143
      6          1           0        5.227731   -3.778472   -0.814148
      7          7           0        1.233645   -0.150652   -1.905400
      8          6           0        2.320131    0.532308   -2.280496
      9          1           0        2.130204    1.533194   -2.665727
     10          7           0        3.599997    0.166249   -2.251295
     11          6           0        3.722726   -1.078604   -1.761695
     12          6           0        1.390489   -1.400418   -1.416962
     13          7           0        0.307141   -2.083753   -1.042012
     14          1           0        0.376083   -3.012001   -0.674837
     15          1           0       -0.609804   -1.691345   -1.115296
     16          1           0        6.662183   -1.937557   -2.570125
     17          1           0        6.207029   -0.400305   -2.263908
     18          1           0        6.801794   -1.329695   -1.062002
     19          7           0        4.918029    2.058648    0.912473
     20          6           0        3.547084    2.009828    0.990984
     21          6           0        5.709997    3.248296    0.540692
     22          7           0        0.459949    3.573537    0.697411
     23          1           0       -0.503252    3.331511    0.810945
     24          1           0        0.662181    4.514171    0.423493
     25          7           0        2.699965    3.032210    0.743685
     26          6           0        1.437219    2.677665    0.903001
     27          7           0        1.032889    1.418716    1.275933
     28          1           0        0.045672    1.237473    1.373533
     29          6           0        1.887007    0.351485    1.535506
     30          8           0        1.419322   -0.745278    1.865855
     31          6           0        3.246907    0.717081    1.368492
     32          7           0        4.406078   -0.030635    1.523846
     33          6           0        5.369596    0.804419    1.243622
     34          1           0        6.431414    0.556553    1.263105
     35          1           0        6.248537    3.049908   -0.277489
     36          1           0        5.093153    4.012078    0.355185
     37          1           0        6.322714    3.491013    1.292016
     38          1           0       -5.010784    0.806099    1.059188
     39          1           0       -4.928338    1.005271    2.807960
     40          1           0       -3.735272    1.792468    1.774382
     41          1           0       -3.643407   -3.611767    2.385555
     42          6           0       -3.211674   -2.619770    2.252215
     43          8           0       -0.970212   -3.396064    2.234961
     44          6           0       -1.789878   -2.480307    2.169297
     45          1           0       -0.349767   -1.044744    1.937902
     46          7           0       -1.348544   -1.183356    2.000784
     47          8           0       -1.636324    1.056296    1.759270
     48          6           0       -2.120027   -0.052071    1.908308
     49          1           0       -5.076832   -1.587236    2.222559
     50          6           0       -3.990396   -1.535027    2.165387
     51          6           0       -4.345894    0.911223    1.903535
     52          7           0       -3.481123   -0.268258    1.997100
     53          1           0       -5.762547    3.421141   -2.894239
     54          1           0       -4.395928    3.630846   -2.027950
     55          1           0       -5.850829    3.741807   -1.296496
     56          1           0       -3.183745   -3.147147   -0.597968
     57          1           0       -4.849086   -2.813078   -0.756482
     58          7           0       -3.906348   -2.478092   -0.772180
     59          6           0       -3.626335   -1.195929   -1.014757
     60          6           0       -4.159564    1.071615   -1.500151
     61          7           0       -2.884236    1.493207   -1.515034
     62          1           0       -0.996486    0.737124   -1.259429
     63          6           0       -2.055191    0.481480   -1.266055
     64          7           0       -2.333696   -0.803381   -1.022848
     65          1           0       -7.377755    1.288451   -1.720228
     66          6           0       -6.347128    0.954596   -1.596559
     67          7           0       -5.990002   -0.277717   -1.329075
     68          6           0       -4.605428   -0.217405   -1.265285
     69          6           0       -5.327833    3.269992   -2.006453
     70          7           0       -5.290203    1.824041   -1.713511
 ---------------------------------------------------------------------

 SCF Done:  E(RwB97XD) =  -2048.74957792     A.U. after   15 cycles

 The electronic state is 1-A.
 Alpha  occ. eigenvalues --  -19.25565 -19.21838 -19.20602 -14.52601 -14.52175
 Alpha  occ. eigenvalues --  -14.48976 -14.48333 -14.48204 -14.47479 -14.46860
 Alpha  occ. eigenvalues --  -14.46689 -14.45584 -14.44540 -14.44460 -14.42341
 Alpha  occ. eigenvalues --  -14.42071 -14.41226 -14.40803 -14.40769 -14.40302
 Alpha  occ. eigenvalues --  -10.45163 -10.41282 -10.40167 -10.39908 -10.38259
 Alpha  occ. eigenvalues --  -10.38116 -10.37540 -10.37375 -10.36031 -10.35364
 Alpha  occ. eigenvalues --  -10.34723 -10.34499 -10.33963 -10.33652 -10.33541
 Alpha  occ. eigenvalues --  -10.33010 -10.32965 -10.32836 -10.31078 -10.30797
 Alpha  occ. eigenvalues --  -10.30630 -10.28256 -10.28196  -1.19137  -1.15362
 Alpha  occ. eigenvalues --   -1.13234  -1.12828  -1.10819  -1.10725  -1.09569
 Alpha  occ. eigenvalues --   -1.09001  -1.08589  -1.05021  -1.04921  -1.02163
 Alpha  occ. eigenvalues --   -1.01117  -1.00332  -0.99766  -0.98618  -0.97087
 Alpha  occ. eigenvalues --   -0.96765  -0.96480  -0.92630  -0.90794  -0.87788
 Alpha  occ. eigenvalues --   -0.86016  -0.84274  -0.83562  -0.83289  -0.82647
 Alpha  occ. eigenvalues --   -0.81980  -0.78625  -0.77212  -0.75005  -0.74743
 Alpha  occ. eigenvalues --   -0.73679  -0.73059  -0.72661  -0.70835  -0.70556
 Alpha  occ. eigenvalues --   -0.67461  -0.66985  -0.66267  -0.66062  -0.64452
 Alpha  occ. eigenvalues --   -0.64371  -0.63709  -0.62681  -0.62512  -0.61861
 Alpha  occ. eigenvalues --   -0.60803  -0.60561  -0.60355  -0.59512  -0.59274
 Alpha  occ. eigenvalues --   -0.59031  -0.58407  -0.56857  -0.56369  -0.55875
 Alpha  occ. eigenvalues --   -0.55827  -0.55495  -0.55258  -0.54383  -0.54118
 Alpha  occ. eigenvalues --   -0.53781  -0.53636  -0.53560  -0.53091  -0.53035
 Alpha  occ. eigenvalues --   -0.52878  -0.52124  -0.51464  -0.50442  -0.50235
 Alpha  occ. eigenvalues --   -0.50173  -0.49852  -0.49333  -0.49238  -0.48887
 Alpha  occ. eigenvalues --   -0.48690  -0.48431  -0.48338  -0.47861  -0.47273
 Alpha  occ. eigenvalues --   -0.46688  -0.45821  -0.45471  -0.44548  -0.43022
 Alpha  occ. eigenvalues --   -0.40955  -0.40857  -0.39202  -0.37947  -0.37768
 Alpha  occ. eigenvalues --   -0.37412  -0.37354  -0.36845  -0.35803  -0.34915
 Alpha  occ. eigenvalues --   -0.34481  -0.34066  -0.33254  -0.33195  -0.32931
 Alpha  occ. eigenvalues --   -0.32755  -0.32627  -0.32110  -0.31942  -0.30587
 Alpha  occ. eigenvalues --   -0.30298  -0.29714  -0.25643  -0.25586
 Alpha virt. eigenvalues --    0.03122   0.03845   0.06576   0.08192   0.08967
 Alpha virt. eigenvalues --    0.09170   0.09666   0.10366   0.11168   0.12015
 Alpha virt. eigenvalues --    0.13038   0.14023   0.14499   0.14687   0.14728

 Mulliken charges:
               1
     1  N   -0.308359
     2  C    0.180394
     3  C    0.058218
     4  N   -0.256954
     5  C    0.145998
     6  H    0.026352
     7  N   -0.293896
     8  C    0.130599
     9  H    0.010659
    10  N   -0.284897
    11  C    0.247830
    12  C    0.087570
    13  N   -0.057868
    14  H    0.115315
    15  H    0.084302
    16  H    0.024532
    17  H    0.029307
    18  H    0.024106
    19  N   -0.307958
    20  C    0.263075
    21  C    0.182274
    22  N   -0.123823
    23  H    0.119378
    24  H    0.118034
    25  N   -0.311624
    26  C    0.248038
    27  N   -0.142149
    28  H    0.117712
    29  C    0.188975
    30  O   -0.321447
    31  C   -0.016843
    32  N   -0.225651
    33  C    0.117864
    34  H    0.020986
    35  H    0.027200
    36  H    0.030304
    37  H    0.024039
    38  H    0.064887
    39  H    0.058974
    40  H    0.074908
    41  H    0.022350
    42  C   -0.113005
    43  O   -0.268487
    44  C    0.168857
    45  H    0.130711
    46  N   -0.120151
    47  O   -0.346614
    48  C    0.345707
    49  H    0.043910
    50  C    0.166549
    51  C    0.039927
    52  N   -0.276053
    53  H    0.034597
    54  H    0.040886
    55  H    0.028354
    56  H    0.124187
    57  H    0.115227
    58  N   -0.052679
    59  C    0.092179
    60  C    0.231881
    61  N   -0.268387
    62  H    0.029874
    63  C    0.171803
    64  N   -0.312910
    65  H    0.037884
    66  C    0.129946
    67  N   -0.255923
    68  C    0.010184
    69  C    0.181544
    70  N   -0.302705
 Sum of Mulliken charges =  -0.00000

 Dipole moment (field-independent basis, Debye):
    X=             -7.2479    Y=              7.1714    Z=             -1.6184  Tot=             10.3238
 Quadrupole moment (field-independent basis, Debye-Ang):
   XX=           -154.2709   YY=           -222.5968   ZZ=           -254.5105
   XY=             -1.3437   XZ=            -10.1836   YZ=              7.3492

 Normal termination of Gaussian 16 at Mon Jan 22 16:16:52 2018.
