 Gaussian 16, Revision A.03,
 Gaussian 16:  EM64L-G16RevA.03 25-Dec-2016

 ---------------------------------------
 #p wb97xd/cc-pvdz sp scf=(maxcycles=20)
 ---------------------------------------

 ------------------
 Base pair stacking
 ------------------
 Symbolic Z-matrix:
 Charge =  0 Multiplicity = 1

                         Standard orientation:
 ---------------------------------------------------------------------
 Center     Atomic      Atomic             Coordinates (Angstroms)
 Number     Number       Type             X           Y           Z
 ---------------------------------------------------------------------
      1          7           0        4.577553   -1.611680   -1.778209
      2          6           0        5.946221   -1.107246   -2.002435
      3          6           0        2.394261   -1.750202   -1.551617
      4          7           0        2.887877   -3.030158   -1.344810
      5          6           0        4.183475   -2.895484   -1.489606
      6          1           0        4.905502   -3.707161   -1.395810
      7          7           0        0.943090    0.094771   -1.782169
      8          6           0        2.035352    0.826318   -2.025855
      9          1           0        1.854067    1.883084   -2.217255
     10          7           0        3.311925    0.450231   -2.068402
     11          6           0        3.423914   -0.865096   -1.819796
     12          6           0        1.089142   -1.225463   -1.535713
     13          7           0        0.000011   -1.957380   -1.292241
     14          1           0        0.060945   -2.938384   -1.104765
     15          1           0       -0.913454   -1.550310   -1.288941
     16          1           0        6.355080   -1.583497   -2.781030
     17          1           0        5.913822   -0.126450   -2.192479
     18          1           0        6.501107   -1.268756   -1.186345
     19          7           0        5.214650    1.873951    0.842311
     20          6           0        3.844559    1.825250    0.934680
     21          6           0        6.004399    3.070427    0.488170
     22          7           0        0.756894    3.399180    0.709264
     23          1           0       -0.205400    3.156014    0.827962
     24          1           0        0.957621    4.345344    0.453911
     25          7           0        2.996416    2.853964    0.719186
     26          6           0        1.734923    2.497685    0.884439
     27          7           0        1.332681    1.231381    1.233981
     28          1           0        0.346308    1.049362    1.338330
     29          6           0        2.187877    0.157554    1.460685
     30          8           0        1.722088   -0.945582    1.771917
     31          6           0        3.546465    0.524915    1.286925
     32          7           0        4.706068   -0.227600    1.413150
     33          6           0        5.667799    0.612128    1.140857
     34          1           0        6.729368    0.362471    1.143294
     35          1           0        6.533694    2.889365   -0.340006
     36          1           0        5.386787    3.838928    0.326250
     37          1           0        6.625632    3.295726    1.237922
     38          1           0       -4.713953    0.631798    1.069761
     39          1           0       -4.612179    0.792326    2.821479
     40          1           0       -3.429175    1.600477    1.792517
     41          1           0       -3.339214   -3.816024    2.283656
     42          6           0       -2.907398   -2.821912    2.167464
     43          8           0       -0.667485   -3.600647    2.108677
     44          6           0       -1.486363   -2.682564    2.072129
     45          1           0       -0.046586   -1.244191    1.856663
     46          7           0       -1.044833   -1.382815    1.927366
     47          8           0       -1.331679    0.861997    1.738323
     48          6           0       -1.815492   -0.248740    1.868216
     49          1           0       -4.771128   -1.786471    2.180870
     50          6           0       -3.685288   -1.734473    2.113011
     51          6           0       -4.039747    0.717415    1.908912
     52          7           0       -3.175890   -0.464995    1.967083
     53          1           0       -6.021745    3.848396   -2.071398
     54          1           0       -4.652724    3.881105   -1.184370
     55          1           0       -6.106093    3.866230   -0.441676
     56          1           0       -3.499880   -3.054836   -1.046187
     57          1           0       -5.162292   -2.682748   -1.135759
     58          7           0       -4.216627   -2.358838   -1.090900
     59          6           0       -3.925391   -1.056395   -1.090792
     60          6           0       -4.438771    1.266402   -1.143597
     61          7           0       -3.159756    1.672380   -1.082568
     62          1           0       -1.278624    0.865665   -0.976817
     63          6           0       -2.339571    0.624862   -1.028534
     64          7           0       -2.629320   -0.680368   -1.028542
     65          1           0       -7.655055    1.548162   -1.311917
     66          6           0       -6.627353    1.188234   -1.255059
     67          7           0       -6.281013   -0.075366   -1.222888
     68          6           0       -4.895920   -0.039924   -1.152183
     69          6           0       -5.587795    3.530604   -1.228380
     70          7           0       -5.562812    2.055121   -1.210291
 ---------------------------------------------------------------------

 SCF Done:  E(RwB97XD) =  -2048.74843596     A.U. after   15 cycles

 The electronic state is 1-A.
 Alpha  occ. eigenvalues --  -19.25297 -19.21439 -19.20537 -14.52799 -14.51771
 Alpha  occ. eigenvalues --  -14.49013 -14.48737 -14.48328 -14.47234 -14.46713
 Alpha  occ. eigenvalues --  -14.46618 -14.45711 -14.44884 -14.44752 -14.42837
 Alpha  occ. eigenvalues --  -14.41998 -14.41317 -14.41076 -14.40945 -14.40608
 Alpha  occ. eigenvalues --  -10.44863 -10.41180 -10.40507 -10.39556 -10.38262
 Alpha  occ. eigenvalues --  -10.38184 -10.37603 -10.37300 -10.36321 -10.35711
 Alpha  occ. eigenvalues --  -10.34455 -10.34107 -10.34101 -10.33721 -10.33700
 Alpha  occ. eigenvalues --  -10.33208 -10.33185 -10.33071 -10.31136 -10.30563
 Alpha  occ. eigenvalues --  -10.30560 -10.28452 -10.28216  -1.18871  -1.15586
 Alpha  occ. eigenvalues --   -1.13175  -1.12461  -1.10979  -1.10729  -1.09863
 Alpha  occ. eigenvalues --   -1.08694  -1.08503  -1.05332  -1.05238  -1.01860
 Alpha  occ. eigenvalues --   -1.01301  -1.00690  -0.99683  -0.98566  -0.97403
 Alpha  occ. eigenvalues --   -0.96778  -0.96651  -0.92953  -0.90487  -0.88074
 Alpha  occ. eigenvalues --   -0.86209  -0.84279  -0.83724  -0.82930  -0.82645
 Alpha  occ. eigenvalues --   -0.82091  -0.78316  -0.77461  -0.75285  -0.74711
 Alpha  occ. eigenvalues --   -0.73602  -0.72921  -0.72769  -0.71095  -0.70821
 Alpha  occ. eigenvalues --   -0.67403  -0.67229  -0.66321  -0.65999  -0.64640
 Alpha  occ. eigenvalues --   -0.64340  -0.63501  -0.62786  -0.62593  -0.61813
 Alpha  occ. eigenvalues --   -0.61066  -0.60762  -0.60584  -0.59781  -0.59079
 Alpha  occ. eigenvalues --   -0.58884  -0.58330  -0.57033  -0.56588  -0.55828
 Alpha  occ. eigenvalues --   -0.55804  -0.55648  -0.55514  -0.54737  -0.54106
 Alpha  occ. eigenvalues --   -0.53933  -0.53720  -0.53342  -0.53172  -0.52975
 Alpha  occ. eigenvalues --   -0.52160  -0.51752  -0.51577  -0.50492  -0.50412
 Alpha  occ. eigenvalues --   -0.50166  -0.50026  -0.49606  -0.49095  -0.48901
 Alpha  occ. eigenvalues --   -0.48803  -0.48170  -0.47975  -0.47877  -0.47109
 Alpha  occ. eigenvalues --   -0.46880  -0.45717  -0.45569  -0.44763  -0.42873
 Alpha  occ. eigenvalues --   -0.41317  -0.41071  -0.39008  -0.38204  -0.38024
 Alpha  occ. eigenvalues --   -0.37425  -0.37293  -0.37031  -0.35513  -0.35165
 Alpha  occ. eigenvalues --   -0.34787  -0.34136  -0.33479  -0.33412  -0.32932
 Alpha  occ. eigenvalues --   -0.32543  -0.32511  -0.31891  -0.31370  -0.30679
 Alpha  occ. eigenvalues --   -0.30531  -0.30345  -0.25932  -0.25560
 Alpha virt. eigenvalues --    0.03291   0.03825   0.06319   0.07865   0.08899
 Alpha virt. eigenvalues --    0.09203   0.09777   0.10216   0.10864   0.12056
 Alpha virt. eigenvalues --    0.13210   0.14047   0.14342   0.14586   0.14627

 Mulliken charges:
               1
     1  N   -0.306212
     2  C    0.181634
     3  C    0.061426
     4  N   -0.258684
     5  C    0.149136
     6  H    0.027848
     7  N   -0.289726
     8  C    0.123233
     9  H    0.012586
    10  N   -0.275794
    11  C    0.244966
    12  C    0.082198
    13  N   -0.063413
    14  H    0.114411
    15  H    0.083482
    16  H    0.024479
    17  H    0.028047
    18  H    0.026064
    19  N   -0.306825
    20  C    0.267391
    21  C    0.183302
    22  N   -0.120168
    23  H    0.121853
    24  H    0.117734
    25  N   -0.305124
    26  C    0.228643
    27  N   -0.128042
    28  H    0.118239
    29  C    0.178548
    30  O   -0.320597
    31  C   -0.014444
    32  N   -0.226568
    33  C    0.110640
    34  H    0.022343
    35  H    0.024748
    36  H    0.030957
    37  H    0.024317
    38  H    0.067501
    39  H    0.055089
    40  H    0.075749
    41  H    0.023133
    42  C   -0.113228
    43  O   -0.266754
    44  C    0.172430
    45  H    0.132129
    46  N   -0.124483
    47  O   -0.347450
    48  C    0.346472
    49  H    0.043485
    50  C    0.165831
    51  C    0.042606
    52  N   -0.276122
    53  H    0.034997
    54  H    0.040595
    55  H    0.029729
    56  H    0.121308
    57  H    0.118627
    58  N   -0.058850
    59  C    0.092362
    60  C    0.210733
    61  N   -0.260229
    62  H    0.023242
    63  C    0.175645
    64  N   -0.310422
    65  H    0.039548
    66  C    0.133563
    67  N   -0.252198
    68  C    0.012603
    69  C    0.181315
    70  N   -0.301584
 Sum of Mulliken charges =  -0.00000

 Dipole moment (field-independent basis, Debye):
    X=             -7.2493    Y=              7.2167    Z=             -1.7157  Tot=             10.3719
 Quadrupole moment (field-independent basis, Debye-Ang):
   XX=           -156.1769   YY=           -224.4282   ZZ=           -253.9965
   XY=              1.4538   XZ=            -14.0547   YZ=             11.4926

 Normal termination of Gaussian 16 at Mon Jan 22 16:40:25 2018.
