 Gaussian 16, Revision A.03,
 Gaussian 16:  EM64L-G16RevA.03 25-Dec-2016

 ---------------------------------------
 #p wb97xd/cc-pvdz sp scf=(maxcycles=20)
 ---------------------------------------

 ------------------
 Base pair stacking
 ------------------
 Symbolic Z-matrix:
 Charge =  0 Multiplicity = 1

                         Standard orientation:
 ---------------------------------------------------------------------
 Center     Atomic      Atomic             Coordinates (Angstroms)
 Number     Number       Type             X           Y           Z
 ---------------------------------------------------------------------
      1          7           0        4.845756   -1.904664   -1.183984
      2          6           0        6.151784   -1.533434   -1.762322
      3          6           0        2.693216   -2.031037   -0.750492
      4          7           0        3.316049   -2.919362    0.114203
      5          6           0        4.587938   -2.807668   -0.181566
      6          1           0        5.388840   -3.365464    0.304610
      7          7           0        1.061353   -0.760581   -1.884477
      8          6           0        2.069459   -0.234284   -2.587550
      9          1           0        1.779804    0.502199   -3.335855
     10          7           0        3.375521   -0.480003   -2.505438
     11          6           0        3.623247   -1.398222   -1.556782
     12          6           0        1.343402   -1.681766   -0.937404
     13          7           0        0.338440   -2.208272   -0.234531
     14          1           0        0.500785   -2.893400    0.476428
     15          1           0       -0.610443   -1.935989   -0.394563
     16          1           0        6.586173   -2.343872   -2.155627
     17          1           0        6.017778   -0.848067   -2.477465
     18          1           0        6.740132   -1.155927   -1.047248
     19          7           0        5.253713    1.583990    0.522350
     20          6           0        3.893307    1.775682    0.497999
     21          6           0        6.247895    2.433009   -0.164283
     22          7           0        1.130081    3.590389   -0.566524
     23          1           0        0.137031    3.553420   -0.458318
     24          1           0        1.498174    4.333459   -1.126060
     25          7           0        3.241475    2.763923   -0.152040
     26          6           0        1.932923    2.684669    0.012300
     27          7           0        1.308496    1.712765    0.755944
     28          1           0        0.302672    1.730095    0.826550
     29          6           0        1.959179    0.686293    1.433315
     30          8           0        1.301374   -0.140861    2.076630
     31          6           0        3.365501    0.758226    1.266117
     32          7           0        4.374256   -0.055849    1.762706
     33          6           0        5.473972    0.471121    1.296731
     34          1           0        6.476394    0.086580    1.487930
     35          1           0        6.764708    1.881605   -0.818240
     36          1           0        5.776715    3.168574   -0.649272
     37          1           0        6.874077    2.826185    0.508119
     38          1           0       -4.742945    1.993901    0.256513
     39          1           0       -4.671630    2.776162    1.833743
     40          1           0       -3.335072    2.960733    0.697550
     41          1           0       -4.190924   -1.836103    3.115349
     42          6           0       -3.591549   -1.031506    2.689187
     43          8           0       -1.517590   -2.097616    3.124173
     44          6           0       -2.165353   -1.148709    2.682831
     45          1           0       -0.494100   -0.122317    2.098208
     46          7           0       -1.503096   -0.075944    2.120828
     47          8           0       -1.394603    1.954239    1.109008
     48          6           0       -2.065594    1.055481    1.585110
     49          1           0       -5.249622    0.197627    2.154542
     50          6           0       -4.169334    0.059969    2.173971
     51          6           0       -4.091422    2.284397    1.067190
     52          7           0       -3.445389    1.094542    1.628115
     53          1           0       -6.245673    1.662062   -3.733892
     54          1           0       -4.864887    2.292517   -3.135527
     55          1           0       -6.290644    2.613592   -2.408760
     56          1           0       -3.028477   -3.190394    0.867066
     57          1           0       -4.721262   -3.049945    0.709431
     58          7           0       -3.811451   -2.697912    0.486849
     59          6           0       -3.650575   -1.619578   -0.282869
     60          6           0       -4.392374    0.204386   -1.618770
     61          7           0       -3.158671    0.654604   -1.901078
     62          1           0       -1.204913    0.184655   -1.497860
     63          6           0       -2.237792   -0.111423   -1.319623
     64          7           0       -2.396910   -1.191863   -0.548330
     65          1           0       -7.623940    0.122790   -1.668313
     66          6           0       -6.564579   -0.068789   -1.495134
     67          7           0       -6.094246   -1.054590   -0.770802
     68          6           0       -4.718125   -0.893008   -0.840873
     69          6           0       -5.761492    1.920065   -2.897833
     70          7           0       -5.590238    0.732536   -2.038509
 ---------------------------------------------------------------------

 SCF Done:  E(RwB97XD) =  -2048.74803608     A.U. after   15 cycles

 The electronic state is 1-A.
 Alpha  occ. eigenvalues --  -19.25393 -19.22007 -19.20746 -14.52614 -14.51881
 Alpha  occ. eigenvalues --  -14.49227 -14.48535 -14.47879 -14.47417 -14.46953
 Alpha  occ. eigenvalues --  -14.46770 -14.45507 -14.44541 -14.44469 -14.42371
 Alpha  occ. eigenvalues --  -14.42124 -14.41376 -14.41037 -14.40897 -14.40512
 Alpha  occ. eigenvalues --  -10.44969 -10.41356 -10.39942 -10.39929 -10.38395
 Alpha  occ. eigenvalues --  -10.38076 -10.37361 -10.36952 -10.35997 -10.35528
 Alpha  occ. eigenvalues --  -10.34723 -10.34651 -10.34005 -10.33828 -10.33729
 Alpha  occ. eigenvalues --  -10.33296 -10.33211 -10.32829 -10.31373 -10.31095
 Alpha  occ. eigenvalues --  -10.30639 -10.28433 -10.28428  -1.18967  -1.15356
 Alpha  occ. eigenvalues --   -1.13370  -1.12926  -1.11113  -1.10915  -1.09451
 Alpha  occ. eigenvalues --   -1.08808  -1.08659  -1.05147  -1.04889  -1.02115
 Alpha  occ. eigenvalues --   -1.01054  -1.00486  -0.99860  -0.98737  -0.97040
 Alpha  occ. eigenvalues --   -0.96953  -0.96687  -0.92827  -0.90552  -0.87758
 Alpha  occ. eigenvalues --   -0.86000  -0.84472  -0.83848  -0.83194  -0.82860
 Alpha  occ. eigenvalues --   -0.82295  -0.78402  -0.77114  -0.74956  -0.74904
 Alpha  occ. eigenvalues --   -0.73778  -0.72961  -0.72858  -0.71054  -0.70460
 Alpha  occ. eigenvalues --   -0.67584  -0.66880  -0.66281  -0.66095  -0.64545
 Alpha  occ. eigenvalues --   -0.64272  -0.63648  -0.62759  -0.62705  -0.61975
 Alpha  occ. eigenvalues --   -0.60800  -0.60561  -0.60371  -0.59529  -0.59022
 Alpha  occ. eigenvalues --   -0.58896  -0.58502  -0.57412  -0.56569  -0.56035
 Alpha  occ. eigenvalues --   -0.55803  -0.55575  -0.55292  -0.54332  -0.54106
 Alpha  occ. eigenvalues --   -0.53852  -0.53705  -0.53599  -0.53271  -0.53154
 Alpha  occ. eigenvalues --   -0.52874  -0.52008  -0.51746  -0.50697  -0.50396
 Alpha  occ. eigenvalues --   -0.50353  -0.49996  -0.49498  -0.49148  -0.48906
 Alpha  occ. eigenvalues --   -0.48898  -0.48516  -0.48166  -0.48052  -0.47344
 Alpha  occ. eigenvalues --   -0.46944  -0.45984  -0.45471  -0.44809  -0.42663
 Alpha  occ. eigenvalues --   -0.41119  -0.40816  -0.39105  -0.38122  -0.37648
 Alpha  occ. eigenvalues --   -0.37480  -0.37383  -0.37028  -0.35944  -0.34721
 Alpha  occ. eigenvalues --   -0.34410  -0.34125  -0.33452  -0.33352  -0.33224
 Alpha  occ. eigenvalues --   -0.32899  -0.32672  -0.31987  -0.31452  -0.30871
 Alpha  occ. eigenvalues --   -0.30483  -0.29923  -0.26316  -0.25190
 Alpha virt. eigenvalues --    0.03121   0.04138   0.07153   0.07853   0.08639
 Alpha virt. eigenvalues --    0.08931   0.09642   0.10357   0.11008   0.12170
 Alpha virt. eigenvalues --    0.12981   0.13264   0.14226   0.14545   0.14899

 Mulliken charges:
               1
     1  N   -0.303190
     2  C    0.181916
     3  C    0.053189
     4  N   -0.246182
     5  C    0.145995
     6  H    0.024715
     7  N   -0.293240
     8  C    0.130295
     9  H    0.009834
    10  N   -0.284562
    11  C    0.235853
    12  C    0.080618
    13  N   -0.049638
    14  H    0.117215
    15  H    0.085940
    16  H    0.026395
    17  H    0.033321
    18  H    0.011856
    19  N   -0.308891
    20  C    0.260542
    21  C    0.183060
    22  N   -0.124457
    23  H    0.118777
    24  H    0.119067
    25  N   -0.310146
    26  C    0.248654
    27  N   -0.143422
    28  H    0.120956
    29  C    0.187225
    30  O   -0.320735
    31  C   -0.015118
    32  N   -0.215537
    33  C    0.109677
    34  H    0.022927
    35  H    0.020775
    36  H    0.032817
    37  H    0.025529
    38  H    0.050151
    39  H    0.056680
    40  H    0.075545
    41  H    0.016430
    42  C   -0.099220
    43  O   -0.275762
    44  C    0.167653
    45  H    0.129058
    46  N   -0.112533
    47  O   -0.351202
    48  C    0.337374
    49  H    0.044521
    50  C    0.162671
    51  C    0.047923
    52  N   -0.275943
    53  H    0.035697
    54  H    0.042275
    55  H    0.027308
    56  H    0.125508
    57  H    0.115888
    58  N   -0.050830
    59  C    0.086475
    60  C    0.219078
    61  N   -0.262086
    62  H    0.030757
    63  C    0.165271
    64  N   -0.305371
    65  H    0.037768
    66  C    0.132374
    67  N   -0.256618
    68  C    0.038204
    69  C    0.178993
    70  N   -0.306067
 Sum of Mulliken charges =  -0.00000

 Dipole moment (field-independent basis, Debye):
    X=             -5.8767    Y=              6.5492    Z=             -4.2320  Tot=              9.7640
 Quadrupole moment (field-independent basis, Debye-Ang):
   XX=           -148.3721   YY=           -224.2758   ZZ=           -258.6586
   XY=             -8.3369   XZ=             -4.3383   YZ=             -1.6996

 Normal termination of Gaussian 16 at Fri Jan 19 16:08:46 2018.
