 Gaussian 16, Revision A.03,
 Gaussian 16:  EM64L-G16RevA.03 25-Dec-2016

 ---------------------------------------
 #p wb97xd/cc-pvdz sp scf=(maxcycles=20)
 ---------------------------------------

 ------------------
 Base pair stacking
 ------------------
 Symbolic Z-matrix:
 Charge =  0 Multiplicity = 1

                         Standard orientation:
 ---------------------------------------------------------------------
 Center     Atomic      Atomic             Coordinates (Angstroms)
 Number     Number       Type             X           Y           Z
 ---------------------------------------------------------------------
      1          7           0        6.019857   -1.036220   -0.837804
      2          6           0        7.325813   -0.348910   -0.827168
      3          6           0        3.866662   -1.466297   -0.964707
      4          7           0        4.491195   -2.680640   -0.719629
      5          6           0        5.763414   -2.372929   -0.652995
      6          1           0        6.565544   -3.088388   -0.469527
      7          7           0        2.232076    0.185336   -1.368682
      8          6           0        3.239725    1.062900   -1.414474
      9          1           0        2.948756    2.095704   -1.601293
     10          7           0        4.546709    0.857180   -1.264862
     11          6           0        4.796039   -0.443498   -1.040130
     12          6           0        2.515741   -1.115697   -1.140810
     13          7           0        1.511242   -1.993220   -1.094736
     14          1           0        1.674765   -2.966307   -0.928677
     15          1           0        0.561533   -1.708033   -1.224560
     16          1           0        7.909856   -0.728897   -1.544579
     17          1           0        7.190628    0.627789   -0.991235
     18          1           0        7.765603   -0.478137    0.061581
     19          7           0        4.074606    1.390720    1.296965
     20          6           0        2.716413    1.508498    1.125266
     21          6           0        5.078207    2.388075    0.874139
     22          7           0       -0.026422    3.308945   -0.013590
     23          1           0       -1.019843    3.201158   -0.040868
     24          1           0        0.349936    4.147807   -0.407797
     25          7           0        2.075637    2.546779    0.546096
     26          6           0        0.766264    2.371286    0.527091
     27          7           0        0.131037    1.264400    1.035810
     28          1           0       -0.874546    1.215212    0.977826
     29          6           0        0.770235    0.184160    1.636115
     30          8           0        0.103245   -0.766431    2.062992
     31          6           0        2.177284    0.358267    1.663881
     32          7           0        3.176906   -0.465067    2.163669
     33          6           0        4.282442    0.186679    1.924456
     34          1           0        5.280520   -0.166594    2.185836
     35          1           0        5.708640    1.972189    0.219625
     36          1           0        4.615255    3.161826    0.443734
     37          1           0        5.588937    2.708102    1.671353
     38          1           0       -5.821694    1.283909   -0.194206
     39          1           0       -5.997040    1.819302    1.475307
     40          1           0       -4.551762    2.248428    0.559672
     41          1           0       -5.333521   -2.900783    2.128841
     42          6           0       -4.748619   -2.008781    1.904213
     43          8           0       -2.668381   -3.012616    2.444602
     44          6           0       -3.327119   -2.044739    2.065031
     45          1           0       -1.678421   -0.850547    1.855227
     46          7           0       -2.683550   -0.863930    1.753959
     47          8           0       -2.605273    1.299633    1.068369
     48          6           0       -3.260095    0.303152    1.319144
     49          1           0       -6.417232   -0.805932    1.343234
     50          6           0       -5.339784   -0.885091    1.481777
     51          6           0       -5.294797    1.482938    0.727115
     52          7           0       -4.634254    0.258964    1.188996
     53          1           0       -5.048737    3.019168   -2.649846
     54          1           0       -3.849147    3.183730   -1.556232
     55          1           0       -5.383729    2.944424   -1.054344
     56          1           0       -1.804061   -3.543775   -1.439355
     57          1           0       -3.467919   -3.385171   -1.780710
     58          7           0       -2.592908   -2.944669   -1.576920
     59          6           0       -2.483946   -1.617195   -1.492571
     60          6           0       -3.292439    0.619706   -1.558363
     61          7           0       -2.104702    1.183680   -1.283306
     62          1           0       -0.170469    0.622022   -0.903955
     63          6           0       -1.168508    0.249300   -1.130395
     64          7           0       -1.275652   -1.080743   -1.214479
     65          1           0       -6.453034    0.492420   -2.226662
     66          6           0       -5.407108    0.265646   -2.017959
     67          7           0       -4.902172   -0.942762   -1.968133
     68          6           0       -3.561986   -0.732571   -1.677513
     69          6           0       -4.710308    2.718222   -1.758283
     70          7           0       -4.489138    1.259241   -1.779533
 ---------------------------------------------------------------------

 SCF Done:  E(RwB97XD) =  -2048.68927634     A.U. after   15 cycles

 The electronic state is 1-A.
 Alpha  occ. eigenvalues --  -19.25256 -19.21543 -19.20512 -14.52468 -14.52105
 Alpha  occ. eigenvalues --  -14.49696 -14.48104 -14.47841 -14.47400 -14.46655
 Alpha  occ. eigenvalues --  -14.46299 -14.45729 -14.44184 -14.44082 -14.43151
 Alpha  occ. eigenvalues --  -14.42165 -14.41722 -14.41296 -14.40714 -14.40447
 Alpha  occ. eigenvalues --  -10.44868 -10.40994 -10.39724 -10.39656 -10.38145
 Alpha  occ. eigenvalues --  -10.38030 -10.37344 -10.37201 -10.36190 -10.35276
 Alpha  occ. eigenvalues --  -10.34910 -10.34810 -10.34308 -10.34083 -10.33820
 Alpha  occ. eigenvalues --  -10.33389 -10.32937 -10.32654 -10.32125 -10.30581
 Alpha  occ. eigenvalues --  -10.29482 -10.29216 -10.27685  -1.19228  -1.15475
 Alpha  occ. eigenvalues --   -1.13109  -1.12584  -1.12194  -1.10285  -1.09322
 Alpha  occ. eigenvalues --   -1.08826  -1.08375  -1.05769  -1.04675  -1.02135
 Alpha  occ. eigenvalues --   -1.01331  -1.01239  -0.99483  -0.98423  -0.97831
 Alpha  occ. eigenvalues --   -0.96726  -0.96150  -0.93424  -0.90657  -0.87982
 Alpha  occ. eigenvalues --   -0.86350  -0.84834  -0.83717  -0.83616  -0.83209
 Alpha  occ. eigenvalues --   -0.81731  -0.78507  -0.77190  -0.75086  -0.74307
 Alpha  occ. eigenvalues --   -0.73776  -0.73415  -0.73058  -0.71776  -0.70518
 Alpha  occ. eigenvalues --   -0.67194  -0.67093  -0.66854  -0.66230  -0.64717
 Alpha  occ. eigenvalues --   -0.64391  -0.63690  -0.63407  -0.62649  -0.62176
 Alpha  occ. eigenvalues --   -0.61500  -0.61110  -0.60665  -0.59685  -0.59343
 Alpha  occ. eigenvalues --   -0.58293  -0.57955  -0.57673  -0.57405  -0.56654
 Alpha  occ. eigenvalues --   -0.56215  -0.56029  -0.55296  -0.54558  -0.54528
 Alpha  occ. eigenvalues --   -0.53968  -0.53650  -0.53263  -0.53013  -0.52928
 Alpha  occ. eigenvalues --   -0.52550  -0.52339  -0.51838  -0.51416  -0.50803
 Alpha  occ. eigenvalues --   -0.49961  -0.49626  -0.49349  -0.49075  -0.48821
 Alpha  occ. eigenvalues --   -0.48512  -0.48240  -0.47977  -0.47864  -0.47103
 Alpha  occ. eigenvalues --   -0.46736  -0.45656  -0.45441  -0.44579  -0.42778
 Alpha  occ. eigenvalues --   -0.41646  -0.40840  -0.39282  -0.38006  -0.37781
 Alpha  occ. eigenvalues --   -0.37593  -0.37253  -0.36804  -0.36051  -0.34683
 Alpha  occ. eigenvalues --   -0.34210  -0.34145  -0.33911  -0.33264  -0.32809
 Alpha  occ. eigenvalues --   -0.32430  -0.32325  -0.31754  -0.31587  -0.31098
 Alpha  occ. eigenvalues --   -0.30695  -0.29223  -0.26303  -0.25094
 Alpha virt. eigenvalues --    0.03283   0.04134   0.06650   0.07073   0.08156
 Alpha virt. eigenvalues --    0.08562   0.09993   0.10546   0.11053   0.12471
 Alpha virt. eigenvalues --    0.13251   0.13829   0.14005   0.14151   0.14667

 Mulliken charges:
               1
     1  N   -0.309448
     2  C    0.173740
     3  C    0.075575
     4  N   -0.253491
     5  C    0.129047
     6  H    0.028275
     7  N   -0.280227
     8  C    0.144162
     9  H    0.018229
    10  N   -0.292258
    11  C    0.222067
    12  C    0.087625
    13  N   -0.047984
    14  H    0.108838
    15  H    0.087559
    16  H    0.029740
    17  H    0.043002
    18  H    0.024375
    19  N   -0.272254
    20  C    0.190476
    21  C    0.202693
    22  N   -0.098955
    23  H    0.113324
    24  H    0.113980
    25  N   -0.289778
    26  C    0.211198
    27  N   -0.143436
    28  H    0.127752
    29  C    0.167857
    30  O   -0.322411
    31  C    0.012369
    32  N   -0.216940
    33  C    0.118736
    34  H    0.014666
    35  H    0.009623
    36  H    0.024187
    37  H    0.012728
    38  H    0.027094
    39  H    0.054257
    40  H    0.063305
    41  H    0.027594
    42  C   -0.108161
    43  O   -0.266717
    44  C    0.174559
    45  H    0.131703
    46  N   -0.122949
    47  O   -0.325990
    48  C    0.327945
    49  H    0.042802
    50  C    0.173721
    51  C    0.064394
    52  N   -0.275537
    53  H    0.034476
    54  H    0.041073
    55  H    0.024079
    56  H    0.122305
    57  H    0.120172
    58  N   -0.063824
    59  C    0.114504
    60  C    0.195531
    61  N   -0.251352
    62  H    0.050028
    63  C    0.132393
    64  N   -0.301033
    65  H    0.042962
    66  C    0.106429
    67  N   -0.239715
    68  C    0.044629
    69  C    0.174855
    70  N   -0.300178
 Sum of Mulliken charges =  -0.00000

 Dipole moment (field-independent basis, Debye):
    X=             -5.3018    Y=              6.2331    Z=             -4.8594  Tot=              9.5171
 Quadrupole moment (field-independent basis, Debye-Ang):
   XX=           -146.3211   YY=           -228.1329   ZZ=           -261.8852
   XY=            -12.6611   XZ=              5.7518   YZ=             11.3385

 Normal termination of Gaussian 16 at Fri Jan 19 22:48:43 2018.
