 Gaussian 16, Revision A.03,
 Gaussian 16:  EM64L-G16RevA.03 25-Dec-2016

 ---------------------------------------
 #p wb97xd/cc-pvdz sp scf=(maxcycles=20)
 ---------------------------------------

 ------------------
 Base pair stacking
 ------------------
 Symbolic Z-matrix:
 Charge =  0 Multiplicity = 1

                         Standard orientation:
 ---------------------------------------------------------------------
 Center     Atomic      Atomic             Coordinates (Angstroms)
 Number     Number       Type             X           Y           Z
 ---------------------------------------------------------------------
      1          7           0       -6.612341   -1.056998    0.440837
      2          6           0       -7.918107   -0.396658    0.633049
      3          6           0       -4.462906   -1.522350    0.467010
      4          7           0       -5.079782   -2.574616   -0.193996
      5          6           0       -6.350045   -2.252149   -0.183306
      6          1           0       -7.146487   -2.855164   -0.620338
      7          7           0       -2.840864   -0.121797    1.452094
      8          6           0       -3.850075    0.695578    1.769846
      9          1           0       -3.564947    1.599921    2.305697
     10          7           0       -5.152488    0.564194    1.526198
     11          6           0       -5.394763   -0.579260    0.864202
     12          6           0       -3.117381   -1.264240    0.786166
     13          7           0       -2.111316   -2.081447    0.468090
     14          1           0       -2.269622   -2.937817   -0.024649
     15          1           0       -1.165584   -1.865669    0.711351
     16          1           0       -8.520579   -0.994094    1.162452
     17          1           0       -7.788076    0.464014    1.124447
     18          1           0       -8.334191   -0.210739   -0.257069
     19          7           0       -3.404857    1.861158   -1.370101
     20          6           0       -2.050403    1.917225   -1.145637
     21          6           0       -4.378962    2.899188   -0.977275
     22          7           0        0.723348    3.585924    0.112714
     23          1           0        1.709243    3.433872    0.176968
     24          1           0        0.369507    4.437920    0.499513
     25          7           0       -1.387196    2.921920   -0.533438
     26          6           0       -0.088561    2.688235   -0.465958
     27          7           0        0.516300    1.557769   -0.959637
     28          1           0        1.515735    1.463502   -0.863717
     29          6           0       -0.146387    0.511234   -1.593255
     30          8           0        0.493917   -0.465083   -2.002586
     31          6           0       -1.542268    0.747935   -1.673228
     32          7           0       -2.557270   -0.026615   -2.217956
     33          6           0       -3.641340    0.671958   -2.015488
     34          1           0       -4.643226    0.365258   -2.317849
     35          1           0       -5.051909    2.507197   -0.350946
     36          1           0       -3.899219    3.648572   -0.522808
     37          1           0       -4.843955    3.247161   -1.790610
     38          1           0        6.412254    1.303962    0.496945
     39          1           0        6.675280    1.842649   -1.159945
     40          1           0        5.216153    2.329228   -0.296487
     41          1           0        5.829589   -2.838593   -1.879255
     42          6           0        5.276442   -1.923046   -1.669404
     43          8           0        3.176265   -2.829583   -2.297530
     44          6           0        3.861995   -1.894626   -1.884705
     45          1           0        2.260794   -0.629792   -1.727664
     46          7           0        3.259705   -0.688572   -1.588203
     47          8           0        3.250703    1.471504   -0.887352
     48          6           0        3.870050    0.448664   -1.121583
     49          1           0        6.973696   -0.799529   -1.034698
     50          6           0        5.899944   -0.829732   -1.214969
     51          6           0        5.930551    1.532637   -0.442064
     52          7           0        5.234882    0.342504   -0.939431
     53          1           0        4.401345    2.043247    3.806930
     54          1           0        3.230904    2.581556    2.805744
     55          1           0        4.778378    2.515488    2.290937
     56          1           0        1.194969   -3.683805    0.344905
     57          1           0        2.849112   -3.665168    0.761528
     58          7           0        1.979435   -3.174310    0.698721
     59          6           0        1.871681   -1.897091    1.070539
     60          6           0        2.676370    0.175880    1.917288
     61          7           0        1.495865    0.809693    1.821905
     62          1           0       -0.427235    0.427517    1.225038
     63          6           0        0.564767   -0.008384    1.335371
     64          7           0        0.670718   -1.287926    0.962381
     65          1           0        5.818333   -0.198279    2.580827
     66          6           0        4.778456   -0.331420    2.281029
     67          7           0        4.275974   -1.445808    1.808474
     68          6           0        2.943755   -1.137882    1.573713
     69          6           0        4.086805    2.067909    2.858009
     70          7           0        3.866307    0.691393    2.373691
 ---------------------------------------------------------------------

 SCF Done:  E(RwB97XD) =  -2048.75262702     A.U. after   15 cycles

 The electronic state is 1-A.
 Alpha  occ. eigenvalues --  -19.25940 -19.21986 -19.20561 -14.52504 -14.51628
 Alpha  occ. eigenvalues --  -14.49653 -14.48446 -14.47839 -14.46702 -14.46691
 Alpha  occ. eigenvalues --  -14.46436 -14.44535 -14.43145 -14.43104 -14.42817
 Alpha  occ. eigenvalues --  -14.42241 -14.41875 -14.41873 -14.40941 -14.40629
 Alpha  occ. eigenvalues --  -10.45535 -10.41001 -10.40062 -10.38710 -10.38090
 Alpha  occ. eigenvalues --  -10.37599 -10.37141 -10.36176 -10.36176 -10.35838
 Alpha  occ. eigenvalues --  -10.34898 -10.34840 -10.34224 -10.34134 -10.33885
 Alpha  occ. eigenvalues --  -10.33578 -10.33118 -10.31780 -10.31529 -10.30892
 Alpha  occ. eigenvalues --  -10.30080 -10.29372 -10.27913  -1.19523  -1.14280
 Alpha  occ. eigenvalues --   -1.13088  -1.13005  -1.12226  -1.10377  -1.09363
 Alpha  occ. eigenvalues --   -1.08406  -1.08052  -1.05792  -1.03586  -1.02520
 Alpha  occ. eigenvalues --   -1.01211  -1.00050  -0.99542  -0.98371  -0.97770
 Alpha  occ. eigenvalues --   -0.96268  -0.95664  -0.93432  -0.90943  -0.86753
 Alpha  occ. eigenvalues --   -0.85216  -0.84779  -0.83987  -0.83792  -0.83124
 Alpha  occ. eigenvalues --   -0.82020  -0.78835  -0.76034  -0.74402  -0.73793
 Alpha  occ. eigenvalues --   -0.73671  -0.73500  -0.73335  -0.71868  -0.69402
 Alpha  occ. eigenvalues --   -0.67194  -0.67074  -0.66530  -0.65730  -0.64421
 Alpha  occ. eigenvalues --   -0.63559  -0.63543  -0.63182  -0.62532  -0.61537
 Alpha  occ. eigenvalues --   -0.60923  -0.60747  -0.59607  -0.59463  -0.58681
 Alpha  occ. eigenvalues --   -0.58280  -0.58148  -0.57364  -0.57252  -0.56330
 Alpha  occ. eigenvalues --   -0.56054  -0.55946  -0.54769  -0.54579  -0.54348
 Alpha  occ. eigenvalues --   -0.53694  -0.53427  -0.52855  -0.52731  -0.52629
 Alpha  occ. eigenvalues --   -0.52423  -0.52345  -0.51879  -0.51499  -0.50956
 Alpha  occ. eigenvalues --   -0.49939  -0.49840  -0.49434  -0.48946  -0.48753
 Alpha  occ. eigenvalues --   -0.48614  -0.48174  -0.47908  -0.47720  -0.47520
 Alpha  occ. eigenvalues --   -0.47302  -0.45634  -0.45341  -0.44023  -0.43488
 Alpha  occ. eigenvalues --   -0.41961  -0.39855  -0.39487  -0.38019  -0.37149
 Alpha  occ. eigenvalues --   -0.37110  -0.36972  -0.36563  -0.35616  -0.34414
 Alpha  occ. eigenvalues --   -0.34282  -0.34030  -0.33608  -0.33234  -0.33173
 Alpha  occ. eigenvalues --   -0.32585  -0.32066  -0.31817  -0.31807  -0.31671
 Alpha  occ. eigenvalues --   -0.31173  -0.28640  -0.26624  -0.25182
 Alpha virt. eigenvalues --    0.03112   0.04944   0.07137   0.08274   0.08427
 Alpha virt. eigenvalues --    0.09147   0.09884   0.10148   0.10843   0.11660
 Alpha virt. eigenvalues --    0.13075   0.13323   0.14584   0.14717   0.15177

 Mulliken charges:
               1
     1  N   -0.310572
     2  C    0.179850
     3  C    0.051847
     4  N   -0.253252
     5  C    0.129249
     6  H    0.028806
     7  N   -0.277894
     8  C    0.131730
     9  H    0.017364
    10  N   -0.292333
    11  C    0.231119
    12  C    0.099078
    13  N   -0.041909
    14  H    0.109389
    15  H    0.089370
    16  H    0.028521
    17  H    0.034894
    18  H    0.024907
    19  N   -0.298239
    20  C    0.253057
    21  C    0.181589
    22  N   -0.110192
    23  H    0.112047
    24  H    0.115504
    25  N   -0.301964
    26  C    0.228392
    27  N   -0.133790
    28  H    0.120855
    29  C    0.155431
    30  O   -0.323800
    31  C    0.001297
    32  N   -0.225138
    33  C    0.121271
    34  H    0.023961
    35  H    0.020930
    36  H    0.026050
    37  H    0.020291
    38  H    0.043559
    39  H    0.064955
    40  H    0.077800
    41  H    0.028651
    42  C   -0.091515
    43  O   -0.272238
    44  C    0.172297
    45  H    0.135125
    46  N   -0.126872
    47  O   -0.344615
    48  C    0.341488
    49  H    0.044406
    50  C    0.174814
    51  C    0.036202
    52  N   -0.280396
    53  H    0.033200
    54  H    0.037350
    55  H    0.011840
    56  H    0.121478
    57  H    0.119399
    58  N   -0.050605
    59  C    0.115645
    60  C    0.230851
    61  N   -0.277567
    62  H    0.034630
    63  C    0.166240
    64  N   -0.303633
    65  H    0.031546
    66  C    0.113738
    67  N   -0.246344
    68  C    0.007410
    69  C    0.183461
    70  N   -0.300019
 Sum of Mulliken charges =  -0.00000

 Dipole moment (field-independent basis, Debye):
    X=              5.4431    Y=              5.7644    Z=              4.0660  Tot=              8.9100
 Quadrupole moment (field-independent basis, Debye-Ang):
   XX=           -142.1009   YY=           -225.7417   ZZ=           -258.0987
   XY=             13.2481   XZ=             14.8018   YZ=             -3.8029

 Normal termination of Gaussian 16 at Fri Jan 19 12:16:52 2018.
