 Gaussian 16, Revision A.03,
 Gaussian 16:  EM64L-G16RevA.03 25-Dec-2016

 ---------------------------------------
 #p wb97xd/cc-pvdz sp scf=(maxcycles=20)
 ---------------------------------------

 ------------------
 Base pair stacking
 ------------------
 Symbolic Z-matrix:
 Charge =  0 Multiplicity = 1

                         Standard orientation:
 ---------------------------------------------------------------------
 Center     Atomic      Atomic             Coordinates (Angstroms)
 Number     Number       Type             X           Y           Z
 ---------------------------------------------------------------------
      1          7           0        4.265093   -0.993753   -1.994133
      2          6           0        5.574352   -0.363012   -2.251056
      3          6           0        2.113413   -1.332069   -1.688993
      4          7           0        2.724209   -2.570157   -1.551899
      5          6           0        3.996076   -2.316778   -1.741227
      6          1           0        4.788956   -3.064531   -1.707373
      7          7           0        0.499588    0.384976   -1.790593
      8          6           0        1.513244    1.218142   -2.047327
      9          1           0        1.233297    2.261008   -2.189886
     10          7           0        2.814677    0.957725   -2.153912
     11          6           0        3.050429   -0.350675   -1.961740
     12          6           0        0.769579   -0.925234   -1.602065
     13          7           0       -0.240919   -1.758488   -1.345674
     14          1           0       -0.087502   -2.736386   -1.199411
     15          1           0       -1.185267   -1.433842   -1.291090
     16          1           0        5.989908   -0.773225   -3.062986
     17          1           0        5.449226    0.617278   -2.400987
     18          1           0        6.174856   -0.504131   -1.463983
     19          7           0        5.806479    0.995902    0.768752
     20          6           0        4.449095    1.180342    0.876258
     21          6           0        6.785859    2.045523    0.422627
     22          7           0        1.673901    3.261704    0.709065
     23          1           0        0.685301    3.184509    0.835385
     24          1           0        2.031048    4.163677    0.464935
     25          7           0        3.787318    2.342072    0.685295
     26          6           0        2.485022    2.203785    0.860020
     27          7           0        1.875474    1.019291    1.196072
     28          1           0        0.873465    1.006686    1.309217
     29          6           0        2.536601   -0.188268    1.397515
     30          8           0        1.891964   -1.200535    1.698323
     31          6           0        3.936356   -0.055493    1.213317
     32          7           0        4.951406   -0.996853    1.315366
     33          6           0        6.040004   -0.329370    1.043989
     34          1           0        7.043287   -0.756605    1.030583
     35          1           0        7.268987    1.790070   -0.414112
     36          1           0        6.307217    2.910682    0.278842
     37          1           0        7.443143    2.149396    1.168286
     38          1           0       -4.185915    1.463488    1.093249
     39          1           0       -4.042522    1.576154    2.845783
     40          1           0       -2.748095    2.186893    1.814856
     41          1           0       -3.580600   -3.172628    2.227517
     42          6           0       -2.986323   -2.265095    2.120548
     43          8           0       -0.913031   -3.413747    2.024756
     44          6           0       -1.563290   -2.368874    2.010787
     45          1           0        0.099112   -1.194140    1.799250
     46          7           0       -0.907476   -1.161427    1.879501
     47          8           0       -0.808206    1.102136    1.725863
     48          6           0       -1.473508    0.088371    1.845471
     49          1           0       -4.645522   -0.927027    2.170289
     50          6           0       -3.567416   -1.060090    2.090629
     51          6           0       -3.499506    1.419277    1.925686
     52          7           0       -2.849906    0.105970    1.956963
     53          1           0       -6.770014    3.518461   -1.662740
     54          1           0       -5.372992    3.639853   -0.828657
     55          1           0       -6.787203    3.470452   -0.031538
     56          1           0       -3.619282   -3.168069   -1.007948
     57          1           0       -5.309954   -2.940888   -1.018538
     58          7           0       -4.394832   -2.536752   -0.997542
     59          6           0       -4.217680   -1.214557   -0.957463
     60          6           0       -4.931975    1.054384   -0.899028
     61          7           0       -3.691480    1.568995   -0.871530
     62          1           0       -1.744801    0.927858   -0.870326
     63          6           0       -2.782149    0.596544   -0.890457
     64          7           0       -2.957562   -0.728293   -0.930594
     65          1           0       -8.164794    1.057592   -0.931766
     66          6           0       -7.108318    0.787789   -0.928846
     67          7           0       -6.652843   -0.440736   -0.959794
     68          6           0       -5.274286   -0.285975   -0.941310
     69          6           0       -6.275229    3.210160   -0.850261
     70          7           0       -6.121878    1.742912   -0.891177
 ---------------------------------------------------------------------

 SCF Done:  E(RwB97XD) =  -2048.74191605     A.U. after   15 cycles

 The electronic state is 1-A.
 Alpha  occ. eigenvalues --  -19.25038 -19.21297 -19.20680 -14.52917 -14.51419
 Alpha  occ. eigenvalues --  -14.49523 -14.48627 -14.48624 -14.47062 -14.46853
 Alpha  occ. eigenvalues --  -14.46728 -14.45710 -14.44883 -14.44869 -14.43087
 Alpha  occ. eigenvalues --  -14.42037 -14.41777 -14.41409 -14.41139 -14.40970
 Alpha  occ. eigenvalues --  -10.44606 -10.41300 -10.40512 -10.39378 -10.38410
 Alpha  occ. eigenvalues --  -10.38291 -10.37678 -10.36871 -10.36376 -10.36031
 Alpha  occ. eigenvalues --  -10.34831 -10.34211 -10.34114 -10.33957 -10.33588
 Alpha  occ. eigenvalues --  -10.33574 -10.33271 -10.33266 -10.31692 -10.30820
 Alpha  occ. eigenvalues --  -10.30275 -10.28812 -10.28594  -1.18594  -1.15674
 Alpha  occ. eigenvalues --   -1.13422  -1.12294  -1.11306  -1.11136  -1.09939
 Alpha  occ. eigenvalues --   -1.08677  -1.08311  -1.05601  -1.05468  -1.01645
 Alpha  occ. eigenvalues --   -1.01338  -1.01004  -0.99815  -0.98819  -0.97568
 Alpha  occ. eigenvalues --   -0.97152  -0.96931  -0.93296  -0.90126  -0.88135
 Alpha  occ. eigenvalues --   -0.86278  -0.84712  -0.84041  -0.83132  -0.82430
 Alpha  occ. eigenvalues --   -0.82397  -0.78039  -0.77477  -0.75440  -0.75036
 Alpha  occ. eigenvalues --   -0.73776  -0.73203  -0.72499  -0.71432  -0.70881
 Alpha  occ. eigenvalues --   -0.67609  -0.67293  -0.66619  -0.65737  -0.64687
 Alpha  occ. eigenvalues --   -0.64650  -0.63267  -0.63089  -0.62757  -0.61991
 Alpha  occ. eigenvalues --   -0.61045  -0.60938  -0.60701  -0.59945  -0.58917
 Alpha  occ. eigenvalues --   -0.58795  -0.58438  -0.58205  -0.56879  -0.56041
 Alpha  occ. eigenvalues --   -0.55680  -0.55660  -0.55581  -0.54786  -0.54302
 Alpha  occ. eigenvalues --   -0.54089  -0.54005  -0.53331  -0.53228  -0.52992
 Alpha  occ. eigenvalues --   -0.52312  -0.51834  -0.51317  -0.50783  -0.50623
 Alpha  occ. eigenvalues --   -0.50458  -0.50265  -0.49698  -0.49356  -0.49162
 Alpha  occ. eigenvalues --   -0.48714  -0.48287  -0.48083  -0.47419  -0.47174
 Alpha  occ. eigenvalues --   -0.47081  -0.45656  -0.45509  -0.45140  -0.42508
 Alpha  occ. eigenvalues --   -0.41507  -0.41169  -0.38851  -0.38171  -0.38042
 Alpha  occ. eigenvalues --   -0.37964  -0.37373  -0.37115  -0.35371  -0.35138
 Alpha  occ. eigenvalues --   -0.34803  -0.34100  -0.33880  -0.33737  -0.33170
 Alpha  occ. eigenvalues --   -0.32815  -0.32462  -0.32018  -0.31122  -0.30930
 Alpha  occ. eigenvalues --   -0.30818  -0.30644  -0.26603  -0.25485
 Alpha virt. eigenvalues --    0.02632   0.04849   0.06175   0.07576   0.08497
 Alpha virt. eigenvalues --    0.09060   0.09541   0.09986   0.10594   0.12465
 Alpha virt. eigenvalues --    0.13214   0.13664   0.14073   0.14403   0.14713

 Mulliken charges:
               1
     1  N   -0.297570
     2  C    0.188967
     3  C    0.054519
     4  N   -0.250946
     5  C    0.151923
     6  H    0.028697
     7  N   -0.287030
     8  C    0.122669
     9  H    0.003831
    10  N   -0.272841
    11  C    0.227488
    12  C    0.078964
    13  N   -0.060993
    14  H    0.116208
    15  H    0.085759
    16  H    0.025072
    17  H    0.032572
    18  H    0.008645
    19  N   -0.302157
    20  C    0.242654
    21  C    0.183402
    22  N   -0.111730
    23  H    0.120221
    24  H    0.118911
    25  N   -0.295203
    26  C    0.222756
    27  N   -0.126184
    28  H    0.118796
    29  C    0.183683
    30  O   -0.317817
    31  C   -0.006993
    32  N   -0.215727
    33  C    0.092715
    34  H    0.026458
    35  H    0.016399
    36  H    0.034368
    37  H    0.027942
    38  H    0.057493
    39  H    0.045942
    40  H    0.072551
    41  H    0.019356
    42  C   -0.103308
    43  O   -0.270996
    44  C    0.171935
    45  H    0.132237
    46  N   -0.123935
    47  O   -0.346258
    48  C    0.333442
    49  H    0.046116
    50  C    0.160384
    51  C    0.056938
    52  N   -0.273585
    53  H    0.036263
    54  H    0.041257
    55  H    0.031204
    56  H    0.122999
    57  H    0.119691
    58  N   -0.057932
    59  C    0.092749
    60  C    0.211121
    61  N   -0.266195
    62  H    0.036322
    63  C    0.156616
    64  N   -0.303573
    65  H    0.040409
    66  C    0.141785
    67  N   -0.257866
    68  C    0.039086
    69  C    0.179012
    70  N   -0.309689
 Sum of Mulliken charges =  -0.00000

 Dipole moment (field-independent basis, Debye):
    X=             -6.1239    Y=              7.7347    Z=             -1.6266  Tot=              9.9986
 Quadrupole moment (field-independent basis, Debye-Ang):
   XX=           -149.2744   YY=           -231.8453   ZZ=           -253.4304
   XY=              0.1971   XZ=            -14.4268   YZ=             15.5540

 Normal termination of Gaussian 16 at Sat Jan 20 06:42:44 2018.
