 Gaussian 16, Revision A.03,
 Gaussian 16:  EM64L-G16RevA.03 25-Dec-2016

 ---------------------------------------
 #p wb97xd/cc-pvdz sp scf=(maxcycles=20)
 ---------------------------------------

 ------------------
 Base pair stacking
 ------------------
 Symbolic Z-matrix:
 Charge =  0 Multiplicity = 1

                         Standard orientation:
 ---------------------------------------------------------------------
 Center     Atomic      Atomic             Coordinates (Angstroms)
 Number     Number       Type             X           Y           Z
 ---------------------------------------------------------------------
      1          7           0        6.570463   -0.957953   -0.488248
      2          6           0        7.864200   -0.247874   -0.483248
      3          6           0        4.431196   -1.437291   -0.664555
      4          7           0        5.063489   -2.615060   -0.293372
      5          6           0        6.327014   -2.279140   -0.202007
      6          1           0        7.131679   -2.961669    0.072962
      7          7           0        2.789724    0.144014   -1.271176
      8          6           0        3.784891    1.033379   -1.350305
      9          1           0        3.486171    2.041377   -1.634872
     10          7           0        5.087537    0.865321   -1.131728
     11          6           0        5.347163   -0.407169   -0.788546
     12          6           0        3.083529   -1.127926   -0.923449
     13          7           0        2.091505   -2.017151   -0.843925
     14          1           0        2.262835   -2.969761   -0.590153
     15          1           0        1.143733   -1.761591   -1.035189
     16          1           0        8.483208   -0.675438   -1.142184
     17          1           0        7.721042    0.709024   -0.734198
     18          1           0        8.268714   -0.294237    0.430112
     19          7           0        3.464984    1.577758    1.418230
     20          6           0        2.113221    1.660422    1.185890
     21          6           0        4.460140    2.601624    1.041341
     22          7           0       -0.621894    3.390790   -0.073761
     23          1           0       -1.609940    3.257212   -0.145588
     24          1           0       -0.250267    4.239832   -0.450246
     25          7           0        1.472163    2.682652    0.579158
     26          6           0        0.169984    2.473154    0.501396
     27          7           0       -0.458307    1.349239    0.980546
     28          1           0       -1.458652    1.273982    0.877529
     29          6           0        0.181331    0.284993    1.608309
     30          8           0       -0.479077   -0.683384    2.004355
     31          6           0        1.580710    0.495622    1.699195
     32          7           0        2.578084   -0.302248    2.242839
     33          6           0        3.675848    0.378467    2.053751
     34          1           0        4.670092    0.050851    2.359411
     35          1           0        5.129894    2.203415    0.415506
     36          1           0        3.996905    3.363791    0.591036
     37          1           0        4.926136    2.933481    1.860811
     38          1           0       -6.348457    1.215860   -0.514989
     39          1           0       -6.612297    1.743642    1.145270
     40          1           0       -5.139150    2.211827    0.295561
     41          1           0       -5.855802   -2.958671    1.825343
     42          6           0       -5.284904   -2.051353    1.627635
     43          8           0       -3.205469   -3.001609    2.260163
     44          6           0       -3.871570   -2.050563    1.851976
     45          1           0       -2.246853   -0.813492    1.716914
     46          7           0       -3.245741   -0.852871    1.570691
     47          8           0       -3.193307    1.313157    0.890456
     48          6           0       -3.832482    0.299539    1.111111
     49          1           0       -6.957525   -0.891405    0.993093
     50          6           0       -5.885673   -0.942726    1.179736
     51          6           0       -5.868721    1.426951    0.429125
     52          7           0       -5.197820    0.219817    0.919482
     53          1           0       -4.474156    2.724486   -3.076582
     54          1           0       -3.323573    3.002137   -1.953576
     55          1           0       -4.873795    2.776923   -1.495144
     56          1           0       -1.182622   -3.652750   -1.189209
     57          1           0       -2.833125   -3.554306   -1.609013
     58          7           0       -1.974137   -3.082058   -1.408166
     59          6           0       -1.889045   -1.750366   -1.431535
     60          6           0       -2.728169    0.457741   -1.717648
     61          7           0       -1.561600    1.064791   -1.443717
     62          1           0        0.363596    0.572996   -0.941356
     63          6           0       -0.618393    0.164096   -1.175382
     64          7           0       -0.701640   -1.170097   -1.151449
     65          1           0       -5.856041    0.216065   -2.498784
     66          6           0       -4.816326    0.027090   -2.230062
     67          7           0       -4.295495   -1.163289   -2.058543
     68          6           0       -2.971868   -0.904571   -1.733261
     69          6           0       -4.168411    2.505375   -2.150033
     70          7           0       -3.924304    1.054097   -2.039557
 ---------------------------------------------------------------------

 SCF Done:  E(RwB97XD) =  -2048.72016290     A.U. after   15 cycles

 The electronic state is 1-A.
 Alpha  occ. eigenvalues --  -19.25857 -19.21879 -19.20460 -14.52552 -14.51821
 Alpha  occ. eigenvalues --  -14.49918 -14.48154 -14.47829 -14.47285 -14.46272
 Alpha  occ. eigenvalues --  -14.45958 -14.44750 -14.43473 -14.43191 -14.43173
 Alpha  occ. eigenvalues --  -14.42482 -14.42069 -14.41752 -14.41163 -14.40481
 Alpha  occ. eigenvalues --  -10.45504 -10.40688 -10.39988 -10.39137 -10.37892
 Alpha  occ. eigenvalues --  -10.37648 -10.37379 -10.36471 -10.36465 -10.35931
 Alpha  occ. eigenvalues --  -10.35176 -10.35127 -10.34503 -10.34111 -10.33904
 Alpha  occ. eigenvalues --  -10.33900 -10.33000 -10.32032 -10.31745 -10.30943
 Alpha  occ. eigenvalues --  -10.29648 -10.28956 -10.27718  -1.19585  -1.14545
 Alpha  occ. eigenvalues --   -1.13019  -1.12917  -1.12495  -1.10245  -1.09415
 Alpha  occ. eigenvalues --   -1.08512  -1.08185  -1.06114  -1.04026  -1.02503
 Alpha  occ. eigenvalues --   -1.01622  -1.00359  -0.99262  -0.98258  -0.98048
 Alpha  occ. eigenvalues --   -0.96127  -0.95959  -0.93799  -0.91017  -0.87148
 Alpha  occ. eigenvalues --   -0.85610  -0.85102  -0.84097  -0.83568  -0.83388
 Alpha  occ. eigenvalues --   -0.81537  -0.78870  -0.76440  -0.74293  -0.74250
 Alpha  occ. eigenvalues --   -0.73937  -0.73417  -0.73243  -0.72206  -0.69850
 Alpha  occ. eigenvalues --   -0.67419  -0.67005  -0.66524  -0.66188  -0.64559
 Alpha  occ. eigenvalues --   -0.63937  -0.63628  -0.63324  -0.62571  -0.61423
 Alpha  occ. eigenvalues --   -0.61344  -0.61196  -0.60190  -0.59535  -0.59102
 Alpha  occ. eigenvalues --   -0.58078  -0.57960  -0.57786  -0.57569  -0.56640
 Alpha  occ. eigenvalues --   -0.56320  -0.55941  -0.55195  -0.54937  -0.54516
 Alpha  occ. eigenvalues --   -0.54204  -0.53310  -0.53180  -0.52945  -0.52410
 Alpha  occ. eigenvalues --   -0.52371  -0.52090  -0.51956  -0.51514  -0.50987
 Alpha  occ. eigenvalues --   -0.50109  -0.49738  -0.49413  -0.48983  -0.48691
 Alpha  occ. eigenvalues --   -0.48415  -0.48169  -0.48014  -0.47835  -0.47301
 Alpha  occ. eigenvalues --   -0.47144  -0.45653  -0.45435  -0.44244  -0.43276
 Alpha  occ. eigenvalues --   -0.41874  -0.40397  -0.39527  -0.38366  -0.37353
 Alpha  occ. eigenvalues --   -0.37238  -0.36966  -0.36720  -0.35479  -0.34797
 Alpha  occ. eigenvalues --   -0.34523  -0.34072  -0.33727  -0.33216  -0.33050
 Alpha  occ. eigenvalues --   -0.32467  -0.32085  -0.31809  -0.31668  -0.31574
 Alpha  occ. eigenvalues --   -0.31359  -0.28736  -0.26829  -0.24941
 Alpha virt. eigenvalues --    0.03106   0.04658   0.06773   0.07935   0.08228
 Alpha virt. eigenvalues --    0.09189   0.09713   0.10147   0.11136   0.11934
 Alpha virt. eigenvalues --    0.13020   0.13096   0.14359   0.14686   0.14883

 Mulliken charges:
               1
     1  N   -0.311858
     2  C    0.178715
     3  C    0.061085
     4  N   -0.254736
     5  C    0.131084
     6  H    0.029733
     7  N   -0.267492
     8  C    0.131082
     9  H    0.019470
    10  N   -0.295823
    11  C    0.234060
    12  C    0.096545
    13  N   -0.044517
    14  H    0.108329
    15  H    0.088471
    16  H    0.029397
    17  H    0.036264
    18  H    0.026371
    19  N   -0.287478
    20  C    0.234663
    21  C    0.179872
    22  N   -0.086725
    23  H    0.112241
    24  H    0.110883
    25  N   -0.289202
    26  C    0.196558
    27  N   -0.134013
    28  H    0.131142
    29  C    0.143830
    30  O   -0.323595
    31  C    0.018627
    32  N   -0.222394
    33  C    0.116189
    34  H    0.021149
    35  H    0.019855
    36  H    0.022110
    37  H    0.014310
    38  H    0.036298
    39  H    0.064981
    40  H    0.081171
    41  H    0.030316
    42  C   -0.100875
    43  O   -0.266467
    44  C    0.179842
    45  H    0.133043
    46  N   -0.125996
    47  O   -0.340312
    48  C    0.339800
    49  H    0.044891
    50  C    0.174743
    51  C    0.035863
    52  N   -0.278433
    53  H    0.033089
    54  H    0.029987
    55  H    0.004360
    56  H    0.120548
    57  H    0.120348
    58  N   -0.063330
    59  C    0.124841
    60  C    0.225705
    61  N   -0.292869
    62  H    0.031038
    63  C    0.180556
    64  N   -0.307378
    65  H    0.037843
    66  C    0.105029
    67  N   -0.244656
    68  C    0.014501
    69  C    0.187666
    70  N   -0.290347
 Sum of Mulliken charges =  -0.00000

 Dipole moment (field-independent basis, Debye):
    X=             -5.0791    Y=              5.6975    Z=             -4.6080  Tot=              8.9159
 Quadrupole moment (field-independent basis, Debye-Ang):
   XX=           -142.1340   YY=           -228.0221   ZZ=           -260.0291
   XY=            -15.4808   XZ=             11.8933   YZ=              8.5490

 Normal termination of Gaussian 16 at Fri Jan 19 19:59:59 2018.
