 Gaussian 16, Revision A.03,
 Gaussian 16:  EM64L-G16RevA.03 25-Dec-2016

 ---------------------------------------
 #p wb97xd/cc-pvdz sp scf=(maxcycles=20)
 ---------------------------------------

 ------------------
 Base pair stacking
 ------------------
 Symbolic Z-matrix:
 Charge =  0 Multiplicity = 1

                         Standard orientation:
 ---------------------------------------------------------------------
 Center     Atomic      Atomic             Coordinates (Angstroms)
 Number     Number       Type             X           Y           Z
 ---------------------------------------------------------------------
      1          7           0       -7.063403   -0.809254    0.198646
      2          6           0       -8.335567   -0.071261    0.076312
      3          6           0       -4.946450   -1.322188    0.503137
      4          7           0       -5.597527   -2.513877    0.219062
      5          6           0       -6.846856   -2.157165    0.046988
      6          1           0       -7.659730   -2.842646   -0.194457
      7          7           0       -3.284612    0.268566    1.023473
      8          6           0       -4.256591    1.185600    0.979841
      9          1           0       -3.940307    2.208334    1.180474
     10          7           0       -5.554488    1.029693    0.726778
     11          6           0       -5.837006   -0.262781    0.494097
     12          6           0       -3.601085   -1.022943    0.784879
     13          7           0       -2.632222   -1.939798    0.827975
     14          1           0       -2.820834   -2.907631    0.657825
     15          1           0       -1.685350   -1.690667    1.031698
     16          1           0       -8.990271   -0.419311    0.747430
     17          1           0       -8.174880    0.901252    0.242160
     18          1           0       -8.707231   -0.193780   -0.843934
     19          7           0       -2.913673    1.555768   -1.472020
     20          6           0       -1.570076    1.622060   -1.192032
     21          6           0       -3.907135    2.596868   -1.140607
     22          7           0        1.142337    3.326747    0.149092
     23          1           0        2.125197    3.180276    0.257620
     24          1           0        0.769504    4.184451    0.504140
     25          7           0       -0.936780    2.641219   -0.572101
     26          6           0        0.358694    2.414566   -0.445657
     27          7           0        0.987811    1.277496   -0.891534
     28          1           0        1.982660    1.189476   -0.751943
     29          6           0        0.356094    0.216107   -1.532040
     30          8           0        1.016535   -0.765078   -1.895142
     31          6           0       -1.036015    0.445102   -1.675092
     32          7           0       -2.024446   -0.344202   -2.246852
     33          6           0       -3.118556    0.353375   -2.103627
     34          1           0       -4.105737    0.036532   -2.441783
     35          1           0       -4.604428    2.214022   -0.535599
     36          1           0       -3.449604    3.356924   -0.680994
     37          1           0       -4.338756    2.927123   -1.979316
     38          1           0        6.818156    1.077519    0.815889
     39          1           0        7.148705    1.585456   -0.838611
     40          1           0        5.652833    2.082120   -0.046743
     41          1           0        6.350739   -3.112382   -1.502037
     42          6           0        5.785988   -2.195406   -1.333356
     43          8           0        3.717334   -3.123024   -2.031419
     44          6           0        4.381754   -2.177324   -1.608342
     45          1           0        2.770861   -0.916732   -1.543169
     46          7           0        3.763221   -0.968449   -1.360783
     47          8           0        3.717047    1.204614   -0.702882
     48          6           0        4.349342    0.180187   -0.891053
     49          1           0        7.451030   -1.052495   -0.649832
     50          6           0        6.385920   -1.090856   -0.874390
     51          6           0        6.375569    1.286016   -0.146758
     52          7           0        5.705676    0.083527   -0.649765
     53          1           0        3.977459    2.828876    2.864520
     54          1           0        2.877384    3.027347    1.676006
     55          1           0        4.436514    2.721811    1.302078
     56          1           0        0.579555   -3.615384    1.453381
     57          1           0        2.215556   -3.518278    1.926841
     58          7           0        1.378218   -3.046162    1.649034
     59          6           0        1.329843   -1.716536    1.544442
     60          6           0        2.219684    0.487443    1.655706
     61          7           0        1.081581    1.094356    1.280482
     62          1           0       -0.836845    0.604739    0.750829
     63          6           0        0.123925    0.195783    1.060562
     64          7           0        0.170405   -1.136349    1.164772
     65          1           0        5.308542    0.243912    2.578639
     66          6           0        4.274540    0.055975    2.288006
     67          7           0        3.727087   -1.132129    2.208140
     68          6           0        2.424179   -0.872876    1.808197
     69          6           0        3.700074    2.530773    1.951172
     70          7           0        3.419437    1.081983    1.967331
 ---------------------------------------------------------------------

 SCF Done:  E(RwB97XD) =  -2048.64179968     A.U. after   15 cycles

 The electronic state is 1-A.
 Alpha  occ. eigenvalues --  -19.26197 -19.21943 -19.20393 -14.52786 -14.51308
 Alpha  occ. eigenvalues --  -14.50164 -14.48047 -14.47941 -14.46820 -14.45907
 Alpha  occ. eigenvalues --  -14.45664 -14.44348 -14.43531 -14.43242 -14.42824
 Alpha  occ. eigenvalues --  -14.42464 -14.42073 -14.41989 -14.41588 -14.40548
 Alpha  occ. eigenvalues --  -10.45765 -10.40763 -10.40060 -10.38577 -10.37876
 Alpha  occ. eigenvalues --  -10.37813 -10.37049 -10.36906 -10.36287 -10.35909
 Alpha  occ. eigenvalues --  -10.35439 -10.34999 -10.34694 -10.34503 -10.33939
 Alpha  occ. eigenvalues --  -10.33833 -10.32904 -10.32114 -10.31371 -10.31144
 Alpha  occ. eigenvalues --  -10.30005 -10.28774 -10.27886  -1.19886  -1.14309
 Alpha  occ. eigenvalues --   -1.13214  -1.12998  -1.12826  -1.10273  -1.09645
 Alpha  occ. eigenvalues --   -1.08685  -1.07865  -1.06646  -1.03689  -1.02623
 Alpha  occ. eigenvalues --   -1.02094  -1.00126  -0.99365  -0.98440  -0.98351
 Alpha  occ. eigenvalues --   -0.96291  -0.95512  -0.94249  -0.91219  -0.86888
 Alpha  occ. eigenvalues --   -0.85697  -0.85439  -0.84324  -0.83803  -0.83661
 Alpha  occ. eigenvalues --   -0.81766  -0.79063  -0.76110  -0.74844  -0.74366
 Alpha  occ. eigenvalues --   -0.73808  -0.73554  -0.73245  -0.72797  -0.69593
 Alpha  occ. eigenvalues --   -0.67880  -0.67385  -0.66726  -0.65985  -0.64679
 Alpha  occ. eigenvalues --   -0.64436  -0.63514  -0.63319  -0.62808  -0.61685
 Alpha  occ. eigenvalues --   -0.61525  -0.61030  -0.59878  -0.59726  -0.59212
 Alpha  occ. eigenvalues --   -0.58674  -0.58366  -0.58251  -0.57743  -0.57221
 Alpha  occ. eigenvalues --   -0.56612  -0.55992  -0.55725  -0.54770  -0.54405
 Alpha  occ. eigenvalues --   -0.54294  -0.53436  -0.53334  -0.53067  -0.52726
 Alpha  occ. eigenvalues --   -0.52240  -0.52090  -0.51916  -0.51486  -0.50970
 Alpha  occ. eigenvalues --   -0.50392  -0.49932  -0.49643  -0.49148  -0.48646
 Alpha  occ. eigenvalues --   -0.48589  -0.48468  -0.48013  -0.47716  -0.47405
 Alpha  occ. eigenvalues --   -0.47158  -0.45926  -0.45684  -0.44229  -0.42661
 Alpha  occ. eigenvalues --   -0.41586  -0.40191  -0.39798  -0.38886  -0.37309
 Alpha  occ. eigenvalues --   -0.37234  -0.37105  -0.35783  -0.35341  -0.34997
 Alpha  occ. eigenvalues --   -0.34895  -0.34702  -0.33321  -0.33121  -0.32904
 Alpha  occ. eigenvalues --   -0.32560  -0.32166  -0.31893  -0.31881  -0.31616
 Alpha  occ. eigenvalues --   -0.30912  -0.27175  -0.26878  -0.25249
 Alpha virt. eigenvalues --    0.03071   0.04518   0.06225   0.07956   0.08441
 Alpha virt. eigenvalues --    0.09088   0.09553   0.09751   0.11381   0.12331
 Alpha virt. eigenvalues --    0.12557   0.13417   0.14530   0.14548   0.14918

 Mulliken charges:
               1
     1  N   -0.313673
     2  C    0.180217
     3  C    0.047230
     4  N   -0.257012
     5  C    0.133671
     6  H    0.031087
     7  N   -0.259081
     8  C    0.133843
     9  H    0.023031
    10  N   -0.303235
    11  C    0.237454
    12  C    0.092491
    13  N   -0.042694
    14  H    0.107719
    15  H    0.088333
    16  H    0.029068
    17  H    0.035160
    18  H    0.028037
    19  N   -0.284895
    20  C    0.220804
    21  C    0.179751
    22  N   -0.064698
    23  H    0.095619
    24  H    0.110255
    25  N   -0.275415
    26  C    0.189195
    27  N   -0.102085
    28  H    0.123592
    29  C    0.122731
    30  O   -0.321903
    31  C    0.022285
    32  N   -0.222091
    33  C    0.111161
    34  H    0.026238
    35  H    0.022970
    36  H    0.020737
    37  H    0.011450
    38  H    0.051865
    39  H    0.068078
    40  H    0.082682
    41  H    0.032636
    42  C   -0.103121
    43  O   -0.264307
    44  C    0.186787
    45  H    0.133220
    46  N   -0.129380
    47  O   -0.349849
    48  C    0.350340
    49  H    0.046436
    50  C    0.171723
    51  C    0.026141
    52  N   -0.286373
    53  H    0.033811
    54  H    0.011245
    55  H    0.002176
    56  H    0.116676
    57  H    0.119981
    58  N   -0.069852
    59  C    0.132651
    60  C    0.212066
    61  N   -0.290802
    62  H    0.065963
    63  C    0.162477
    64  N   -0.304256
    65  H    0.023203
    66  C    0.108421
    67  N   -0.250858
    68  C    0.022198
    69  C    0.189655
    70  N   -0.278979
 Sum of Mulliken charges =  -0.00000

 Dipole moment (field-independent basis, Debye):
    X=              4.6817    Y=              5.6095    Z=              4.8095  Tot=              8.7474
 Quadrupole moment (field-independent basis, Debye-Ang):
   XX=           -137.2834   YY=           -230.4593   ZZ=           -258.7540
   XY=             18.4531   XZ=             16.7739   YZ=             -8.9476

 Normal termination of Gaussian 16 at Sat Jan 20 02:04:30 2018.
