 Gaussian 16, Revision A.03,
 Gaussian 16:  EM64L-G16RevA.03 25-Dec-2016

 ---------------------------------------
 #p wb97xd/cc-pvdz sp scf=(maxcycles=20)
 ---------------------------------------

 ------------------
 Base pair stacking
 ------------------
 Symbolic Z-matrix:
 Charge =  0 Multiplicity = 1

                         Standard orientation:
 ---------------------------------------------------------------------
 Center     Atomic      Atomic             Coordinates (Angstroms)
 Number     Number       Type             X           Y           Z
 ---------------------------------------------------------------------
      1          7           0        5.159983   -1.670508   -1.173778
      2          6           0        6.475576   -1.192771   -1.641745
      3          6           0        2.997423   -1.903087   -0.847399
      4          7           0        3.612221   -2.892779   -0.094242
      5          6           0        4.890485   -2.713052   -0.321014
      6          1           0        5.687973   -3.317714    0.111817
      7          7           0        1.374085   -0.518013   -1.852047
      8          6           0        2.392404    0.124747   -2.432969
      9          1           0        2.110294    0.954553   -3.079572
     10          7           0        3.700736   -0.102589   -2.335552
     11          6           0        3.938603   -1.141795   -1.518313
     12          6           0        1.646378   -1.559209   -1.035439
     13          7           0        0.631212   -2.202075   -0.454624
     14          1           0        0.786107   -2.978412    0.157363
     15          1           0       -0.318223   -1.929767   -0.611330
     16          1           0        6.945073   -1.929152   -2.129092
     17          1           0        6.349132   -0.415003   -2.256722
     18          1           0        7.027758   -0.909262   -0.857699
     19          7           0        4.954190    1.606129    0.773443
     20          6           0        3.591017    1.769894    0.718697
     21          6           0        5.948162    2.514406    0.167025
     22          7           0        0.818978    3.583838   -0.323979
     23          1           0       -0.175698    3.519532   -0.248331
     24          1           0        1.186030    4.365677   -0.828683
     25          7           0        2.935848    2.779947    0.106663
     26          6           0        1.625225    2.663476    0.226303
     27          7           0        1.001911    1.637136    0.893844
     28          1           0       -0.005679    1.628928    0.934682
     29          6           0        1.656022    0.587319    1.530942
     30          8           0        0.998950   -0.289459    2.105619
     31          6           0        3.064593    0.698729    1.411005
     32          7           0        4.076903   -0.121028    1.890728
     33          6           0        5.177322    0.455301    1.489312
     34          1           0        6.182319    0.081780    1.688642
     35          1           0        6.496376    2.012844   -0.501339
     36          1           0        5.474523    3.266563   -0.289242
     37          1           0        6.545257    2.881304    0.879541
     38          1           0       -5.037251    1.817733    0.227372
     39          1           0       -5.029982    2.508846    1.848163
     40          1           0       -3.665465    2.787216    0.765575
     41          1           0       -4.480835   -2.158496    2.878136
     42          6           0       -3.887970   -1.318034    2.517097
     43          8           0       -1.803588   -2.363093    2.953358
     44          6           0       -2.459865   -1.404273    2.547453
     45          1           0       -0.796352   -0.310449    2.073572
     46          7           0       -1.806366   -0.286957    2.068094
     47          8           0       -1.715166    1.800166    1.177715
     48          6           0       -2.378902    0.861310    1.581022
     49          1           0       -5.557590   -0.095643    2.003341
     50          6           0       -4.475448   -0.211155    2.047740
     51          6           0       -4.416506    2.074682    1.072778
     52          7           0       -3.759898    0.868416    1.584193
     53          1           0       -5.923715    1.989833   -3.622678
     54          1           0       -4.582399    2.557053   -2.886988
     55          1           0       -6.041248    2.740541   -2.178360
     56          1           0       -2.745766   -3.402729    0.363108
     57          1           0       -4.434954   -3.276911    0.160848
     58          7           0       -3.527409   -2.877501    0.026492
     59          6           0       -3.367721   -1.696852   -0.574967
     60          6           0       -4.109302    0.283615   -1.665625
     61          7           0       -2.878643    0.795569   -1.832386
     62          1           0       -0.928802    0.314044   -1.423921
     63          6           0       -1.959192   -0.026248   -1.330272
     64          7           0       -2.117127   -1.209160   -0.727490
     65          1           0       -7.333740    0.141767   -1.852905
     66          6           0       -6.276552   -0.050250   -1.667379
     67          7           0       -5.806481   -1.119501   -1.072898
     68          6           0       -4.433497   -0.920542   -1.065251
     69          6           0       -5.476760    2.135558   -2.740074
     70          7           0       -5.304957    0.841047   -2.052517
 ---------------------------------------------------------------------

 SCF Done:  E(RwB97XD) =  -2048.75145310     A.U. after   15 cycles

 The electronic state is 1-A.
 Alpha  occ. eigenvalues --  -19.25415 -19.21871 -19.20655 -14.52543 -14.51952
 Alpha  occ. eigenvalues --  -14.49023 -14.48768 -14.47850 -14.47422 -14.46848
 Alpha  occ. eigenvalues --  -14.46675 -14.45465 -14.44381 -14.44365 -14.42466
 Alpha  occ. eigenvalues --  -14.42017 -14.41162 -14.41161 -14.41152 -14.40595
 Alpha  occ. eigenvalues --  -10.45002 -10.41241 -10.39892 -10.39834 -10.38290
 Alpha  occ. eigenvalues --  -10.38010 -10.37216 -10.37105 -10.35861 -10.35636
 Alpha  occ. eigenvalues --  -10.34816 -10.34498 -10.34043 -10.33945 -10.33664
 Alpha  occ. eigenvalues --  -10.33445 -10.33315 -10.32671 -10.31351 -10.31171
 Alpha  occ. eigenvalues --  -10.30678 -10.28574 -10.28269  -1.19016  -1.15296
 Alpha  occ. eigenvalues --   -1.13249  -1.12842  -1.11316  -1.10755  -1.09303
 Alpha  occ. eigenvalues --   -1.08865  -1.08584  -1.05257  -1.04752  -1.02133
 Alpha  occ. eigenvalues --   -1.01000  -1.00604  -0.99752  -0.98599  -0.97040
 Alpha  occ. eigenvalues --   -0.96804  -0.96746  -0.92935  -0.90586  -0.87672
 Alpha  occ. eigenvalues --   -0.85971  -0.84309  -0.84034  -0.83280  -0.82722
 Alpha  occ. eigenvalues --   -0.82471  -0.78423  -0.77027  -0.74846  -0.74760
 Alpha  occ. eigenvalues --   -0.73661  -0.73025  -0.72979  -0.71192  -0.70363
 Alpha  occ. eigenvalues --   -0.67460  -0.66766  -0.66437  -0.66131  -0.64405
 Alpha  occ. eigenvalues --   -0.64180  -0.63663  -0.62862  -0.62653  -0.61853
 Alpha  occ. eigenvalues --   -0.61090  -0.60586  -0.60391  -0.59502  -0.59052
 Alpha  occ. eigenvalues --   -0.58727  -0.58409  -0.57418  -0.56724  -0.56090
 Alpha  occ. eigenvalues --   -0.55759  -0.55672  -0.55282  -0.54234  -0.54042
 Alpha  occ. eigenvalues --   -0.53810  -0.53640  -0.53571  -0.53322  -0.53030
 Alpha  occ. eigenvalues --   -0.52829  -0.52064  -0.51955  -0.50822  -0.50453
 Alpha  occ. eigenvalues --   -0.50265  -0.50000  -0.49320  -0.49046  -0.48927
 Alpha  occ. eigenvalues --   -0.48824  -0.48418  -0.48251  -0.47852  -0.47291
 Alpha  occ. eigenvalues --   -0.47088  -0.46066  -0.45179  -0.44846  -0.42951
 Alpha  occ. eigenvalues --   -0.41190  -0.40737  -0.39086  -0.37960  -0.37553
 Alpha  occ. eigenvalues --   -0.37317  -0.37252  -0.37170  -0.36054  -0.34572
 Alpha  occ. eigenvalues --   -0.34387  -0.34041  -0.33612  -0.33438  -0.33119
 Alpha  occ. eigenvalues --   -0.32751  -0.32446  -0.31896  -0.31641  -0.31012
 Alpha  occ. eigenvalues --   -0.30612  -0.29791  -0.26311  -0.25164
 Alpha virt. eigenvalues --    0.03505   0.03960   0.07178   0.07692   0.08614
 Alpha virt. eigenvalues --    0.09025   0.09684   0.10407   0.10919   0.12286
 Alpha virt. eigenvalues --    0.13131   0.13297   0.14293   0.14357   0.14888

 Mulliken charges:
               1
     1  N   -0.302973
     2  C    0.178358
     3  C    0.062192
     4  N   -0.247363
     5  C    0.138788
     6  H    0.024897
     7  N   -0.291008
     8  C    0.132431
     9  H    0.010351
    10  N   -0.283611
    11  C    0.230125
    12  C    0.080977
    13  N   -0.045279
    14  H    0.114707
    15  H    0.084520
    16  H    0.027624
    17  H    0.035369
    18  H    0.014420
    19  N   -0.304592
    20  C    0.259292
    21  C    0.184308
    22  N   -0.124309
    23  H    0.118956
    24  H    0.118465
    25  N   -0.307870
    26  C    0.245347
    27  N   -0.140286
    28  H    0.118530
    29  C    0.183720
    30  O   -0.322332
    31  C   -0.015892
    32  N   -0.214995
    33  C    0.111560
    34  H    0.020521
    35  H    0.019403
    36  H    0.032434
    37  H    0.024218
    38  H    0.047521
    39  H    0.058029
    40  H    0.076092
    41  H    0.019461
    42  C   -0.099567
    43  O   -0.273372
    44  C    0.162548
    45  H    0.128668
    46  N   -0.107606
    47  O   -0.348029
    48  C    0.334831
    49  H    0.044878
    50  C    0.167314
    51  C    0.046373
    52  N   -0.276812
    53  H    0.035654
    54  H    0.042190
    55  H    0.024929
    56  H    0.126697
    57  H    0.116461
    58  N   -0.050592
    59  C    0.082972
    60  C    0.211328
    61  N   -0.261684
    62  H    0.027508
    63  C    0.160802
    64  N   -0.300452
    65  H    0.035886
    66  C    0.124056
    67  N   -0.253444
    68  C    0.048086
    69  C    0.179250
    70  N   -0.300981
 Sum of Mulliken charges =  -0.00000

 Dipole moment (field-independent basis, Debye):
    X=             -5.8001    Y=              6.4618    Z=             -4.0995  Tot=              9.6022
 Quadrupole moment (field-independent basis, Debye-Ang):
   XX=           -148.1179   YY=           -223.9175   ZZ=           -260.0811
   XY=             -8.5221   XZ=             -1.7067   YZ=              1.2859

 Normal termination of Gaussian 16 at Sat Jan 20 04:42:15 2018.
