 Gaussian 16, Revision A.03,
 Gaussian 16:  EM64L-G16RevA.03 25-Dec-2016

 ---------------------------------------
 #p wb97xd/cc-pvdz sp scf=(maxcycles=20)
 ---------------------------------------

 ------------------
 Base pair stacking
 ------------------
 Symbolic Z-matrix:
 Charge =  0 Multiplicity = 1

                         Standard orientation:
 ---------------------------------------------------------------------
 Center     Atomic      Atomic             Coordinates (Angstroms)
 Number     Number       Type             X           Y           Z
 ---------------------------------------------------------------------
      1          7           0       -5.159411   -2.029570    0.731229
      2          6           0       -6.468138   -1.773229    1.363306
      3          6           0       -3.002616   -2.097292    0.305810
      4          7           0       -3.626317   -2.753596   -0.745374
      5          6           0       -4.900745   -2.686522   -0.447007
      6          1           0       -5.702993   -3.103317   -1.056615
      7          7           0       -1.368057   -1.150182    1.717960
      8          6           0       -2.378335   -0.777113    2.510256
      9          1           0       -2.088396   -0.235588    3.409672
     10          7           0       -3.686851   -0.971621    2.359050
     11          6           0       -3.934709   -1.645474    1.223749
     12          6           0       -1.650307   -1.826602    0.583116
     13          7           0       -0.643180   -2.199865   -0.209071
     14          1           0       -0.805570   -2.702406   -1.058956
     15          1           0        0.307461   -1.990022    0.019833
     16          1           0       -6.922321   -2.642919    1.557061
     17          1           0       -6.334128   -1.270836    2.216988
     18          1           0       -7.038510   -1.231616    0.745795
     19          7           0       -4.948908    1.851865   -0.352950
     20          6           0       -3.585917    2.007184   -0.274481
     21          6           0       -5.941651    2.616660    0.428239
     22          7           0       -0.812621    3.588319    1.093232
     23          1           0        0.181736    3.544620    1.000539
     24          1           0       -1.178726    4.252162    1.745905
     25          7           0       -2.929812    2.877568    0.523031
     26          6           0       -1.619651    2.792863    0.375000
     27          7           0       -0.997611    1.923006   -0.487509
     28          1           0        0.009711    1.927375   -0.534958
     29          6           0       -1.652690    1.018656   -1.317508
     30          8           0       -0.996734    0.276962   -2.059366
     31          6           0       -3.060779    1.097935   -1.169636
     32          7           0       -4.073725    0.386108   -1.797455
     33          6           0       -5.173240    0.866095   -1.282771
     34          1           0       -6.178388    0.535599   -1.546837
     35          1           0       -6.484011    1.989515    0.986221
     36          1           0       -5.467318    3.264651    1.022702
     37          1           0       -6.544451    3.115818   -0.193276
     38          1           0        5.045180    1.992543    0.166806
     39          1           0        5.025324    2.993134   -1.283396
     40          1           0        3.667034    3.044108   -0.159199
     41          1           0        4.483501   -1.377127   -3.220880
     42          6           0        3.890472   -0.628118   -2.695969
     43          8           0        1.806449   -1.573920   -3.319997
     44          6           0        2.462467   -0.712616   -2.734701
     45          1           0        0.798786    0.257614   -2.042495
     46          7           0        1.808744    0.283809   -2.038252
     47          8           0        1.717061    2.150896   -0.748767
     48          6           0        2.380979    1.314217   -1.335144
     49          1           0        5.559723    0.474241   -1.958243
     50          6           0        4.477664    0.365327   -2.018560
     51          6           0        4.418195    2.410393   -0.606734
     52          7           0        3.761904    1.327664   -1.344788
     53          1           0        5.948007    0.643017    4.155573
     54          1           0        4.587768    1.420277    3.699808
     55          1           0        6.030194    1.869333    3.081878
     56          1           0        2.724025   -2.973510   -1.465129
     57          1           0        4.416185   -2.906356   -1.259724
     58          7           0        3.508952   -2.595906   -0.973762
     59          6           0        3.353872   -1.717357    0.018857
     60          6           0        4.104660   -0.259318    1.742856
     61          7           0        2.874317    0.139665    2.105476
     62          1           0        0.919665   -0.187381    1.582979
     63          6           0        1.950153   -0.455875    1.354357
     64          7           0        2.103466   -1.336074    0.359717
     65          1           0        7.333202   -0.414624    1.810743
     66          6           0        6.273682   -0.540692    1.586071
     67          7           0        5.798542   -1.326808    0.651211
     68          6           0        4.424385   -1.157866    0.739892
     69          6           0        5.481695    1.093629    3.394327
     70          7           0        5.304339    0.135744    2.285724
 ---------------------------------------------------------------------

 SCF Done:  E(RwB97XD) =  -2048.74261998     A.U. after   15 cycles

 The electronic state is 1-A.
 Alpha  occ. eigenvalues --  -19.25546 -19.22242 -19.20784 -14.52405 -14.51988
 Alpha  occ. eigenvalues --  -14.49105 -14.48588 -14.47651 -14.47494 -14.47020
 Alpha  occ. eigenvalues --  -14.46816 -14.45346 -14.44265 -14.44225 -14.42162
 Alpha  occ. eigenvalues --  -14.42159 -14.41217 -14.40949 -14.40935 -14.40365
 Alpha  occ. eigenvalues --  -10.45109 -10.41394 -10.40212 -10.39604 -10.38415
 Alpha  occ. eigenvalues --  -10.37897 -10.37097 -10.36935 -10.35691 -10.35394
 Alpha  occ. eigenvalues --  -10.34987 -10.34606 -10.33865 -10.33737 -10.33713
 Alpha  occ. eigenvalues --  -10.33255 -10.33119 -10.32570 -10.31251 -10.31158
 Alpha  occ. eigenvalues --  -10.30844 -10.28373 -10.28369  -1.19128  -1.15140
 Alpha  occ. eigenvalues --   -1.13381  -1.13249  -1.11124  -1.10855  -1.09202
 Alpha  occ. eigenvalues --   -1.08924  -1.08715  -1.05034  -1.04641  -1.02359
 Alpha  occ. eigenvalues --   -1.00862  -1.00364  -0.99899  -0.98730  -0.96900
 Alpha  occ. eigenvalues --   -0.96830  -0.96615  -0.92701  -0.90690  -0.87529
 Alpha  occ. eigenvalues --   -0.85816  -0.84395  -0.83848  -0.83389  -0.82796
 Alpha  occ. eigenvalues --   -0.82282  -0.78535  -0.76892  -0.74871  -0.74726
 Alpha  occ. eigenvalues --   -0.73799  -0.73163  -0.72807  -0.70985  -0.70226
 Alpha  occ. eigenvalues --   -0.67587  -0.66733  -0.66240  -0.66157  -0.64539
 Alpha  occ. eigenvalues --   -0.64068  -0.63765  -0.62770  -0.62632  -0.61973
 Alpha  occ. eigenvalues --   -0.60727  -0.60394  -0.60235  -0.59358  -0.59097
 Alpha  occ. eigenvalues --   -0.58860  -0.58534  -0.57203  -0.56515  -0.56185
 Alpha  occ. eigenvalues --   -0.55892  -0.55436  -0.55131  -0.54455  -0.54234
 Alpha  occ. eigenvalues --   -0.53787  -0.53747  -0.53515  -0.53242  -0.53141
 Alpha  occ. eigenvalues --   -0.52679  -0.52211  -0.51749  -0.50745  -0.50405
 Alpha  occ. eigenvalues --   -0.50263  -0.49845  -0.49615  -0.49233  -0.49033
 Alpha  occ. eigenvalues --   -0.48816  -0.48619  -0.47985  -0.47876  -0.47458
 Alpha  occ. eigenvalues --   -0.46900  -0.46092  -0.45101  -0.44738  -0.42863
 Alpha  occ. eigenvalues --   -0.41006  -0.40605  -0.39227  -0.38066  -0.37454
 Alpha  occ. eigenvalues --   -0.37395  -0.37341  -0.36984  -0.36104  -0.34468
 Alpha  occ. eigenvalues --   -0.34365  -0.33915  -0.33474  -0.33460  -0.33298
 Alpha  occ. eigenvalues --   -0.32893  -0.32455  -0.31929  -0.31799  -0.30844
 Alpha  occ. eigenvalues --   -0.30402  -0.29443  -0.26236  -0.25129
 Alpha virt. eigenvalues --    0.03474   0.04107   0.07320   0.07824   0.08481
 Alpha virt. eigenvalues --    0.09056   0.09552   0.10475   0.11082   0.11991
 Alpha virt. eigenvalues --    0.13062   0.13115   0.14269   0.14565   0.14835

 Mulliken charges:
               1
     1  N   -0.305811
     2  C    0.180546
     3  C    0.055026
     4  N   -0.243438
     5  C    0.137660
     6  H    0.023876
     7  N   -0.295031
     8  C    0.133508
     9  H    0.010238
    10  N   -0.287986
    11  C    0.235320
    12  C    0.085315
    13  N   -0.044506
    14  H    0.116513
    15  H    0.084805
    16  H    0.026746
    17  H    0.033566
    18  H    0.015104
    19  N   -0.308626
    20  C    0.261196
    21  C    0.182443
    22  N   -0.124786
    23  H    0.118215
    24  H    0.119075
    25  N   -0.311752
    26  C    0.250334
    27  N   -0.147078
    28  H    0.119817
    29  C    0.190881
    30  O   -0.323108
    31  C   -0.017888
    32  N   -0.215099
    33  C    0.116431
    34  H    0.020163
    35  H    0.023354
    36  H    0.031870
    37  H    0.024708
    38  H    0.050196
    39  H    0.059071
    40  H    0.075221
    41  H    0.017483
    42  C   -0.102266
    43  O   -0.278405
    44  C    0.160969
    45  H    0.128534
    46  N   -0.104422
    47  O   -0.350708
    48  C    0.338015
    49  H    0.044037
    50  C    0.169912
    51  C    0.045540
    52  N   -0.279096
    53  H    0.034873
    54  H    0.042543
    55  H    0.024762
    56  H    0.126751
    57  H    0.114673
    58  N   -0.044235
    59  C    0.076429
    60  C    0.228069
    61  N   -0.265704
    62  H    0.031293
    63  C    0.162160
    64  N   -0.300136
    65  H    0.036141
    66  C    0.126515
    67  N   -0.256769
    68  C    0.043086
    69  C    0.180304
    70  N   -0.306438
 Sum of Mulliken charges =  -0.00000

 Dipole moment (field-independent basis, Debye):
    X=              5.8090    Y=              5.8023    Z=              5.0622  Tot=              9.6456
 Quadrupole moment (field-independent basis, Debye-Ang):
   XX=           -147.9175   YY=           -226.3645   ZZ=           -255.8494
   XY=              8.2001   XZ=              1.3615   YZ=              7.7552

 Normal termination of Gaussian 16 at Fri Jan 19 19:47:18 2018.
