 Gaussian 16, Revision A.03,
 Gaussian 16:  EM64L-G16RevA.03 25-Dec-2016

 ---------------------------------------
 #p wb97xd/cc-pvdz sp scf=(maxcycles=20)
 ---------------------------------------

 ------------------
 Base pair stacking
 ------------------
 Symbolic Z-matrix:
 Charge =  0 Multiplicity = 1

                         Standard orientation:
 ---------------------------------------------------------------------
 Center     Atomic      Atomic             Coordinates (Angstroms)
 Number     Number       Type             X           Y           Z
 ---------------------------------------------------------------------
      1          7           0        5.748330   -1.126676   -1.026152
      2          6           0        7.063241   -0.461657   -1.108314
      3          6           0        3.586297   -1.529633   -1.050002
      4          7           0        4.202045   -2.733501   -0.739672
      5          6           0        5.479944   -2.442546   -0.737720
      6          1           0        6.277948   -3.156098   -0.530421
      7          7           0        1.961747    0.115461   -1.516319
      8          6           0        2.979260    0.971068   -1.658402
      9          1           0        2.696330    1.992585   -1.908812
     10          7           0        4.287651    0.755284   -1.538162
     11          6           0        4.526567   -0.530025   -1.229400
     12          6           0        2.235079   -1.170537   -1.205547
     13          7           0        1.220726   -2.026128   -1.063306
     14          1           0        1.376405   -2.987489   -0.833604
     15          1           0        0.271139   -1.735491   -1.181424
     16          1           0        7.616913   -0.901090   -1.815792
     17          1           0        6.936009    0.502979   -1.337235
     18          1           0        7.531574   -0.534567   -0.227778
     19          7           0        4.363102    1.386607    1.223452
     20          6           0        3.001746    1.518940    1.092149
     21          6           0        5.363592    2.380753    0.785968
     22          7           0        0.244678    3.359662    0.056746
     23          1           0       -0.750075    3.261162    0.056298
     24          1           0        0.617526    4.200555   -0.336447
     25          7           0        2.354543    2.570935    0.545802
     26          6           0        1.043570    2.407453    0.561689
     27          7           0        0.412699    1.299290    1.073035
     28          1           0       -0.594533    1.259927    1.043047
     29          6           0        1.058541    0.205059    1.639976
     30          8           0        0.395062   -0.745407    2.072571
     31          6           0        2.467379    0.366155    1.630042
     32          7           0        3.473020   -0.473022    2.089785
     33          6           0        4.577376    0.172086    1.828158
     34          1           0        5.579116   -0.193749    2.056118
     35          1           0        5.971292    1.968446    0.108100
     36          1           0        4.895871    3.164574    0.379610
     37          1           0        5.899690    2.684991    1.572633
     38          1           0       -5.572079    1.389351    0.013458
     39          1           0       -5.694984    1.902849    1.694491
     40          1           0       -4.272306    2.331791    0.744050
     41          1           0       -5.057365   -2.831691    2.263904
     42          6           0       -4.470767   -1.941902    2.034995
     43          8           0       -2.385507   -2.971796    2.502061
     44          6           0       -3.045670   -1.992837    2.154756
     45          1           0       -1.392485   -0.810641    1.914506
     46          7           0       -2.400168   -0.813601    1.841739
     47          8           0       -2.321129    1.358571    1.183994
     48          6           0       -2.977872    0.364572    1.439603
     49          1           0       -6.143295   -0.716404    1.538369
     50          6           0       -5.063138   -0.807146    1.645060
     51          6           0       -5.017422    1.570720    0.922052
     52          7           0       -4.355517    0.334533    1.348062
     53          1           0       -5.319013    2.969059   -2.753189
     54          1           0       -4.080286    3.191370   -1.714803
     55          1           0       -5.599819    3.013289   -1.146140
     56          1           0       -2.125602   -3.543184   -1.185235
     57          1           0       -3.797875   -3.382209   -1.481339
     58          7           0       -2.910360   -2.942607   -1.338906
     59          6           0       -2.780209   -1.614447   -1.353429
     60          6           0       -3.559489    0.624969   -1.552072
     61          7           0       -2.355296    1.187673   -1.357865
     62          1           0       -0.417093    0.623040   -1.004084
     63          6           0       -1.427393    0.251440   -1.169831
     64          7           0       -1.555749   -1.079301   -1.154926
     65          1           0       -6.742685    0.501906   -2.103661
     66          6           0       -5.693424    0.273556   -1.914310
     67          7           0       -5.203827   -0.936292   -1.795036
     68          6           0       -3.851649   -0.727806   -1.565102
     69          6           0       -4.954250    2.726743   -1.854166
     70          7           0       -4.754137    1.266528   -1.778357
 ---------------------------------------------------------------------

 SCF Done:  E(RwB97XD) =  -2048.72202021     A.U. after   15 cycles

 The electronic state is 1-A.
 Alpha  occ. eigenvalues --  -19.25217 -19.21497 -19.20552 -14.52553 -14.51996
 Alpha  occ. eigenvalues --  -14.49412 -14.48357 -14.47915 -14.47347 -14.46742
 Alpha  occ. eigenvalues --  -14.46550 -14.45786 -14.44315 -14.44282 -14.42964
 Alpha  occ. eigenvalues --  -14.41878 -14.41840 -14.41332 -14.40657 -14.40610
 Alpha  occ. eigenvalues --  -10.44815 -10.41110 -10.39844 -10.39621 -10.38212
 Alpha  occ. eigenvalues --  -10.38137 -10.37290 -10.37250 -10.36018 -10.35697
 Alpha  occ. eigenvalues --  -10.34564 -10.34559 -10.34427 -10.34041 -10.33894
 Alpha  occ. eigenvalues --  -10.33378 -10.33138 -10.32760 -10.31951 -10.30562
 Alpha  occ. eigenvalues --  -10.30239 -10.28998 -10.27915  -1.19072  -1.15598
 Alpha  occ. eigenvalues --   -1.13108  -1.12536  -1.11924  -1.10357  -1.09326
 Alpha  occ. eigenvalues --   -1.08842  -1.08449  -1.05592  -1.04767  -1.02048
 Alpha  occ. eigenvalues --   -1.01310  -1.01079  -0.99607  -0.98425  -0.97597
 Alpha  occ. eigenvalues --   -0.96847  -0.96307  -0.93255  -0.90557  -0.87931
 Alpha  occ. eigenvalues --   -0.86326  -0.84597  -0.83866  -0.83438  -0.83029
 Alpha  occ. eigenvalues --   -0.82073  -0.78408  -0.77218  -0.75050  -0.74417
 Alpha  occ. eigenvalues --   -0.73556  -0.73438  -0.72959  -0.71593  -0.70554
 Alpha  occ. eigenvalues --   -0.67241  -0.66942  -0.66889  -0.66171  -0.64506
 Alpha  occ. eigenvalues --   -0.64299  -0.63689  -0.63335  -0.62586  -0.62274
 Alpha  occ. eigenvalues --   -0.61612  -0.60992  -0.60621  -0.59684  -0.59178
 Alpha  occ. eigenvalues --   -0.58303  -0.57990  -0.57895  -0.57202  -0.56336
 Alpha  occ. eigenvalues --   -0.56015  -0.55813  -0.55392  -0.54231  -0.54154
 Alpha  occ. eigenvalues --   -0.53871  -0.53614  -0.53376  -0.53006  -0.52906
 Alpha  occ. eigenvalues --   -0.52715  -0.52398  -0.52155  -0.51259  -0.50772
 Alpha  occ. eigenvalues --   -0.50045  -0.49797  -0.49419  -0.49092  -0.48850
 Alpha  occ. eigenvalues --   -0.48463  -0.48253  -0.48071  -0.47665  -0.47128
 Alpha  occ. eigenvalues --   -0.46809  -0.45848  -0.45527  -0.44761  -0.42854
 Alpha  occ. eigenvalues --   -0.41500  -0.40918  -0.39117  -0.37859  -0.37746
 Alpha  occ. eigenvalues --   -0.37650  -0.37143  -0.36904  -0.36103  -0.34791
 Alpha  occ. eigenvalues --   -0.34380  -0.34192  -0.33886  -0.33539  -0.32828
 Alpha  occ. eigenvalues --   -0.32431  -0.32253  -0.31677  -0.31568  -0.30992
 Alpha  occ. eigenvalues --   -0.30972  -0.29321  -0.26175  -0.25369
 Alpha virt. eigenvalues --    0.03627   0.03699   0.06961   0.07248   0.08550
 Alpha virt. eigenvalues --    0.08958   0.09746   0.10227   0.10858   0.12577
 Alpha virt. eigenvalues --    0.13295   0.13690   0.14040   0.14118   0.14554

 Mulliken charges:
               1
     1  N   -0.305289
     2  C    0.172759
     3  C    0.079128
     4  N   -0.252691
     5  C    0.130524
     6  H    0.027174
     7  N   -0.283937
     8  C    0.140213
     9  H    0.012952
    10  N   -0.285589
    11  C    0.216785
    12  C    0.084027
    13  N   -0.048409
    14  H    0.109565
    15  H    0.085753
    16  H    0.029166
    17  H    0.044148
    18  H    0.021073
    19  N   -0.274536
    20  C    0.211402
    21  C    0.197763
    22  N   -0.107913
    23  H    0.116003
    24  H    0.116171
    25  N   -0.294772
    26  C    0.221817
    27  N   -0.135522
    28  H    0.118376
    29  C    0.174728
    30  O   -0.322052
    31  C    0.001659
    32  N   -0.215648
    33  C    0.114487
    34  H    0.014569
    35  H    0.000559
    36  H    0.028967
    37  H    0.019645
    38  H    0.043345
    39  H    0.054734
    40  H    0.070580
    41  H    0.025956
    42  C   -0.107116
    43  O   -0.267982
    44  C    0.169793
    45  H    0.130947
    46  N   -0.116060
    47  O   -0.329387
    48  C    0.326828
    49  H    0.042924
    50  C    0.171899
    51  C    0.048867
    52  N   -0.273002
    53  H    0.037424
    54  H    0.043051
    55  H    0.023500
    56  H    0.123589
    57  H    0.119607
    58  N   -0.060717
    59  C    0.103220
    60  C    0.183830
    61  N   -0.244154
    62  H    0.034115
    63  C    0.144012
    64  N   -0.296089
    65  H    0.038043
    66  C    0.109702
    67  N   -0.243774
    68  C    0.055031
    69  C    0.172528
    70  N   -0.298302
 Sum of Mulliken charges =  -0.00000

 Dipole moment (field-independent basis, Debye):
    X=             -5.5439    Y=              6.4664    Z=             -4.4517  Tot=              9.6107
 Quadrupole moment (field-independent basis, Debye-Ang):
   XX=           -147.4855   YY=           -227.0059   ZZ=           -261.5938
   XY=            -10.9084   XZ=              3.0373   YZ=             10.7316

 Normal termination of Gaussian 16 at Fri Jan 19 17:57:43 2018.
