 Gaussian 16, Revision A.03,
 Gaussian 16:  EM64L-G16RevA.03 25-Dec-2016

 ---------------------------------------
 #p wb97xd/cc-pvdz sp scf=(maxcycles=20)
 ---------------------------------------

 ------------------
 Base pair stacking
 ------------------
 Symbolic Z-matrix:
 Charge =  0 Multiplicity = 1

                         Standard orientation:
 ---------------------------------------------------------------------
 Center     Atomic      Atomic             Coordinates (Angstroms)
 Number     Number       Type             X           Y           Z
 ---------------------------------------------------------------------
      1          7           0        4.572711   -1.009145   -1.823670
      2          6           0        5.890638   -0.370978   -2.007603
      3          6           0        2.411004   -1.356002   -1.613829
      4          7           0        3.016619   -2.598682   -1.496747
      5          6           0        4.294726   -2.339978   -1.627850
      6          1           0        5.086048   -3.089170   -1.589655
      7          7           0        0.801549    0.364998   -1.717405
      8          6           0        1.823971    1.205745   -1.905469
      9          1           0        1.549267    2.253217   -2.022083
     10          7           0        3.128668    0.948042   -1.970808
     11          6           0        3.357414   -0.366504   -1.815650
     12          6           0        1.064651   -0.951251   -1.564629
     13          7           0        0.045365   -1.792056   -1.376791
     14          1           0        0.193478   -2.774616   -1.259081
     15          1           0       -0.900519   -1.468680   -1.347349
     16          1           0        6.337394   -0.752857   -2.816763
     17          1           0        5.770942    0.614084   -2.127808
     18          1           0        6.460364   -0.540127   -1.203373
     19          7           0        5.524326    1.028065    0.880480
     20          6           0        4.163301    1.208050    0.937678
     21          6           0        6.507920    2.065833    0.511321
     22          7           0        1.382925    3.258618    0.582125
     23          1           0        0.391387    3.180880    0.682424
     24          1           0        1.742303    4.149663    0.303564
     25          7           0        3.501169    2.353974    0.668417
     26          6           0        2.194966    2.215426    0.810688
     27          7           0        1.582083    1.045063    1.187717
     28          1           0        0.577197    1.031070    1.271181
     29          6           0        2.243493   -0.146096    1.469735
     30          8           0        1.595664   -1.146479    1.801816
     31          6           0        3.647446   -0.012848    1.321208
     32          7           0        4.664148   -0.940649    1.501181
     33          6           0        5.756755   -0.279989    1.229260
     34          1           0        6.762336   -0.700228    1.267630
     35          1           0        7.017653    1.771999   -0.296539
     36          1           0        6.029056    2.919231    0.309674
     37          1           0        7.141658    2.211781    1.270188
     38          1           0       -4.475763    1.440543    0.880421
     39          1           0       -4.386302    1.642337    2.628541
     40          1           0       -3.064564    2.209541    1.607433
     41          1           0       -3.879397   -3.128158    2.265302
     42          6           0       -3.287201   -2.222974    2.130500
     43          8           0       -1.205603   -3.360264    2.155256
     44          6           0       -1.860935   -2.322061    2.068952
     45          1           0       -0.199440   -1.147715    1.848354
     46          7           0       -1.208166   -1.118144    1.896561
     47          8           0       -1.116866    1.135462    1.631739
     48          6           0       -1.779851    0.124316    1.782394
     49          1           0       -4.954558   -0.895906    2.062640
     50          6           0       -3.873813   -1.025157    2.022253
     51          6           0       -3.814722    1.443179    1.734280
     52          7           0       -3.159068    0.137745    1.851433
     53          1           0       -6.468990    3.498655   -1.760463
     54          1           0       -5.105263    3.589484   -0.869344
     55          1           0       -6.549111    3.393531   -0.133825
     56          1           0       -3.342866   -3.209551   -1.219308
     57          1           0       -5.031977   -2.980614   -1.287168
     58          7           0       -4.118525   -2.578288   -1.216727
     59          6           0       -3.943661   -1.258474   -1.123521
     60          6           0       -4.660690    1.007669   -1.013210
     61          7           0       -3.422410    1.519887   -0.919841
     62          1           0       -1.476947    0.877337   -0.865981
     63          6           0       -2.512590    0.547872   -0.937729
     64          7           0       -2.685729   -0.774585   -1.031013
     65          1           0       -7.889834    1.014944   -1.170564
     66          6           0       -6.834134    0.744253   -1.136325
     67          7           0       -6.377258   -0.482838   -1.192704
     68          6           0       -5.000509   -0.330076   -1.115629
     69          6           0       -6.005793    3.161622   -0.940796
     70          7           0       -5.850328    1.696578   -1.027167
 ---------------------------------------------------------------------

 SCF Done:  E(RwB97XD) =  -2048.73095546     A.U. after   15 cycles

 The electronic state is 1-A.
 Alpha  occ. eigenvalues --  -19.25069 -19.21301 -19.20645 -14.53029 -14.51524
 Alpha  occ. eigenvalues --  -14.49356 -14.48792 -14.48566 -14.47103 -14.46701
 Alpha  occ. eigenvalues --  -14.46650 -14.45813 -14.44730 -14.44693 -14.43011
 Alpha  occ. eigenvalues --  -14.41808 -14.41570 -14.41345 -14.41289 -14.40888
 Alpha  occ. eigenvalues --  -10.44672 -10.41089 -10.40481 -10.39393 -10.38372
 Alpha  occ. eigenvalues --  -10.38301 -10.37657 -10.36925 -10.36274 -10.35985
 Alpha  occ. eigenvalues --  -10.34597 -10.34362 -10.34089 -10.33942 -10.33634
 Alpha  occ. eigenvalues --  -10.33503 -10.33310 -10.33231 -10.31558 -10.31166
 Alpha  occ. eigenvalues --  -10.30289 -10.28794 -10.28415  -1.18700  -1.15807
 Alpha  occ. eigenvalues --   -1.13312  -1.12311  -1.11422  -1.10979  -1.09867
 Alpha  occ. eigenvalues --   -1.08608  -1.08384  -1.05586  -1.05411  -1.01690
 Alpha  occ. eigenvalues --   -1.01438  -1.00994  -0.99717  -0.98652  -0.97513
 Alpha  occ. eigenvalues --   -0.97080  -0.96965  -0.93277  -0.90166  -0.88193
 Alpha  occ. eigenvalues --   -0.86381  -0.84642  -0.84076  -0.83012  -0.82597
 Alpha  occ. eigenvalues --   -0.82531  -0.78073  -0.77513  -0.75458  -0.74901
 Alpha  occ. eigenvalues --   -0.73682  -0.73240  -0.72556  -0.71472  -0.70899
 Alpha  occ. eigenvalues --   -0.67508  -0.67309  -0.66672  -0.65790  -0.64723
 Alpha  occ. eigenvalues --   -0.64525  -0.63357  -0.63146  -0.62654  -0.61901
 Alpha  occ. eigenvalues --   -0.61515  -0.61015  -0.60825  -0.59976  -0.58908
 Alpha  occ. eigenvalues --   -0.58784  -0.58480  -0.58275  -0.56975  -0.56091
 Alpha  occ. eigenvalues --   -0.55743  -0.55611  -0.55482  -0.54659  -0.54416
 Alpha  occ. eigenvalues --   -0.54211  -0.54021  -0.53374  -0.53180  -0.52981
 Alpha  occ. eigenvalues --   -0.52378  -0.51982  -0.51364  -0.50810  -0.50568
 Alpha  occ. eigenvalues --   -0.50342  -0.50139  -0.49530  -0.49330  -0.49106
 Alpha  occ. eigenvalues --   -0.48629  -0.48428  -0.48074  -0.47529  -0.47278
 Alpha  occ. eigenvalues --   -0.47042  -0.45785  -0.45350  -0.45136  -0.42281
 Alpha  occ. eigenvalues --   -0.41397  -0.41136  -0.38827  -0.38151  -0.38100
 Alpha  occ. eigenvalues --   -0.37977  -0.37248  -0.36840  -0.35534  -0.35124
 Alpha  occ. eigenvalues --   -0.34644  -0.34258  -0.33807  -0.33578  -0.33041
 Alpha  occ. eigenvalues --   -0.32872  -0.32441  -0.31953  -0.31041  -0.30998
 Alpha  occ. eigenvalues --   -0.30676  -0.30586  -0.26796  -0.25105
 Alpha virt. eigenvalues --    0.02971   0.04473   0.06327   0.07148   0.08615
 Alpha virt. eigenvalues --    0.09021   0.09543   0.09937   0.10915   0.12630
 Alpha virt. eigenvalues --    0.13015   0.13580   0.14037   0.14488   0.14625

 Mulliken charges:
               1
     1  N   -0.297075
     2  C    0.186489
     3  C    0.059511
     4  N   -0.252913
     5  C    0.149341
     6  H    0.027490
     7  N   -0.282969
     8  C    0.128065
     9  H    0.001454
    10  N   -0.269302
    11  C    0.227718
    12  C    0.075428
    13  N   -0.056623
    14  H    0.113933
    15  H    0.084944
    16  H    0.026065
    17  H    0.033925
    18  H    0.005064
    19  N   -0.299751
    20  C    0.245222
    21  C    0.184467
    22  N   -0.104122
    23  H    0.121007
    24  H    0.119056
    25  N   -0.279218
    26  C    0.184195
    27  N   -0.112924
    28  H    0.119857
    29  C    0.177768
    30  O   -0.319206
    31  C   -0.005531
    32  N   -0.211940
    33  C    0.091294
    34  H    0.027696
    35  H    0.010488
    36  H    0.034887
    37  H    0.027384
    38  H    0.041331
    39  H    0.044435
    40  H    0.074464
    41  H    0.021236
    42  C   -0.100371
    43  O   -0.270600
    44  C    0.173506
    45  H    0.130925
    46  N   -0.119344
    47  O   -0.344349
    48  C    0.323207
    49  H    0.046518
    50  C    0.154568
    51  C    0.072842
    52  N   -0.273962
    53  H    0.037336
    54  H    0.041690
    55  H    0.031312
    56  H    0.123249
    57  H    0.119781
    58  N   -0.059206
    59  C    0.103977
    60  C    0.194640
    61  N   -0.266309
    62  H    0.028302
    63  C    0.169726
    64  N   -0.308273
    65  H    0.039712
    66  C    0.137634
    67  N   -0.254563
    68  C    0.042130
    69  C    0.178249
    70  N   -0.304966
 Sum of Mulliken charges =  -0.00000

 Dipole moment (field-independent basis, Debye):
    X=             -6.0519    Y=              7.5629    Z=             -2.3584  Tot=              9.9692
 Quadrupole moment (field-independent basis, Debye-Ang):
   XX=           -149.1434   YY=           -231.2528   ZZ=           -255.6044
   XY=             -2.3271   XZ=            -11.5252   YZ=             15.7335

 Normal termination of Gaussian 16 at Fri Jan 19 16:33:23 2018.
