 Gaussian 16, Revision A.03,
 Gaussian 16:  EM64L-G16RevA.03 25-Dec-2016

 ---------------------------------------
 #p wb97xd/cc-pvdz sp scf=(maxcycles=20)
 ---------------------------------------

 ------------------
 Base pair stacking
 ------------------
 Symbolic Z-matrix:
 Charge =  0 Multiplicity = 1

                         Standard orientation:
 ---------------------------------------------------------------------
 Center     Atomic      Atomic             Coordinates (Angstroms)
 Number     Number       Type             X           Y           Z
 ---------------------------------------------------------------------
      1          7           0       -6.339253   -1.170765    0.584800
      2          6           0       -7.650649   -0.536980    0.822600
      3          6           0       -4.182763   -1.601845    0.552556
      4          7           0       -4.797385   -2.645914   -0.123377
      5          6           0       -6.071994   -2.344415   -0.076892
      6          1           0       -6.868249   -2.948337   -0.513003
      7          7           0       -2.561702   -0.202087    1.540366
      8          6           0       -3.576374    0.590100    1.901558
      9          1           0       -3.293799    1.484301    2.455480
     10          7           0       -4.881571    0.444240    1.682262
     11          6           0       -5.120336   -0.684888    0.994888
     12          6           0       -2.834802   -1.330641    0.849824
     13          7           0       -1.823270   -2.122699    0.488383
     14          1           0       -1.978897   -2.968043   -0.023856
     15          1           0       -0.875958   -1.898235    0.717179
     16          1           0       -8.232086   -1.158002    1.348368
     17          1           0       -7.523396    0.312239    1.334215
     18          1           0       -8.088834   -0.334099   -0.053091
     19          7           0       -3.713537    1.837354   -1.279074
     20          6           0       -2.355575    1.909282   -1.082100
     21          6           0       -4.694941    2.848638   -0.837637
     22          7           0        0.418555    3.588385    0.161528
     23          1           0        1.407864    3.450623    0.200615
     24          1           0        0.059962    4.423912    0.578686
     25          7           0       -1.694940    2.907849   -0.457221
     26          6           0       -0.391662    2.693462   -0.423785
     27          7           0        0.219858    1.586521   -0.960643
     28          1           0        1.222499    1.505886   -0.888634
     29          6           0       -0.440064    0.546705   -1.608076
     30          8           0        0.206336   -0.407851   -2.057222
     31          6           0       -1.840860    0.762871   -1.651841
     32          7           0       -2.855278   -0.013162   -2.195568
     33          6           0       -3.945438    0.662151   -1.951209
     34          1           0       -4.948766    0.347478   -2.240337
     35          1           0       -5.347921    2.429232   -0.207940
     36          1           0       -4.217157    3.593266   -0.373393
     37          1           0       -5.182874    3.210653   -1.631165
     38          1           0        6.149323    1.389205    0.362528
     39          1           0        6.367836    1.976140   -1.284412
     40          1           0        4.920424    2.415837   -0.377200
     41          1           0        5.579752   -2.697273   -2.111914
     42          6           0        5.017112   -1.796714   -1.865625
     43          8           0        2.918142   -2.719974   -2.473140
     44          6           0        3.598043   -1.785423   -2.049883
     45          1           0        1.981117   -0.551265   -1.824581
     46          7           0        2.983618   -0.597598   -1.708085
     47          8           0        2.956209    1.542554   -0.949020
     48          6           0        3.586174    0.536470   -1.223990
     49          1           0        6.710052   -0.663270   -1.237078
     50          6           0        5.633235   -0.705996   -1.395171
     51          6           0        5.643822    1.635063   -0.559471
     52          7           0        4.956124    0.447558   -1.073911
     53          1           0        4.695376    2.016052    3.798010
     54          1           0        3.495197    2.561927    2.836929
     55          1           0        5.031963    2.534647    2.287654
     56          1           0        1.504121   -3.667553    0.251446
     57          1           0        3.166440   -3.633321    0.633066
     58          7           0        2.288057   -3.155088    0.602110
     59          6           0        2.168519   -1.890152    1.010562
     60          6           0        2.959039    0.172190    1.895737
     61          7           0        1.766997    0.789168    1.842722
     62          1           0       -0.162437    0.392043    1.276862
     63          6           0        0.838410   -0.030566    1.354191
     64          7           0        0.956151   -1.297809    0.944548
     65          1           0        6.120125   -0.168730    2.481788
     66          6           0        5.076177   -0.310603    2.200732
     67          7           0        4.580969   -1.419958    1.709014
     68          6           0        3.239328   -1.127433    1.511124
     69          6           0        4.359932    2.060967    2.857023
     70          7           0        4.150441    0.694491    2.340452
 ---------------------------------------------------------------------

 SCF Done:  E(RwB97XD) =  -2048.75436828     A.U. after   15 cycles

 The electronic state is 1-A.
 Alpha  occ. eigenvalues --  -19.25775 -19.21891 -19.20557 -14.52420 -14.51916
 Alpha  occ. eigenvalues --  -14.49511 -14.48485 -14.47726 -14.46988 -14.46736
 Alpha  occ. eigenvalues --  -14.46423 -14.44835 -14.43488 -14.43369 -14.42772
 Alpha  occ. eigenvalues --  -14.42047 -14.41840 -14.41693 -14.40829 -14.40624
 Alpha  occ. eigenvalues --  -10.45415 -10.41019 -10.39990 -10.39023 -10.38089
 Alpha  occ. eigenvalues --  -10.37557 -10.37383 -10.36485 -10.36048 -10.35688
 Alpha  occ. eigenvalues --  -10.35067 -10.34725 -10.34098 -10.34040 -10.33746
 Alpha  occ. eigenvalues --  -10.33714 -10.33139 -10.31854 -10.31736 -10.30781
 Alpha  occ. eigenvalues --  -10.30194 -10.29179 -10.27876  -1.19395  -1.14573
 Alpha  occ. eigenvalues --   -1.13071  -1.12921  -1.12058  -1.10379  -1.09266
 Alpha  occ. eigenvalues --   -1.08402  -1.08344  -1.05657  -1.03873  -1.02430
 Alpha  occ. eigenvalues --   -1.01079  -1.00328  -0.99531  -0.98363  -0.97629
 Alpha  occ. eigenvalues --   -0.96286  -0.95944  -0.93308  -0.90857  -0.87024
 Alpha  occ. eigenvalues --   -0.85452  -0.84637  -0.83891  -0.83780  -0.83003
 Alpha  occ. eigenvalues --   -0.82066  -0.78745  -0.76301  -0.74418  -0.74063
 Alpha  occ. eigenvalues --   -0.73538  -0.73469  -0.73258  -0.71709  -0.69669
 Alpha  occ. eigenvalues --   -0.67182  -0.66943  -0.66441  -0.65995  -0.64356
 Alpha  occ. eigenvalues --   -0.63578  -0.63554  -0.63270  -0.62508  -0.61541
 Alpha  occ. eigenvalues --   -0.60998  -0.60829  -0.59848  -0.59369  -0.58896
 Alpha  occ. eigenvalues --   -0.58225  -0.58138  -0.57329  -0.57159  -0.56277
 Alpha  occ. eigenvalues --   -0.55974  -0.55848  -0.54846  -0.54786  -0.54269
 Alpha  occ. eigenvalues --   -0.53696  -0.53414  -0.52890  -0.52718  -0.52624
 Alpha  occ. eigenvalues --   -0.52447  -0.52386  -0.52135  -0.51399  -0.50848
 Alpha  occ. eigenvalues --   -0.49925  -0.49771  -0.49371  -0.49074  -0.48956
 Alpha  occ. eigenvalues --   -0.48594  -0.48233  -0.47985  -0.47581  -0.47406
 Alpha  occ. eigenvalues --   -0.47275  -0.45547  -0.45379  -0.44095  -0.43479
 Alpha  occ. eigenvalues --   -0.41841  -0.40061  -0.39366  -0.37841  -0.37158
 Alpha  occ. eigenvalues --   -0.37126  -0.37085  -0.36846  -0.35780  -0.34333
 Alpha  occ. eigenvalues --   -0.34187  -0.33925  -0.33783  -0.33515  -0.33105
 Alpha  occ. eigenvalues --   -0.32550  -0.32088  -0.31745  -0.31713  -0.31569
 Alpha  occ. eigenvalues --   -0.31057  -0.28999  -0.26446  -0.25161
 Alpha virt. eigenvalues --    0.03142   0.04768   0.07277   0.07911   0.08370
 Alpha virt. eigenvalues --    0.08985   0.09939   0.10413   0.10912   0.11758
 Alpha virt. eigenvalues --    0.13196   0.13493   0.14323   0.14617   0.15088

 Mulliken charges:
               1
     1  N   -0.310022
     2  C    0.179078
     3  C    0.056773
     4  N   -0.251365
     5  C    0.127431
     6  H    0.028085
     7  N   -0.282139
     8  C    0.133612
     9  H    0.015687
    10  N   -0.291033
    11  C    0.229871
    12  C    0.097594
    13  N   -0.042188
    14  H    0.110530
    15  H    0.090672
    16  H    0.028677
    17  H    0.035271
    18  H    0.023692
    19  N   -0.296929
    20  C    0.250252
    21  C    0.183193
    22  N   -0.112987
    23  H    0.113583
    24  H    0.116061
    25  N   -0.303485
    26  C    0.228511
    27  N   -0.141854
    28  H    0.125454
    29  C    0.165532
    30  O   -0.324544
    31  C   -0.005081
    32  N   -0.222476
    33  C    0.124764
    34  H    0.021786
    35  H    0.020358
    36  H    0.026999
    37  H    0.020006
    38  H    0.040085
    39  H    0.063769
    40  H    0.076692
    41  H    0.026950
    42  C   -0.095489
    43  O   -0.272492
    44  C    0.167036
    45  H    0.134615
    46  N   -0.124532
    47  O   -0.342097
    48  C    0.339605
    49  H    0.043669
    50  C    0.177856
    51  C    0.040355
    52  N   -0.278079
    53  H    0.034252
    54  H    0.038701
    55  H    0.012502
    56  H    0.123184
    57  H    0.118854
    58  N   -0.047810
    59  C    0.110539
    60  C    0.231565
    61  N   -0.273143
    62  H    0.036461
    63  C    0.156079
    64  N   -0.303858
    65  H    0.034074
    66  C    0.110853
    67  N   -0.245172
    68  C    0.011104
    69  C    0.183791
    70  N   -0.299287
 Sum of Mulliken charges =  -0.00000

 Dipole moment (field-independent basis, Debye):
    X=              5.5371    Y=              5.8020    Z=              4.2194  Tot=              9.0623
 Quadrupole moment (field-independent basis, Debye-Ang):
   XX=           -143.8993   YY=           -225.0999   ZZ=           -259.1556
   XY=             11.9975   XZ=             11.9354   YZ=             -3.3784

 Normal termination of Gaussian 16 at Fri Jan 19 11:52:32 2018.
