 Gaussian 16, Revision A.03,
 Gaussian 16:  EM64L-G16RevA.03 25-Dec-2016

 ---------------------------------------
 #p wb97xd/cc-pvdz sp scf=(maxcycles=20)
 ---------------------------------------

 ------------------
 Base pair stacking
 ------------------
 Symbolic Z-matrix:
 Charge =  0 Multiplicity = 1

                         Standard orientation:
 ---------------------------------------------------------------------
 Center     Atomic      Atomic             Coordinates (Angstroms)
 Number     Number       Type             X           Y           Z
 ---------------------------------------------------------------------
      1          7           0        4.534269   -1.851802   -1.458131
      2          6           0        5.832355   -1.455666   -2.037825
      3          6           0        2.391101   -1.977816   -0.980357
      4          7           0        3.018296   -2.945143   -0.208580
      5          6           0        4.284373   -2.830501   -0.527310
      6          1           0        5.086420   -3.440020   -0.109984
      7          7           0        0.755884   -0.590550   -1.962437
      8          6           0        1.756020   -0.024568   -2.645792
      9          1           0        1.461861    0.776232   -3.322866
     10          7           0        3.058855   -0.298010   -2.618469
     11          6           0        3.312654   -1.295834   -1.755700
     12          6           0        1.043884   -1.591762   -1.102378
     13          7           0        0.046877   -2.157983   -0.419332
     14          1           0        0.213834   -2.902394    0.228121
     15          1           0       -0.900387   -1.857563   -0.531436
     16          1           0        6.241589   -2.237777   -2.507953
     17          1           0        5.693623   -0.711142   -2.690168
     18          1           0        6.445179   -1.148707   -1.309663
     19          7           0        5.544390    1.418014    0.507966
     20          6           0        4.187637    1.633742    0.535158
     21          6           0        6.537080    2.304429   -0.131985
     22          7           0        1.433545    3.576404   -0.303156
     23          1           0        0.442944    3.547143   -0.172412
     24          1           0        1.801590    4.357124   -0.808854
     25          7           0        3.538632    2.683273   -0.013757
     26          6           0        2.233272    2.612480    0.177677
     27          7           0        1.609253    1.592741    0.854603
     28          1           0        0.605987    1.620913    0.952706
     29          6           0        2.257079    0.502860    1.427618
     30          8           0        1.599942   -0.363771    2.017422
     31          6           0        3.659943    0.564961    1.230176
     32          7           0        4.665183   -0.304253    1.631250
     33          6           0        5.762765    0.241170    1.181772
     34          1           0        6.762193   -0.174590    1.314255
     35          1           0        7.027130    1.800681   -0.842548
     36          1           0        6.067969    3.085474   -0.542066
     37          1           0        7.186960    2.629913    0.553968
     38          1           0       -4.446320    2.015275    0.538676
     39          1           0       -4.321375    2.662561    2.172704
     40          1           0       -3.010067    2.918515    1.021052
     41          1           0       -3.895902   -2.047568    3.056005
     42          6           0       -3.292226   -1.220472    2.682205
     43          8           0       -1.228552   -2.353464    2.973218
     44          6           0       -1.869072   -1.360522    2.628861
     45          1           0       -0.193791   -0.317151    2.087456
     46          7           0       -1.200861   -0.255990    2.140231
     47          8           0       -1.079270    1.849109    1.297041
     48          6           0       -1.755070    0.925243    1.714681
     49          1           0       -4.939613    0.076297    2.294484
     50          6           0       -3.861952   -0.080499    2.274191
     51          6           0       -3.769620    2.226534    1.353243
     52          7           0       -3.132406    0.983597    1.796883
     53          1           0       -6.547794    2.098845   -3.413543
     54          1           0       -5.141044    2.654316   -2.801506
     55          1           0       -6.542125    2.937671   -2.013623
     56          1           0       -3.309657   -3.171894    0.685149
     57          1           0       -5.002882   -2.990625    0.584019
     58          7           0       -4.092392   -2.636546    0.367540
     59          6           0       -3.930348   -1.500854   -0.314439
     60          6           0       -4.670521    0.439860   -1.475264
     61          7           0       -3.435928    0.891326   -1.751623
     62          1           0       -1.481980    0.356996   -1.439877
     63          6           0       -2.515522    0.064406   -1.259734
     64          7           0       -2.675809   -1.073545   -0.576406
     65          1           0       -7.903289    0.416569   -1.446775
     66          6           0       -6.843768    0.193624   -1.317798
     67          7           0       -6.374280   -0.856620   -0.689908
     68          6           0       -4.997517   -0.712752   -0.782394
     69          6           0       -6.038343    2.278420   -2.571995
     70          7           0       -5.868254    1.020947   -1.818450
 ---------------------------------------------------------------------

 SCF Done:  E(RwB97XD) =  -2048.74842529     A.U. after   15 cycles

 The electronic state is 1-A.
 Alpha  occ. eigenvalues --  -19.25333 -19.21827 -19.20772 -14.52682 -14.51815
 Alpha  occ. eigenvalues --  -14.49404 -14.48404 -14.48073 -14.47341 -14.47007
 Alpha  occ. eigenvalues --  -14.46822 -14.45554 -14.44690 -14.44597 -14.42477
 Alpha  occ. eigenvalues --  -14.42197 -14.41594 -14.41044 -14.40784 -14.40544
 Alpha  occ. eigenvalues --  -10.44909 -10.41435 -10.40097 -10.39808 -10.38463
 Alpha  occ. eigenvalues --  -10.38148 -10.37502 -10.36980 -10.36147 -10.35564
 Alpha  occ. eigenvalues --  -10.34792 -10.34524 -10.34021 -10.33986 -10.33639
 Alpha  occ. eigenvalues --  -10.33258 -10.33214 -10.32991 -10.31527 -10.30893
 Alpha  occ. eigenvalues --  -10.30503 -10.28560 -10.28414  -1.18890  -1.15435
 Alpha  occ. eigenvalues --   -1.13451  -1.12768  -1.11079  -1.10994  -1.09599
 Alpha  occ. eigenvalues --   -1.08798  -1.08634  -1.05169  -1.05043  -1.02000
 Alpha  occ. eigenvalues --   -1.01127  -1.00523  -0.99922  -0.98842  -0.97164
 Alpha  occ. eigenvalues --   -0.97097  -0.96623  -0.92853  -0.90473  -0.87869
 Alpha  occ. eigenvalues --   -0.86062  -0.84612  -0.83766  -0.83115  -0.82928
 Alpha  occ. eigenvalues --   -0.82200  -0.78351  -0.77214  -0.75084  -0.75014
 Alpha  occ. eigenvalues --   -0.73854  -0.72877  -0.72810  -0.71040  -0.70585
 Alpha  occ. eigenvalues --   -0.67667  -0.66989  -0.66248  -0.66048  -0.64649
 Alpha  occ. eigenvalues --   -0.64393  -0.63571  -0.62833  -0.62684  -0.62055
 Alpha  occ. eigenvalues --   -0.60748  -0.60598  -0.60368  -0.59590  -0.59008
 Alpha  occ. eigenvalues --   -0.58956  -0.58548  -0.57540  -0.56531  -0.55918
 Alpha  occ. eigenvalues --   -0.55805  -0.55610  -0.55348  -0.54460  -0.54224
 Alpha  occ. eigenvalues --   -0.53892  -0.53788  -0.53540  -0.53231  -0.53052
 Alpha  occ. eigenvalues --   -0.52894  -0.51882  -0.51636  -0.50652  -0.50470
 Alpha  occ. eigenvalues --   -0.50354  -0.50018  -0.49622  -0.49278  -0.48956
 Alpha  occ. eigenvalues --   -0.48848  -0.48458  -0.48280  -0.47879  -0.47322
 Alpha  occ. eigenvalues --   -0.46895  -0.45851  -0.45616  -0.44940  -0.42545
 Alpha  occ. eigenvalues --   -0.41175  -0.40912  -0.39086  -0.38155  -0.37768
 Alpha  occ. eigenvalues --   -0.37638  -0.37475  -0.36989  -0.35715  -0.34932
 Alpha  occ. eigenvalues --   -0.34564  -0.34206  -0.33372  -0.33329  -0.33189
 Alpha  occ. eigenvalues --   -0.32988  -0.32817  -0.32065  -0.31231  -0.30807
 Alpha  occ. eigenvalues --   -0.30476  -0.30204  -0.26310  -0.25351
 Alpha virt. eigenvalues --    0.02651   0.04514   0.06868   0.07941   0.08601
 Alpha virt. eigenvalues --    0.08981   0.09604   0.10293   0.10915   0.12240
 Alpha virt. eigenvalues --    0.12975   0.13381   0.14151   0.14533   0.14979

 Mulliken charges:
               1
     1  N   -0.302615
     2  C    0.184520
     3  C    0.048503
     4  N   -0.246802
     5  C    0.151188
     6  H    0.025690
     7  N   -0.294811
     8  C    0.128219
     9  H    0.009162
    10  N   -0.283217
    11  C    0.237271
    12  C    0.081466
    13  N   -0.056846
    14  H    0.118596
    15  H    0.088341
    16  H    0.025269
    17  H    0.032366
    18  H    0.010722
    19  N   -0.309796
    20  C    0.259984
    21  C    0.182819
    22  N   -0.123438
    23  H    0.119054
    24  H    0.119350
    25  N   -0.309956
    26  C    0.248785
    27  N   -0.142897
    28  H    0.120908
    29  C    0.189699
    30  O   -0.318871
    31  C   -0.014704
    32  N   -0.217110
    33  C    0.105949
    34  H    0.024883
    35  H    0.020576
    36  H    0.033235
    37  H    0.026442
    38  H    0.053655
    39  H    0.055369
    40  H    0.075182
    41  H    0.015268
    42  C   -0.101630
    43  O   -0.276434
    44  C    0.171461
    45  H    0.130855
    46  N   -0.119851
    47  O   -0.351516
    48  C    0.339896
    49  H    0.046142
    50  C    0.159366
    51  C    0.047812
    52  N   -0.274678
    53  H    0.035579
    54  H    0.042109
    55  H    0.029024
    56  H    0.126241
    57  H    0.116558
    58  N   -0.051400
    59  C    0.085217
    60  C    0.219336
    61  N   -0.261580
    62  H    0.032909
    63  C    0.166985
    64  N   -0.307184
    65  H    0.039261
    66  C    0.137889
    67  N   -0.258796
    68  C    0.034948
    69  C    0.178887
    70  N   -0.308813
 Sum of Mulliken charges =  -0.00000

 Dipole moment (field-independent basis, Debye):
    X=             -5.9451    Y=              7.0924    Z=             -3.5449  Tot=              9.9103
 Quadrupole moment (field-independent basis, Debye-Ang):
   XX=           -148.5718   YY=           -224.3267   ZZ=           -258.3050
   XY=             -7.2343   XZ=             -8.7689   YZ=              1.6610

 Normal termination of Gaussian 16 at Fri Jan 19 16:56:40 2018.
