 Gaussian 16, Revision A.03,
 Gaussian 16:  EM64L-G16RevA.03 25-Dec-2016

 ---------------------------------------
 #p wb97xd/cc-pvdz sp scf=(maxcycles=20)
 ---------------------------------------

 ------------------
 Base pair stacking
 ------------------
 Symbolic Z-matrix:
 Charge =  0 Multiplicity = 1

                         Standard orientation:
 ---------------------------------------------------------------------
 Center     Atomic      Atomic             Coordinates (Angstroms)
 Number     Number       Type             X           Y           Z
 ---------------------------------------------------------------------
      1          7           0        5.759645   -1.290444   -0.970779
      2          6           0        7.077597   -0.670384   -1.208534
      3          6           0        3.594793   -1.667627   -0.878875
      4          7           0        4.207209   -2.786905   -0.333995
      5          6           0        5.486947   -2.514864   -0.411173
      6          1           0        6.283294   -3.177811   -0.071657
      7          7           0        1.974223   -0.138963   -1.653398
      8          6           0        2.995149    0.658092   -1.985056
      9          1           0        2.715216    1.608093   -2.438265
     10          7           0        4.303815    0.458747   -1.841610
     11          6           0        4.538874   -0.736696   -1.275852
     12          6           0        2.243718   -1.335013   -1.086018
     13          7           0        1.225960   -2.132039   -0.754255
     14          1           0        1.378737   -3.026215   -0.331960
     15          1           0        0.276586   -1.862680   -0.916400
     16          1           0        7.616603   -1.252823   -1.817155
     17          1           0        6.953288    0.226871   -1.631151
     18          1           0        7.559724   -0.563462   -0.338989
     19          7           0        4.347863    1.587871    1.155662
     20          6           0        2.985476    1.710851    1.025928
     21          6           0        5.342999    2.567876    0.676107
     22          7           0        0.217530    3.502370   -0.065259
     23          1           0       -0.776878    3.400800   -0.057249
     24          1           0        0.585761    4.328942   -0.491766
     25          7           0        2.332255    2.739365    0.443244
     26          6           0        1.021924    2.572484    0.471550
     27          7           0        0.397109    1.482490    1.027471
     28          1           0       -0.610114    1.438859    1.003795
     29          6           0        1.049207    0.412562    1.632337
     30          8           0        0.390905   -0.522931    2.103754
     31          6           0        2.457443    0.577583    1.609610
     32          7           0        3.467990   -0.240414    2.095999
     33          6           0        4.568974    0.397791    1.804878
     34          1           0        5.572972    0.044004    2.041751
     35          1           0        5.948914    2.132116    0.011445
     36          1           0        4.870796    3.334276    0.242599
     37          1           0        5.881732    2.903371    1.448136
     38          1           0       -5.592787    1.513559   -0.006239
     39          1           0       -5.709590    2.089944    1.654716
     40          1           0       -4.292767    2.487069    0.681958
     41          1           0       -5.053616   -2.617601    2.399881
     42          6           0       -4.471043   -1.735274    2.134662
     43          8           0       -2.380236   -2.740187    2.630440
     44          6           0       -3.045239   -1.777166    2.249480
     45          1           0       -1.397129   -0.599711    1.956789
     46          7           0       -2.405119   -0.608603    1.888978
     47          8           0       -2.336355    1.537339    1.149126
     48          6           0       -2.988589    0.551680    1.445299
     49          1           0       -6.149917   -0.534733    1.599978
     50          6           0       -5.068983   -0.617975    1.704882
     51          6           0       -5.034526    1.730943    0.892182
     52          7           0       -4.366545    0.513860    1.361518
     53          1           0       -5.305918    2.468990   -3.350582
     54          1           0       -4.048903    2.889662   -2.399233
     55          1           0       -5.560143    2.849043   -1.783945
     56          1           0       -2.132295   -3.607306   -0.509409
     57          1           0       -3.808043   -3.494431   -0.808159
     58          7           0       -2.915310   -3.043860   -0.773169
     59          6           0       -2.776254   -1.749089   -1.065435
     60          6           0       -3.543216    0.407953   -1.714023
     61          7           0       -2.332170    0.986488   -1.658598
     62          1           0       -0.392383    0.488071   -1.223367
     63          6           0       -1.407789    0.100399   -1.293510
     64          7           0       -1.545060   -1.196819   -1.000361
     65          1           0       -6.735778    0.205220   -2.181625
     66          6           0       -5.685163    0.010586   -1.964206
     67          7           0       -5.202029   -1.152971   -1.603099
     68          6           0       -3.844873   -0.914974   -1.441235
     69          6           0       -4.928213    2.415090   -2.426220
     70          7           0       -4.736957    1.000561   -2.051366
 ---------------------------------------------------------------------

 SCF Done:  E(RwB97XD) =  -2048.75089242     A.U. after   15 cycles

 The electronic state is 1-A.
 Alpha  occ. eigenvalues --  -19.25428 -19.21638 -19.20556 -14.52432 -14.52113
 Alpha  occ. eigenvalues --  -14.49270 -14.48558 -14.47668 -14.47459 -14.46786
 Alpha  occ. eigenvalues --  -14.46522 -14.45477 -14.44101 -14.44066 -14.42751
 Alpha  occ. eigenvalues --  -14.41878 -14.41728 -14.41410 -14.40754 -14.40653
 Alpha  occ. eigenvalues --  -10.45043 -10.41119 -10.39773 -10.39640 -10.38159
 Alpha  occ. eigenvalues --  -10.37993 -10.37338 -10.37100 -10.35892 -10.35578
 Alpha  occ. eigenvalues --  -10.35056 -10.34441 -10.34173 -10.34173 -10.33800
 Alpha  occ. eigenvalues --  -10.33469 -10.33233 -10.32526 -10.31738 -10.30622
 Alpha  occ. eigenvalues --  -10.30521 -10.28911 -10.27971  -1.19110  -1.15247
 Alpha  occ. eigenvalues --   -1.13093  -1.12674  -1.11786  -1.10432  -1.09079
 Alpha  occ. eigenvalues --   -1.08931  -1.08445  -1.05486  -1.04517  -1.02159
 Alpha  occ. eigenvalues --   -1.00971  -1.00912  -0.99596  -0.98410  -0.97430
 Alpha  occ. eigenvalues --   -0.96591  -0.96396  -0.93152  -0.90639  -0.87617
 Alpha  occ. eigenvalues --   -0.85998  -0.84443  -0.83932  -0.83510  -0.82867
 Alpha  occ. eigenvalues --   -0.82240  -0.78487  -0.76919  -0.74737  -0.74452
 Alpha  occ. eigenvalues --   -0.73505  -0.73345  -0.73029  -0.71489  -0.70269
 Alpha  occ. eigenvalues --   -0.67246  -0.66785  -0.66604  -0.66206  -0.64260
 Alpha  occ. eigenvalues --   -0.64080  -0.63608  -0.63188  -0.62515  -0.61731
 Alpha  occ. eigenvalues --   -0.61621  -0.60792  -0.60366  -0.59414  -0.59156
 Alpha  occ. eigenvalues --   -0.58277  -0.58186  -0.57516  -0.57045  -0.56165
 Alpha  occ. eigenvalues --   -0.55913  -0.55673  -0.55298  -0.54476  -0.54040
 Alpha  occ. eigenvalues --   -0.53825  -0.53405  -0.53373  -0.52948  -0.52761
 Alpha  occ. eigenvalues --   -0.52733  -0.52336  -0.52279  -0.51195  -0.50696
 Alpha  occ. eigenvalues --   -0.49965  -0.49925  -0.49278  -0.49196  -0.48792
 Alpha  occ. eigenvalues --   -0.48589  -0.48354  -0.48169  -0.47457  -0.47211
 Alpha  occ. eigenvalues --   -0.47134  -0.45914  -0.45288  -0.44669  -0.43119
 Alpha  occ. eigenvalues --   -0.41513  -0.40624  -0.39134  -0.37669  -0.37566
 Alpha  occ. eigenvalues --   -0.37428  -0.37135  -0.37052  -0.36071  -0.34565
 Alpha  occ. eigenvalues --   -0.34243  -0.34160  -0.33794  -0.33598  -0.32922
 Alpha  occ. eigenvalues --   -0.32511  -0.32169  -0.31735  -0.31659  -0.31272
 Alpha  occ. eigenvalues --   -0.30905  -0.29431  -0.26149  -0.25364
 Alpha virt. eigenvalues --    0.03584   0.04002   0.07168   0.07416   0.08509
 Alpha virt. eigenvalues --    0.09061   0.09857   0.10423   0.10730   0.12370
 Alpha virt. eigenvalues --    0.13272   0.13630   0.13869   0.14373   0.14733

 Mulliken charges:
               1
     1  N   -0.306337
     2  C    0.174761
     3  C    0.072210
     4  N   -0.250223
     5  C    0.129430
     6  H    0.026851
     7  N   -0.287269
     8  C    0.135891
     9  H    0.012175
    10  N   -0.285431
    11  C    0.220901
    12  C    0.089535
    13  N   -0.046268
    14  H    0.111126
    15  H    0.086554
    16  H    0.029191
    17  H    0.039438
    18  H    0.020405
    19  N   -0.288833
    20  C    0.240476
    21  C    0.187282
    22  N   -0.115429
    23  H    0.116922
    24  H    0.116867
    25  N   -0.301972
    26  C    0.230516
    27  N   -0.140630
    28  H    0.119394
    29  C    0.179893
    30  O   -0.323763
    31  C   -0.012394
    32  N   -0.215582
    33  C    0.118644
    34  H    0.016163
    35  H    0.014830
    36  H    0.029732
    37  H    0.020792
    38  H    0.041591
    39  H    0.060375
    40  H    0.074711
    41  H    0.024380
    42  C   -0.105346
    43  O   -0.269957
    44  C    0.163174
    45  H    0.131842
    46  N   -0.113859
    47  O   -0.337537
    48  C    0.332424
    49  H    0.043149
    50  C    0.174430
    51  C    0.045063
    52  N   -0.275065
    53  H    0.036659
    54  H    0.041573
    55  H    0.018313
    56  H    0.125089
    57  H    0.118675
    58  N   -0.053485
    59  C    0.096286
    60  C    0.208982
    61  N   -0.256540
    62  H    0.033713
    63  C    0.150327
    64  N   -0.297174
    65  H    0.035949
    66  C    0.109976
    67  N   -0.247211
    68  C    0.043223
    69  C    0.179437
    70  N   -0.299014
 Sum of Mulliken charges =  -0.00000

 Dipole moment (field-independent basis, Debye):
    X=             -5.6429    Y=              6.2486    Z=             -4.2751  Tot=              9.4427
 Quadrupole moment (field-independent basis, Debye-Ang):
   XX=           -146.7057   YY=           -224.9033   ZZ=           -261.1177
   XY=            -10.6072   XZ=              4.4036   YZ=              6.1707

 Normal termination of Gaussian 16 at Sat Jan 20 02:52:10 2018.
