 Gaussian 16, Revision A.03,
 Gaussian 16:  EM64L-G16RevA.03 25-Dec-2016

 ---------------------------------------
 #p wb97xd/cc-pvdz sp scf=(maxcycles=20)
 ---------------------------------------

 ------------------
 Base pair stacking
 ------------------
 Symbolic Z-matrix:
 Charge =  0 Multiplicity = 1

                         Standard orientation:
 ---------------------------------------------------------------------
 Center     Atomic      Atomic             Coordinates (Angstroms)
 Number     Number       Type             X           Y           Z
 ---------------------------------------------------------------------
      1          7           0        4.886324   -0.923778   -1.613416
      2          6           0        6.209473   -0.270983   -1.647142
      3          6           0        2.718044   -1.288624   -1.560920
      4          7           0        3.321654   -2.537741   -1.570192
      5          6           0        4.603813   -2.267940   -1.601447
      6          1           0        5.395024   -3.018057   -1.617106
      7          7           0        1.109350    0.435931   -1.529871
      8          6           0        2.136835    1.290984   -1.557444
      9          1           0        1.864417    2.345517   -1.555197
     10          7           0        3.444157    1.040139   -1.587222
     11          6           0        3.669729   -0.284075   -1.587304
     12          6           0        1.369365   -0.889764   -1.530749
     13          7           0        0.345049   -1.744851   -1.503250
     14          1           0        0.490718   -2.734805   -1.502769
     15          1           0       -0.602356   -1.425281   -1.482215
     16          1           0        6.698874   -0.549028   -2.473794
     17          1           0        6.092295    0.721686   -1.648317
     18          1           0        6.737608   -0.541629   -0.842278
     19          7           0        5.230472    1.010162    0.986415
     20          6           0        3.866742    1.178404    0.987192
     21          6           0        6.217553    2.040752    0.606620
     22          7           0        1.083068    3.182395    0.442285
     23          1           0        0.089296    3.098912    0.510671
     24          1           0        1.444405    4.063958    0.137293
     25          7           0        3.204694    2.304413    0.643885
     26          6           0        1.895482    2.158770    0.745709
     27          7           0        1.279737    0.999922    1.152440
     28          1           0        0.272652    0.979229    1.200713
     29          6           0        1.941000   -0.170725    1.510466
     30          8           0        1.290448   -1.162117    1.863517
     31          6           0        3.348160   -0.029638    1.406102
     32          7           0        4.365831   -0.938022    1.663159
     33          6           0        5.461678   -0.278736    1.401071
     34          1           0        6.468874   -0.686446    1.493780
     35          1           0        6.758539    1.716825   -0.168762
     36          1           0        5.738785    2.879418    0.350327
     37          1           0        6.822316    2.226613    1.380267
     38          1           0       -4.766395    1.318736    0.612969
     39          1           0       -4.741560    1.598425    2.352452
     40          1           0       -3.389022    2.133643    1.354684
     41          1           0       -4.180145   -3.177960    2.220025
     42          6           0       -3.591449   -2.273526    2.066205
     43          8           0       -1.502187   -3.387017    2.215412
     44          6           0       -2.163087   -2.360467    2.059792
     45          1           0       -0.505083   -1.179873    1.846301
     46          7           0       -1.515115   -1.158645    1.857299
     47          8           0       -1.434108    1.081894    1.495896
     48          6           0       -2.093197    0.071574    1.667745
     49          1           0       -5.266853   -0.968068    1.880213
     50          6           0       -4.184268   -1.087792    1.884004
     51          6           0       -4.136500    1.365905    1.488796
     52          7           0       -3.474066    0.073773    1.687110
     53          1           0       -6.161461    3.569136   -1.553403
     54          1           0       -4.845891    3.543360   -0.588668
     55          1           0       -6.324981    3.260086    0.040705
     56          1           0       -3.041241   -3.161988   -1.700874
     57          1           0       -4.725477   -2.921879   -1.826539
     58          7           0       -3.818455   -2.534038   -1.658865
     59          6           0       -3.653786   -1.236955   -1.391225
     60          6           0       -4.384406    0.999101   -1.033498
     61          7           0       -3.154601    1.492203   -0.812488
     62          1           0       -1.212010    0.842881   -0.739562
     63          6           0       -2.241277    0.527804   -0.905646
     64          7           0       -2.404203   -0.771899   -1.173619
     65          1           0       -7.601133    1.034630   -1.355309
     66          6           0       -6.547562    0.759014   -1.300953
     67          7           0       -6.083596   -0.452391   -1.487790
     68          6           0       -4.713256   -0.314176   -1.321048
     69          6           0       -5.739856    3.130280   -0.759894
     70          7           0       -5.574414    1.687392   -1.021994
 ---------------------------------------------------------------------

 SCF Done:  E(RwB97XD) =  -2048.66530209     A.U. after   15 cycles

 The electronic state is 1-A.
 Alpha  occ. eigenvalues --  -19.24967 -19.21223 -19.20700 -14.53011 -14.51493
 Alpha  occ. eigenvalues --  -14.49281 -14.48905 -14.48642 -14.47105 -14.46520
 Alpha  occ. eigenvalues --  -14.46435 -14.45968 -14.44751 -14.44458 -14.43031
 Alpha  occ. eigenvalues --  -14.41541 -14.41478 -14.41410 -14.41023 -14.40822
 Alpha  occ. eigenvalues --  -10.44629 -10.40823 -10.40549 -10.39338 -10.38531
 Alpha  occ. eigenvalues --  -10.38268 -10.37787 -10.36945 -10.36299 -10.35936
 Alpha  occ. eigenvalues --  -10.34653 -10.34436 -10.34117 -10.33937 -10.33578
 Alpha  occ. eigenvalues --  -10.33278 -10.33216 -10.32615 -10.31514 -10.31368
 Alpha  occ. eigenvalues --  -10.30272 -10.28642 -10.28397  -1.18847  -1.16214
 Alpha  occ. eigenvalues --   -1.13387  -1.12271  -1.11522  -1.10891  -1.09901
 Alpha  occ. eigenvalues --   -1.08729  -1.08435  -1.05600  -1.05512  -1.01747
 Alpha  occ. eigenvalues --   -1.01661  -1.01100  -0.99696  -0.98598  -0.97595
 Alpha  occ. eigenvalues --   -0.97272  -0.96867  -0.93309  -0.90148  -0.88465
 Alpha  occ. eigenvalues --   -0.86614  -0.84901  -0.83957  -0.83215  -0.82678
 Alpha  occ. eigenvalues --   -0.82572  -0.78064  -0.77728  -0.75632  -0.74873
 Alpha  occ. eigenvalues --   -0.73906  -0.73179  -0.72578  -0.71569  -0.71076
 Alpha  occ. eigenvalues --   -0.67596  -0.67484  -0.66720  -0.65955  -0.64920
 Alpha  occ. eigenvalues --   -0.64500  -0.63795  -0.63285  -0.62633  -0.62250
 Alpha  occ. eigenvalues --   -0.61871  -0.61247  -0.61045  -0.60207  -0.59041
 Alpha  occ. eigenvalues --   -0.58893  -0.58656  -0.58344  -0.57210  -0.56497
 Alpha  occ. eigenvalues --   -0.56013  -0.55629  -0.55374  -0.55133  -0.54645
 Alpha  occ. eigenvalues --   -0.54289  -0.54082  -0.53522  -0.53168  -0.52969
 Alpha  occ. eigenvalues --   -0.52211  -0.51895  -0.51537  -0.51148  -0.50608
 Alpha  occ. eigenvalues --   -0.50275  -0.49720  -0.49404  -0.49306  -0.49014
 Alpha  occ. eigenvalues --   -0.48614  -0.48450  -0.48031  -0.47596  -0.47490
 Alpha  occ. eigenvalues --   -0.46943  -0.45740  -0.45200  -0.44675  -0.41918
 Alpha  occ. eigenvalues --   -0.41205  -0.41117  -0.38862  -0.38308  -0.38125
 Alpha  occ. eigenvalues --   -0.37603  -0.37177  -0.36373  -0.35661  -0.35176
 Alpha  occ. eigenvalues --   -0.34843  -0.34327  -0.33817  -0.33407  -0.32996
 Alpha  occ. eigenvalues --   -0.32912  -0.32386  -0.31949  -0.31104  -0.31008
 Alpha  occ. eigenvalues --   -0.30355  -0.30081  -0.26838  -0.24636
 Alpha virt. eigenvalues --    0.03313   0.03928   0.06029   0.06500   0.08118
 Alpha virt. eigenvalues --    0.09065   0.09770   0.09850   0.11752   0.12820
 Alpha virt. eigenvalues --    0.12984   0.13235   0.14152   0.14359   0.15241

 Mulliken charges:
               1
     1  N   -0.297647
     2  C    0.182996
     3  C    0.074287
     4  N   -0.255731
     5  C    0.142363
     6  H    0.025854
     7  N   -0.277275
     8  C    0.138485
     9  H    0.002552
    10  N   -0.263230
    11  C    0.220824
    12  C    0.063358
    13  N   -0.052641
    14  H    0.110709
    15  H    0.083187
    16  H    0.027135
    17  H    0.035217
    18  H    0.004796
    19  N   -0.289901
    20  C    0.225702
    21  C    0.189532
    22  N   -0.088703
    23  H    0.121533
    24  H    0.119934
    25  N   -0.243081
    26  C    0.113320
    27  N   -0.088136
    28  H    0.118785
    29  C    0.159701
    30  O   -0.318328
    31  C    0.016828
    32  N   -0.208361
    33  C    0.091291
    34  H    0.029306
    35  H    0.001274
    36  H    0.034890
    37  H    0.024744
    38  H    0.039674
    39  H    0.035050
    40  H    0.081733
    41  H    0.024120
    42  C   -0.100307
    43  O   -0.269199
    44  C    0.174350
    45  H    0.129161
    46  N   -0.113185
    47  O   -0.343065
    48  C    0.314642
    49  H    0.045010
    50  C    0.159920
    51  C    0.071591
    52  N   -0.275656
    53  H    0.039344
    54  H    0.043135
    55  H    0.031205
    56  H    0.123047
    57  H    0.120872
    58  N   -0.061243
    59  C    0.110551
    60  C    0.200083
    61  N   -0.271365
    62  H    0.010989
    63  C    0.189629
    64  N   -0.308105
    65  H    0.037701
    66  C    0.128517
    67  N   -0.249549
    68  C    0.042582
    69  C    0.178125
    70  N   -0.314926
 Sum of Mulliken charges =  -0.00000

 Dipole moment (field-independent basis, Debye):
    X=             -5.8601    Y=              7.4815    Z=             -3.1708  Tot=             10.0183
 Quadrupole moment (field-independent basis, Debye-Ang):
   XX=           -149.0469   YY=           -232.6457   ZZ=           -257.3800
   XY=             -3.7514   XZ=             -7.8363   YZ=             16.8468

 Normal termination of Gaussian 16 at Sat Jan 20 00:40:30 2018.
