 Gaussian 16, Revision A.03,
 Gaussian 16:  EM64L-G16RevA.03 25-Dec-2016

 ---------------------------------------
 #p wb97xd/cc-pvdz sp scf=(maxcycles=20)
 ---------------------------------------

 ------------------
 Base pair stacking
 ------------------
 Symbolic Z-matrix:
 Charge =  0 Multiplicity = 1

                         Standard orientation:
 ---------------------------------------------------------------------
 Center     Atomic      Atomic             Coordinates (Angstroms)
 Number     Number       Type             X           Y           Z
 ---------------------------------------------------------------------
      1          7           0        4.219602   -2.061262   -1.436417
      2          6           0        5.500625   -1.770919   -2.109230
      3          6           0        2.094621   -2.079528   -0.869486
      4          7           0        2.735494   -2.951099   -0.000955
      5          6           0        3.990078   -2.905213   -0.377267
      6          1           0        4.797748   -3.471825    0.087021
      7          7           0        0.445183   -0.798062   -1.965016
      8          6           0        1.427249   -0.346654   -2.752023
      9          1           0        1.120092    0.365247   -3.516950
     10          7           0        2.725656   -0.641224   -2.736075
     11          6           0        2.996466   -1.523442   -1.759973
     12          6           0        0.750020   -1.684717   -0.992391
     13          7           0       -0.228920   -2.136475   -0.205765
     14          1           0       -0.049113   -2.793676    0.527014
     15          1           0       -1.174899   -1.833563   -0.322031
     16          1           0        5.879021   -2.615848   -2.487508
     17          1           0        5.348829   -1.114822   -2.847886
     18          1           0        6.145751   -1.384681   -1.449962
     19          7           0        5.825836    1.364692    0.276242
     20          6           0        4.475005    1.610738    0.328810
     21          6           0        6.818839    2.199626   -0.429121
     22          7           0        1.739615    3.572780   -0.525484
     23          1           0        0.752507    3.570898   -0.367833
     24          1           0        2.109793    4.321733   -1.075715
     25          7           0        3.833035    2.648253   -0.250412
     26          6           0        2.532137    2.614448   -0.022085
     27          7           0        1.905868    1.640030    0.716718
     28          1           0        0.906391    1.694319    0.839468
     29          6           0        2.546475    0.563332    1.321873
     30          8           0        1.887902   -0.261372    1.967529
     31          6           0        3.944495    0.586086    1.085408
     32          7           0        4.942189   -0.285714    1.499494
     33          6           0        6.038182    0.214989    0.997185
     34          1           0        7.032110   -0.215910    1.122499
     35          1           0        7.279148    1.653841   -1.128433
     36          1           0        6.354905    2.971347   -0.862106
     37          1           0        7.493485    2.541580    0.224124
     38          1           0       -4.146112    2.178879    0.539340
     39          1           0       -3.963964    2.896381    2.138301
     40          1           0       -2.679210    3.071673    0.942456
     41          1           0       -3.611243   -1.777214    3.224450
     42          6           0       -3.001070   -0.981086    2.797700
     43          8           0       -0.953907   -2.144215    3.086413
     44          6           0       -1.583037   -1.154180    2.713828
     45          1           0        0.098029   -0.172805    2.081966
     46          7           0       -0.905794   -0.087542    2.158055
     47          8           0       -0.763952    1.974242    1.216717
     48          6           0       -1.447001    1.085012    1.693551
     49          1           0       -4.631452    0.332232    2.394094
     50          6           0       -3.558158    0.151385    2.352982
     51          6           0       -3.443538    2.411981    1.325538
     52          7           0       -2.820137    1.176827    1.808767
     53          1           0       -6.865089    1.830966   -3.491556
     54          1           0       -5.427231    2.431949   -3.008376
     55          1           0       -6.792365    2.844401   -2.214416
     56          1           0       -3.556307   -2.928194    1.141785
     57          1           0       -5.249067   -2.726475    1.078794
     58          7           0       -4.342046   -2.422555    0.785279
     59          6           0       -4.188240   -1.388793   -0.044690
     60          6           0       -4.941450    0.399456   -1.421852
     61          7           0       -3.711342    0.785406   -1.799081
     62          1           0       -1.755621    0.255667   -1.490645
     63          6           0       -2.786012    0.010529   -1.236745
     64          7           0       -2.938038   -1.025339   -0.405204
     65          1           0       -8.170704    0.447242   -1.274288
     66          6           0       -7.110689    0.220994   -1.155475
     67          7           0       -6.634223   -0.748223   -0.412982
     68          6           0       -5.259908   -0.646230   -0.572942
     69          6           0       -6.320935    2.107821   -2.699576
     70          7           0       -6.142079    0.955737   -1.794735
 ---------------------------------------------------------------------

 SCF Done:  E(RwB97XD) =  -2048.74528277     A.U. after   15 cycles

 The electronic state is 1-A.
 Alpha  occ. eigenvalues --  -19.25355 -19.21827 -19.20842 -14.52590 -14.51846
 Alpha  occ. eigenvalues --  -14.49584 -14.48209 -14.48190 -14.47381 -14.47138
 Alpha  occ. eigenvalues --  -14.46945 -14.45480 -14.44735 -14.44685 -14.42434
 Alpha  occ. eigenvalues --  -14.42361 -14.41812 -14.40967 -14.40579 -14.40484
 Alpha  occ. eigenvalues --  -10.44935 -10.41596 -10.40145 -10.39831 -10.38575
 Alpha  occ. eigenvalues --  -10.38089 -10.37493 -10.37080 -10.36170 -10.35496
 Alpha  occ. eigenvalues --  -10.34980 -10.34533 -10.34171 -10.33924 -10.33439
 Alpha  occ. eigenvalues --  -10.33138 -10.33130 -10.33002 -10.31662 -10.30618
 Alpha  occ. eigenvalues --  -10.30495 -10.28731 -10.28312  -1.18908  -1.15371
 Alpha  occ. eigenvalues --   -1.13588  -1.12792  -1.11220  -1.10852  -1.09670
 Alpha  occ. eigenvalues --   -1.08904  -1.08672  -1.05140  -1.05071  -1.02024
 Alpha  occ. eigenvalues --   -1.01082  -1.00463  -1.00058  -0.99007  -0.97270
 Alpha  occ. eigenvalues --   -0.97212  -0.96459  -0.92785  -0.90520  -0.87850
 Alpha  occ. eigenvalues --   -0.86002  -0.84776  -0.83609  -0.83219  -0.82986
 Alpha  occ. eigenvalues --   -0.82015  -0.78415  -0.77216  -0.75168  -0.75097
 Alpha  occ. eigenvalues --   -0.73998  -0.72916  -0.72688  -0.70941  -0.70604
 Alpha  occ. eigenvalues --   -0.67808  -0.67024  -0.66149  -0.66093  -0.64798
 Alpha  occ. eigenvalues --   -0.64454  -0.63595  -0.62967  -0.62570  -0.62190
 Alpha  occ. eigenvalues --   -0.60700  -0.60519  -0.60157  -0.59553  -0.59089
 Alpha  occ. eigenvalues --   -0.59011  -0.58661  -0.57561  -0.56399  -0.55896
 Alpha  occ. eigenvalues --   -0.55838  -0.55541  -0.55291  -0.54629  -0.54347
 Alpha  occ. eigenvalues --   -0.53924  -0.53780  -0.53596  -0.53354  -0.52981
 Alpha  occ. eigenvalues --   -0.52797  -0.51928  -0.51447  -0.50640  -0.50564
 Alpha  occ. eigenvalues --   -0.50264  -0.49931  -0.49760  -0.49423  -0.49072
 Alpha  occ. eigenvalues --   -0.48731  -0.48506  -0.48406  -0.47757  -0.47391
 Alpha  occ. eigenvalues --   -0.46753  -0.45788  -0.45649  -0.44958  -0.42665
 Alpha  occ. eigenvalues --   -0.41127  -0.40896  -0.39162  -0.38099  -0.37839
 Alpha  occ. eigenvalues --   -0.37765  -0.37621  -0.36874  -0.35532  -0.35035
 Alpha  occ. eigenvalues --   -0.34666  -0.34315  -0.33386  -0.33289  -0.33209
 Alpha  occ. eigenvalues --   -0.33135  -0.32819  -0.32154  -0.31251  -0.30671
 Alpha  occ. eigenvalues --   -0.30391  -0.30253  -0.26243  -0.25507
 Alpha virt. eigenvalues --    0.02352   0.04771   0.06703   0.08096   0.08505
 Alpha virt. eigenvalues --    0.08968   0.09435   0.10329   0.10984   0.12174
 Alpha virt. eigenvalues --    0.13163   0.13363   0.14138   0.14519   0.15046

 Mulliken charges:
               1
     1  N   -0.303973
     2  C    0.185516
     3  C    0.042361
     4  N   -0.244031
     5  C    0.153420
     6  H    0.026720
     7  N   -0.297775
     8  C    0.128261
     9  H    0.008880
    10  N   -0.283671
    11  C    0.238522
    12  C    0.082080
    13  N   -0.062697
    14  H    0.119995
    15  H    0.090126
    16  H    0.023928
    17  H    0.031543
    18  H    0.013969
    19  N   -0.310644
    20  C    0.257667
    21  C    0.182312
    22  N   -0.123347
    23  H    0.119175
    24  H    0.119732
    25  N   -0.312037
    26  C    0.252820
    27  N   -0.146252
    28  H    0.120444
    29  C    0.195268
    30  O   -0.316974
    31  C   -0.014750
    32  N   -0.221530
    33  C    0.107236
    34  H    0.025613
    35  H    0.022168
    36  H    0.033062
    37  H    0.027061
    38  H    0.057918
    39  H    0.055796
    40  H    0.074624
    41  H    0.014258
    42  C   -0.108769
    43  O   -0.276578
    44  C    0.170811
    45  H    0.131718
    46  N   -0.123427
    47  O   -0.353226
    48  C    0.347821
    49  H    0.045433
    50  C    0.168157
    51  C    0.044165
    52  N   -0.276629
    53  H    0.034864
    54  H    0.042140
    55  H    0.029523
    56  H    0.127559
    57  H    0.116867
    58  N   -0.049364
    59  C    0.073947
    60  C    0.230638
    61  N   -0.264525
    62  H    0.035106
    63  C    0.164536
    64  N   -0.305547
    65  H    0.039642
    66  C    0.140652
    67  N   -0.260783
    68  C    0.035038
    69  C    0.179309
    70  N   -0.311874
 Sum of Mulliken charges =  -0.00000

 Dipole moment (field-independent basis, Debye):
    X=             -5.8938    Y=              7.2767    Z=             -3.5737  Tot=             10.0229
 Quadrupole moment (field-independent basis, Debye-Ang):
   XX=           -148.8498   YY=           -224.7152   ZZ=           -256.5383
   XY=             -7.2981   XZ=            -11.5709   YZ=             -0.4878

 Normal termination of Gaussian 16 at Fri Jan 19 22:11:14 2018.
