 Gaussian 16, Revision A.03,
 Gaussian 16:  EM64L-G16RevA.03 25-Dec-2016

 ---------------------------------------
 #p wb97xd/cc-pvdz sp scf=(maxcycles=20)
 ---------------------------------------

 ------------------
 Base pair stacking
 ------------------
 Symbolic Z-matrix:
 Charge =  0 Multiplicity = 1

                         Standard orientation:
 ---------------------------------------------------------------------
 Center     Atomic      Atomic             Coordinates (Angstroms)
 Number     Number       Type             X           Y           Z
 ---------------------------------------------------------------------
      1          7           0       -6.847665   -0.906614    0.332516
      2          6           0       -8.138050   -0.190762    0.354502
      3          6           0       -4.713496   -1.407969    0.509267
      4          7           0       -5.345180   -2.555550    0.052359
      5          6           0       -6.605660   -2.207573   -0.035839
      6          1           0       -7.409000   -2.866321   -0.366946
      7          7           0       -3.074611    0.121451    1.242663
      8          6           0       -4.066953    1.009087    1.364818
      9          1           0       -3.768215    1.994715    1.719180
     10          7           0       -5.366810    0.862703    1.116137
     11          6           0       -5.626721   -0.383234    0.686580
     12          6           0       -3.368625   -1.123458    0.808106
     13          7           0       -2.379398   -2.010918    0.685522
     14          1           0       -2.551003   -2.943966    0.367426
     15          1           0       -1.433575   -1.773517    0.907330
     16          1           0       -8.768976   -0.657122    0.974665
     17          1           0       -7.994551    0.746902    0.669646
     18          1           0       -8.528667   -0.175158   -0.565919
     19          7           0       -3.147538    1.681789   -1.469921
     20          6           0       -1.798686    1.745429   -1.215724
     21          6           0       -4.130611    2.730149   -1.130498
     22          7           0        0.944885    3.452395    0.057372
     23          1           0        1.929031    3.303030    0.149007
     24          1           0        0.582072    4.315099    0.410684
     25          7           0       -1.149983    2.768136   -0.617987
     26          6           0        0.146741    2.537511   -0.513468
     27          7           0        0.763013    1.393513   -0.959546
     28          1           0        1.759951    1.302858   -0.837665
     29          6           0        0.115344    0.328356   -1.577462
     30          8           0        0.765076   -0.659059   -1.942958
     31          6           0       -1.278308    0.561560   -1.696823
     32          7           0       -2.280297   -0.229408   -2.242078
     33          6           0       -3.368831    0.473996   -2.085482
     34          1           0       -4.363393    0.157797   -2.401964
     35          1           0       -4.817931    2.356190   -0.508780
     36          1           0       -3.661626    3.492897   -0.687160
     37          1           0       -4.576548    3.053783   -1.964292
     38          1           0        6.623451    1.186959    0.640729
     39          1           0        6.924967    1.677027   -1.024684
     40          1           0        5.446087    2.187625   -0.210073
     41          1           0        6.096589   -3.023922   -1.625871
     42          6           0        5.538643   -2.103032   -1.455907
     43          8           0        3.453730   -3.029181   -2.105892
     44          6           0        4.129590   -2.082003   -1.704813
     45          1           0        2.525081   -0.814307   -1.622261
     46          7           0        3.520475   -0.868223   -1.457913
     47          8           0        3.495001    1.311468   -0.821122
     48          6           0        4.119705    0.282656   -1.010768
     49          1           0        7.220575   -0.960113   -0.815073
     50          6           0        6.151319   -0.996393   -1.019334
     51          6           0        6.163747    1.387639   -0.315552
     52          7           0        5.479926    0.182918   -0.793860
     53          1           0        4.171937    2.539235    3.322141
     54          1           0        3.039980    2.895873    2.202501
     55          1           0        4.596064    2.692736    1.753701
     56          1           0        0.881798   -3.683205    0.972307
     57          1           0        2.526078   -3.621305    1.422447
     58          7           0        1.672365   -3.132308    1.240011
     59          6           0        1.592777   -1.804561    1.349169
     60          6           0        2.437098    0.375575    1.791700
     61          7           0        1.277559    1.005508    1.540548
     62          1           0       -0.641829    0.557978    0.978176
     63          6           0        0.334632    0.129376    1.199694
     64          7           0        0.412377   -1.200835    1.089807
     65          1           0        5.551502    0.066526    2.602348
     66          6           0        4.515212   -0.098885    2.306219
     67          7           0        3.991867   -1.272687    2.049386
     68          6           0        2.674543   -0.986136    1.721833
     69          6           0        3.879510    2.382784    2.378740
     70          7           0        3.630754    0.943160    2.169903
 ---------------------------------------------------------------------

 SCF Done:  E(RwB97XD) =  -2048.73146093     A.U. after   15 cycles

 The electronic state is 1-A.
 Alpha  occ. eigenvalues --  -19.26073 -19.21942 -19.20479 -14.52621 -14.51471
 Alpha  occ. eigenvalues --  -14.49956 -14.48204 -14.47895 -14.46825 -14.46358
 Alpha  occ. eigenvalues --  -14.46198 -14.44423 -14.43171 -14.43153 -14.42742
 Alpha  occ. eigenvalues --  -14.42580 -14.42243 -14.41869 -14.41254 -14.40551
 Alpha  occ. eigenvalues --  -10.45636 -10.40791 -10.40045 -10.38711 -10.37990
 Alpha  occ. eigenvalues --  -10.37690 -10.37106 -10.36541 -10.36086 -10.36061
 Alpha  occ. eigenvalues --  -10.35218 -10.34835 -10.34623 -10.34267 -10.34033
 Alpha  occ. eigenvalues --  -10.33710 -10.32984 -10.31973 -10.31429 -10.31018
 Alpha  occ. eigenvalues --  -10.29755 -10.29458 -10.27869  -1.19672  -1.14208
 Alpha  occ. eigenvalues --   -1.13057  -1.12981  -1.12562  -1.10270  -1.09483
 Alpha  occ. eigenvalues --   -1.08358  -1.08027  -1.06178  -1.03631  -1.02555
 Alpha  occ. eigenvalues --   -1.01623  -1.00020  -0.99408  -0.98308  -0.98090
 Alpha  occ. eigenvalues --   -0.96145  -0.95659  -0.93819  -0.91069  -0.86767
 Alpha  occ. eigenvalues --   -0.85280  -0.85133  -0.84142  -0.83683  -0.83429
 Alpha  occ. eigenvalues --   -0.81757  -0.78929  -0.76070  -0.74378  -0.74006
 Alpha  occ. eigenvalues --   -0.73803  -0.73470  -0.73325  -0.72279  -0.69468
 Alpha  occ. eigenvalues --   -0.67445  -0.67119  -0.66596  -0.65808  -0.64504
 Alpha  occ. eigenvalues --   -0.63908  -0.63430  -0.63280  -0.62570  -0.61418
 Alpha  occ. eigenvalues --   -0.61246  -0.60894  -0.59718  -0.59565  -0.58817
 Alpha  occ. eigenvalues --   -0.58345  -0.58049  -0.57695  -0.57546  -0.56630
 Alpha  occ. eigenvalues --   -0.56279  -0.55987  -0.55042  -0.54652  -0.54409
 Alpha  occ. eigenvalues --   -0.54073  -0.53309  -0.53096  -0.52898  -0.52566
 Alpha  occ. eigenvalues --   -0.52412  -0.52170  -0.51785  -0.51591  -0.51163
 Alpha  occ. eigenvalues --   -0.50132  -0.49850  -0.49469  -0.48940  -0.48546
 Alpha  occ. eigenvalues --   -0.48499  -0.48106  -0.48061  -0.47835  -0.47538
 Alpha  occ. eigenvalues --   -0.47232  -0.45827  -0.45475  -0.44142  -0.43199
 Alpha  occ. eigenvalues --   -0.42030  -0.40073  -0.39607  -0.38450  -0.37220
 Alpha  occ. eigenvalues --   -0.37088  -0.37014  -0.36247  -0.35402  -0.34755
 Alpha  occ. eigenvalues --   -0.34613  -0.34240  -0.33410  -0.33154  -0.33026
 Alpha  occ. eigenvalues --   -0.32526  -0.32431  -0.31870  -0.31701  -0.31613
 Alpha  occ. eigenvalues --   -0.31452  -0.28277  -0.26890  -0.25170
 Alpha virt. eigenvalues --    0.03154   0.04820   0.06661   0.08171   0.08489
 Alpha virt. eigenvalues --    0.09167   0.09744   0.09961   0.11046   0.11837
 Alpha virt. eigenvalues --    0.12902   0.13017   0.14505   0.14773   0.14909

 Mulliken charges:
               1
     1  N   -0.311916
     2  C    0.179994
     3  C    0.050654
     4  N   -0.255527
     5  C    0.132190
     6  H    0.030217
     7  N   -0.266656
     8  C    0.125972
     9  H    0.022304
    10  N   -0.293261
    11  C    0.234599
    12  C    0.096174
    13  N   -0.042919
    14  H    0.108148
    15  H    0.088257
    16  H    0.028900
    17  H    0.035102
    18  H    0.026728
    19  N   -0.292214
    20  C    0.243790
    21  C    0.178001
    22  N   -0.090156
    23  H    0.108250
    24  H    0.112653
    25  N   -0.291042
    26  C    0.207799
    27  N   -0.117103
    28  H    0.121209
    29  C    0.135525
    30  O   -0.322725
    31  C    0.012773
    32  N   -0.223429
    33  C    0.114252
    34  H    0.024765
    35  H    0.019062
    36  H    0.023340
    37  H    0.017670
    38  H    0.045603
    39  H    0.066454
    40  H    0.081363
    41  H    0.030973
    42  C   -0.098645
    43  O   -0.267773
    44  C    0.181838
    45  H    0.134339
    46  N   -0.128306
    47  O   -0.345828
    48  C    0.344511
    49  H    0.045438
    50  C    0.172643
    51  C    0.030794
    52  N   -0.282573
    53  H    0.033367
    54  H    0.028531
    55  H    0.003852
    56  H    0.119302
    57  H    0.120328
    58  N   -0.063089
    59  C    0.129018
    60  C    0.224543
    61  N   -0.282827
    62  H    0.041352
    63  C    0.170895
    64  N   -0.303906
    65  H    0.028955
    66  C    0.109786
    67  N   -0.248577
    68  C    0.012045
    69  C    0.186461
    70  N   -0.292247
 Sum of Mulliken charges =  -0.00000

 Dipole moment (field-independent basis, Debye):
    X=              5.0617    Y=              5.6894    Z=              4.3266  Tot=              8.7584
 Quadrupole moment (field-independent basis, Debye-Ang):
   XX=           -139.8644   YY=           -227.8218   ZZ=           -258.4025
   XY=             16.3767   XZ=             15.6773   YZ=             -7.1303

 Normal termination of Gaussian 16 at Fri Jan 19 16:21:02 2018.
