 Gaussian 16, Revision A.03,
 Gaussian 16:  EM64L-G16RevA.03 25-Dec-2016

 ---------------------------------------
 #p wb97xd/cc-pvdz sp scf=(maxcycles=20)
 ---------------------------------------

 ------------------
 Base pair stacking
 ------------------
 Symbolic Z-matrix:
 Charge =  0 Multiplicity = 1

                         Standard orientation:
 ---------------------------------------------------------------------
 Center     Atomic      Atomic             Coordinates (Angstroms)
 Number     Number       Type             X           Y           Z
 ---------------------------------------------------------------------
      1          7           0        4.842697   -2.126788   -0.890666
      2          6           0        6.143384   -1.893209   -1.547673
      3          6           0        2.694863   -2.145868   -0.417652
      4          7           0        3.324139   -2.837412    0.607297
      5          6           0        4.592943   -2.798244    0.281293
      6          1           0        5.397199   -3.246975    0.865041
      7          7           0        1.055034   -1.130621   -1.775284
      8          6           0        2.056994   -0.769636   -2.583581
      9          1           0        1.761607   -0.204319   -3.466431
     10          7           0        3.362912   -1.001037   -2.465607
     11          6           0        3.617977   -1.701835   -1.348351
     12          6           0        1.344378   -1.834870   -0.659312
     13          7           0        0.345560   -2.196134    0.148791
     14          1           0        0.513408   -2.718245    0.985720
     15          1           0       -0.604016   -1.957349   -0.054703
     16          1           0        6.569892   -2.770780   -1.767090
     17          1           0        6.003824   -1.371924   -2.389043
     18          1           0        6.741538   -1.378103   -0.933768
     19          7           0        5.252836    1.691173    0.279971
     20          6           0        3.893034    1.883489    0.235252
     21          6           0        6.247920    2.443939   -0.509875
     22          7           0        1.132973    3.561411   -1.040845
     23          1           0        0.140113    3.542034   -0.926388
     24          1           0        1.501981    4.227306   -1.689798
     25          7           0        3.242708    2.785208   -0.531590
     26          6           0        1.934376    2.732091   -0.355364
     27          7           0        1.308783    1.863130    0.505488
     28          1           0        0.303236    1.892967    0.575876
     29          6           0        1.957912    0.926896    1.304221
     30          8           0        1.299162    0.189137    2.047511
     31          6           0        3.363982    0.972029    1.125831
     32          7           0        4.371370    0.222566    1.717757
     33          6           0        5.471530    0.682982    1.186830
     34          1           0        6.473168    0.321544    1.422099
     35          1           0        6.760884    1.813156   -1.091067
     36          1           0        5.777850    3.114896   -1.081820
     37          1           0        6.877435    2.915687    0.106544
     38          1           0       -4.743086    2.102638   -0.010066
     39          1           0       -4.664413    3.075619    1.456829
     40          1           0       -3.330585    3.111658    0.303151
     41          1           0       -4.195888   -1.342100    3.303681
     42          6           0       -3.594989   -0.599355    2.778802
     43          8           0       -1.523464   -1.610612    3.338460
     44          6           0       -2.169231   -0.721859    2.783595
     45          1           0       -0.496180    0.217057    2.071089
     46          7           0       -1.504930    0.269726    2.090253
     47          8           0       -1.392398    2.157105    0.832350
     48          6           0       -2.065096    1.327460    1.418713
     49          1           0       -5.250372    0.559615    2.098852
     50          6           0       -4.170512    0.421359    2.132643
     51          6           0       -4.088180    2.489701    0.756323
     52          7           0       -3.444612    1.376837    1.459955
     53          1           0       -6.263231    0.897655   -4.013899
     54          1           0       -4.873036    1.630604   -3.575435
     55          1           0       -6.288936    2.105809   -2.917027
     56          1           0       -3.012227   -2.904357    1.467083
     57          1           0       -4.706152   -2.789232    1.301394
     58          7           0       -3.797592   -2.497417    1.000450
     59          6           0       -3.641345   -1.605183    0.020308
     60          6           0       -4.391305   -0.096653   -1.660057
     61          7           0       -3.159168    0.276606   -2.043386
     62          1           0       -1.202760   -0.110959   -1.571318
     63          6           0       -2.234666   -0.356557   -1.324150
     64          7           0       -2.389150   -1.250534   -0.342051
     65          1           0       -7.623534   -0.166209   -1.657341
     66          6           0       -6.563009   -0.324036   -1.459052
     67          7           0       -6.088245   -1.139307   -0.549330
     68          6           0       -4.712389   -1.004756   -0.666193
     69          6           0       -5.768315    1.321899   -3.255559
     70          7           0       -5.591837    0.339533   -2.168446
 ---------------------------------------------------------------------

 SCF Done:  E(RwB97XD) =  -2048.74229981     A.U. after   15 cycles

 The electronic state is 1-A.
 Alpha  occ. eigenvalues --  -19.25428 -19.22255 -19.20804 -14.52552 -14.51893
 Alpha  occ. eigenvalues --  -14.49253 -14.48436 -14.47727 -14.47529 -14.47030
 Alpha  occ. eigenvalues --  -14.46838 -14.45467 -14.44498 -14.44424 -14.42210
 Alpha  occ. eigenvalues --  -14.42197 -14.41397 -14.40928 -14.40771 -14.40392
 Alpha  occ. eigenvalues --  -10.44999 -10.41430 -10.40115 -10.39827 -10.38452
 Alpha  occ. eigenvalues --  -10.38039 -10.37318 -10.36821 -10.35930 -10.35399
 Alpha  occ. eigenvalues --  -10.34808 -10.34697 -10.33934 -10.33848 -10.33616
 Alpha  occ. eigenvalues --  -10.33192 -10.33103 -10.32796 -10.31394 -10.31006
 Alpha  occ. eigenvalues --  -10.30747 -10.28473 -10.28324  -1.19007  -1.15297
 Alpha  occ. eigenvalues --   -1.13428  -1.13149  -1.11025  -1.10939  -1.09423
 Alpha  occ. eigenvalues --   -1.08849  -1.08705  -1.05030  -1.04861  -1.02227
 Alpha  occ. eigenvalues --   -1.01009  -1.00359  -0.99929  -0.98796  -0.97003
 Alpha  occ. eigenvalues --   -0.96981  -0.96582  -0.92704  -0.90612  -0.87706
 Alpha  occ. eigenvalues --   -0.85942  -0.84507  -0.83747  -0.83253  -0.82895
 Alpha  occ. eigenvalues --   -0.82191  -0.78467  -0.77065  -0.74959  -0.74901
 Alpha  occ. eigenvalues --   -0.73841  -0.73056  -0.72744  -0.70943  -0.70420
 Alpha  occ. eigenvalues --   -0.67642  -0.66883  -0.66196  -0.66098  -0.64616
 Alpha  occ. eigenvalues --   -0.64260  -0.63683  -0.62809  -0.62586  -0.62031
 Alpha  occ. eigenvalues --   -0.60683  -0.60479  -0.60289  -0.59461  -0.59043
 Alpha  occ. eigenvalues --   -0.58946  -0.58559  -0.57316  -0.56461  -0.56060
 Alpha  occ. eigenvalues --   -0.55863  -0.55468  -0.55216  -0.54390  -0.54185
 Alpha  occ. eigenvalues --   -0.53843  -0.53694  -0.53660  -0.53288  -0.53208
 Alpha  occ. eigenvalues --   -0.52812  -0.52107  -0.51644  -0.50660  -0.50455
 Alpha  occ. eigenvalues --   -0.50263  -0.49922  -0.49653  -0.49231  -0.48987
 Alpha  occ. eigenvalues --   -0.48798  -0.48634  -0.48150  -0.48016  -0.47426
 Alpha  occ. eigenvalues --   -0.46840  -0.46004  -0.45487  -0.44749  -0.42592
 Alpha  occ. eigenvalues --   -0.41012  -0.40766  -0.39161  -0.38177  -0.37591
 Alpha  occ. eigenvalues --   -0.37530  -0.37436  -0.36921  -0.35987  -0.34666
 Alpha  occ. eigenvalues --   -0.34407  -0.34111  -0.33467  -0.33353  -0.33255
 Alpha  occ. eigenvalues --   -0.32977  -0.32653  -0.31995  -0.31543  -0.30788
 Alpha  occ. eigenvalues --   -0.30371  -0.29652  -0.26275  -0.25162
 Alpha virt. eigenvalues --    0.03004   0.04230   0.07263   0.07957   0.08652
 Alpha virt. eigenvalues --    0.08894   0.09577   0.10391   0.11094   0.12042
 Alpha virt. eigenvalues --    0.12928   0.13172   0.14232   0.14596   0.14935

 Mulliken charges:
               1
     1  N   -0.304629
     2  C    0.182421
     3  C    0.050206
     4  N   -0.244347
     5  C    0.145790
     6  H    0.024108
     7  N   -0.295224
     8  C    0.131204
     9  H    0.009828
    10  N   -0.286316
    11  C    0.237045
    12  C    0.082583
    13  N   -0.049351
    14  H    0.118208
    15  H    0.086271
    16  H    0.026018
    17  H    0.032891
    18  H    0.012650
    19  N   -0.310145
    20  C    0.261116
    21  C    0.182400
    22  N   -0.124568
    23  H    0.118468
    24  H    0.119277
    25  N   -0.311876
    26  C    0.250853
    27  N   -0.146425
    28  H    0.120864
    29  C    0.190236
    30  O   -0.320890
    31  C   -0.015840
    32  N   -0.215666
    33  C    0.112090
    34  H    0.022384
    35  H    0.022350
    36  H    0.032473
    37  H    0.025618
    38  H    0.051779
    39  H    0.057381
    40  H    0.074986
    41  H    0.014974
    42  C   -0.099643
    43  O   -0.277198
    44  C    0.167244
    45  H    0.128933
    46  N   -0.111256
    47  O   -0.352528
    48  C    0.339503
    49  H    0.043750
    50  C    0.163347
    51  C    0.046924
    52  N   -0.277145
    53  H    0.035210
    54  H    0.042560
    55  H    0.027135
    56  H    0.124350
    57  H    0.115260
    58  N   -0.048598
    59  C    0.083829
    60  C    0.227607
    61  N   -0.264096
    62  H    0.032133
    63  C    0.165553
    64  N   -0.304764
    65  H    0.037869
    66  C    0.133105
    67  N   -0.258054
    68  C    0.036443
    69  C    0.179522
    70  N   -0.308196
 Sum of Mulliken charges =  -0.00000

 Dipole moment (field-independent basis, Debye):
    X=             -5.8596    Y=              6.1129    Z=             -4.9108  Tot=              9.7886
 Quadrupole moment (field-independent basis, Debye-Ang):
   XX=           -148.2095   YY=           -226.0141   ZZ=           -256.0497
   XY=             -8.7152   XZ=             -2.4998   YZ=             -6.8365

 Normal termination of Gaussian 16 at Fri Jan 19 20:35:53 2018.
