 Gaussian 16, Revision A.03,
 Gaussian 16:  EM64L-G16RevA.03 25-Dec-2016

 ---------------------------------------
 #p wb97xd/cc-pvdz sp scf=(maxcycles=20)
 ---------------------------------------

 ------------------
 Base pair stacking
 ------------------
 Symbolic Z-matrix:
 Charge =  0 Multiplicity = 1

                         Standard orientation:
 ---------------------------------------------------------------------
 Center     Atomic      Atomic             Coordinates (Angstroms)
 Number     Number       Type             X           Y           Z
 ---------------------------------------------------------------------
      1          7           0        5.468181   -1.607932   -0.976261
      2          6           0        6.786630   -1.114908   -1.419692
      3          6           0        3.302363   -1.876565   -0.703507
      4          7           0        3.915333   -2.835144    0.090288
      5          6           0        5.195627   -2.634942   -0.105802
      6          1           0        5.992504   -3.212664    0.363397
      7          7           0        1.680674   -0.549366   -1.785923
      8          6           0        2.701918    0.099834   -2.354419
      9          1           0        2.421633    0.907942   -3.028705
     10          7           0        4.011253   -0.098420   -2.215706
     11          6           0        4.246692   -1.112622   -1.366959
     12          6           0        1.950577   -1.564871   -0.936816
     13          7           0        0.932491   -2.214115   -0.368338
     14          1           0        1.085545   -2.972202    0.266562
     15          1           0       -0.017391   -1.965033   -0.557594
     16          1           0        7.283904   -1.853076   -1.875767
     17          1           0        6.662061   -0.354875   -2.056842
     18          1           0        7.311093   -0.801452   -0.628052
     19          7           0        4.646055    1.740195    0.853927
     20          6           0        3.281980    1.874831    0.757916
     21          6           0        5.638458    2.653675    0.252756
     22          7           0        0.504870    3.606384   -0.404450
     23          1           0       -0.490071    3.523693   -0.354470
     24          1           0        0.870357    4.383167   -0.918004
     25          7           0        2.624344    2.856331    0.103534
     26          6           0        1.313449    2.716116    0.190137
     27          7           0        0.692113    1.693645    0.865429
     28          1           0       -0.315858    1.665920    0.878891
     29          6           0        1.348776    0.672973    1.545789
     30          8           0        0.693350   -0.202927    2.123675
     31          6           0        2.757679    0.810128    1.461707
     32          7           0        3.772184    0.022913    1.988943
     33          6           0        4.871792    0.611702    1.603710
     34          1           0        5.878013    0.263603    1.839573
     35          1           0        6.214819    2.147460   -0.387836
     36          1           0        5.162984    3.384855   -0.234663
     37          1           0        6.208158    3.049673    0.972091
     38          1           0       -5.328549    1.735216    0.029844
     39          1           0       -5.379984    2.465112    1.632735
     40          1           0       -3.991617    2.745079    0.581354
     41          1           0       -4.767964   -2.163985    2.791825
     42          6           0       -4.181933   -1.320545    2.426555
     43          8           0       -2.090339   -2.312184    2.945225
     44          6           0       -2.753810   -1.376955    2.498071
     45          1           0       -1.099599   -0.261199    2.043085
     46          7           0       -2.109345   -0.258414    2.009412
     47          8           0       -2.034489    1.808128    1.070797
     48          6           0       -2.690580    0.865921    1.478787
     49          1           0       -5.860340   -0.145096    1.837449
     50          6           0       -4.777793   -0.237452    1.914241
     51          6           0       -4.736742    2.025011    0.885334
     52          7           0       -4.071007    0.845003    1.444021
     53          1           0       -5.612970    1.766143   -3.816557
     54          1           0       -4.304073    2.378071   -3.058656
     55          1           0       -5.785401    2.548809   -2.394892
     56          1           0       -2.441651   -3.463243    0.386040
     57          1           0       -4.126710   -3.376720    0.134636
     58          7           0       -3.223809   -2.962276    0.015364
     59          6           0       -3.070713   -1.793423   -0.610358
     60          6           0       -3.820491    0.144749   -1.769260
     61          7           0       -2.595991    0.677482   -1.914850
     62          1           0       -0.649164    0.245702   -1.441511
     63          6           0       -1.674864   -0.113140   -1.367728
     64          7           0       -1.826200   -1.284188   -0.740580
     65          1           0       -7.035052   -0.067156   -2.041081
     66          6           0       -5.979862   -0.233101   -1.822055
     67          7           0       -5.505564   -1.277963   -1.188827
     68          6           0       -4.137505   -1.050976   -1.148541
     69          6           0       -5.193703    1.942111   -2.925914
     70          7           0       -5.015656    0.668269   -2.202289
 ---------------------------------------------------------------------

 SCF Done:  E(RwB97XD) =  -2048.75266654     A.U. after   15 cycles

 The electronic state is 1-A.
 Alpha  occ. eigenvalues --  -19.25524 -19.21810 -19.20639 -14.52406 -14.52082
 Alpha  occ. eigenvalues --  -14.48918 -14.48864 -14.47593 -14.47523 -14.46876
 Alpha  occ. eigenvalues --  -14.46661 -14.45363 -14.44143 -14.44112 -14.42442
 Alpha  occ. eigenvalues --  -14.42007 -14.41332 -14.41182 -14.41000 -14.40538
 Alpha  occ. eigenvalues --  -10.45109 -10.41237 -10.39933 -10.39604 -10.38272
 Alpha  occ. eigenvalues --  -10.37911 -10.37264 -10.37053 -10.35637 -10.35627
 Alpha  occ. eigenvalues --  -10.35046 -10.34415 -10.34085 -10.33995 -10.33517
 Alpha  occ. eigenvalues --  -10.33501 -10.33317 -10.32484 -10.31459 -10.30971
 Alpha  occ. eigenvalues --  -10.30706 -10.28634 -10.28176  -1.19127  -1.15154
 Alpha  occ. eigenvalues --   -1.13214  -1.12858  -1.11443  -1.10650  -1.09051
 Alpha  occ. eigenvalues --   -1.08987  -1.08569  -1.05257  -1.04520  -1.02229
 Alpha  occ. eigenvalues --   -1.00866  -1.00625  -0.99735  -0.98553  -0.97102
 Alpha  occ. eigenvalues --   -0.96648  -0.96594  -0.92926  -0.90667  -0.87521
 Alpha  occ. eigenvalues --   -0.85864  -0.84196  -0.84124  -0.83443  -0.82638
 Alpha  occ. eigenvalues --   -0.82499  -0.78511  -0.76848  -0.74706  -0.74626
 Alpha  occ. eigenvalues --   -0.73635  -0.73081  -0.73074  -0.71233  -0.70188
 Alpha  occ. eigenvalues --   -0.67410  -0.66574  -0.66492  -0.66220  -0.64359
 Alpha  occ. eigenvalues --   -0.63998  -0.63698  -0.62907  -0.62625  -0.61797
 Alpha  occ. eigenvalues --   -0.61152  -0.60558  -0.60261  -0.59343  -0.59135
 Alpha  occ. eigenvalues --   -0.58602  -0.58380  -0.57304  -0.56774  -0.56185
 Alpha  occ. eigenvalues --   -0.55781  -0.55670  -0.55182  -0.54410  -0.54138
 Alpha  occ. eigenvalues --   -0.53722  -0.53586  -0.53459  -0.53133  -0.52961
 Alpha  occ. eigenvalues --   -0.52682  -0.52224  -0.52051  -0.50956  -0.50479
 Alpha  occ. eigenvalues --   -0.50185  -0.49891  -0.49322  -0.49061  -0.48988
 Alpha  occ. eigenvalues --   -0.48820  -0.48380  -0.48113  -0.47607  -0.47317
 Alpha  occ. eigenvalues --   -0.47131  -0.46064  -0.44960  -0.44778  -0.43153
 Alpha  occ. eigenvalues --   -0.41234  -0.40574  -0.39166  -0.37769  -0.37375
 Alpha  occ. eigenvalues --   -0.37284  -0.37250  -0.37172  -0.36109  -0.34425
 Alpha  occ. eigenvalues --   -0.34349  -0.34018  -0.33613  -0.33470  -0.33091
 Alpha  occ. eigenvalues --   -0.32670  -0.32304  -0.31871  -0.31756  -0.31083
 Alpha  occ. eigenvalues --   -0.30647  -0.29507  -0.26156  -0.25284
 Alpha virt. eigenvalues --    0.03510   0.04136   0.07238   0.07665   0.08500
 Alpha virt. eigenvalues --    0.09194   0.09689   0.10513   0.10791   0.12216
 Alpha virt. eigenvalues --    0.13248   0.13340   0.14163   0.14378   0.14901

 Mulliken charges:
               1
     1  N   -0.305418
     2  C    0.177119
     3  C    0.065488
     4  N   -0.247076
     5  C    0.131866
     6  H    0.025201
     7  N   -0.291908
     8  C    0.135173
     9  H    0.011049
    10  N   -0.286421
    11  C    0.227088
    12  C    0.087842
    13  N   -0.044659
    14  H    0.113387
    15  H    0.085137
    16  H    0.028145
    17  H    0.035979
    18  H    0.017654
    19  N   -0.301303
    20  C    0.257514
    21  C    0.184150
    22  N   -0.122898
    23  H    0.118352
    24  H    0.118158
    25  N   -0.308554
    26  C    0.244563
    27  N   -0.142784
    28  H    0.117285
    29  C    0.186906
    30  O   -0.324108
    31  C   -0.018977
    32  N   -0.215168
    33  C    0.117288
    34  H    0.018056
    35  H    0.021284
    36  H    0.031340
    37  H    0.022916
    38  H    0.046885
    39  H    0.060420
    40  H    0.075779
    41  H    0.020942
    42  C   -0.103266
    43  O   -0.274123
    44  C    0.159516
    45  H    0.129937
    46  N   -0.106585
    47  O   -0.345103
    48  C    0.334747
    49  H    0.044738
    50  C    0.173156
    51  C    0.043919
    52  N   -0.276712
    53  H    0.035112
    54  H    0.042163
    55  H    0.021523
    56  H    0.126978
    57  H    0.116937
    58  N   -0.047540
    59  C    0.079864
    60  C    0.217455
    61  N   -0.263264
    62  H    0.028531
    63  C    0.159120
    64  N   -0.297119
    65  H    0.035004
    66  C    0.117160
    67  N   -0.252061
    68  C    0.047210
    69  C    0.180719
    70  N   -0.301713
 Sum of Mulliken charges =  -0.00000

 Dipole moment (field-independent basis, Debye):
    X=             -5.7685    Y=              6.1913    Z=             -4.3470  Tot=              9.5133
 Quadrupole moment (field-independent basis, Debye-Ang):
   XX=           -147.2501   YY=           -223.9319   ZZ=           -260.0997
   XY=             -9.0303   XZ=              2.4610   YZ=              0.0888

 Normal termination of Gaussian 16 at Sat Jan 20 03:53:21 2018.
