 Gaussian 16, Revision A.03,
 Gaussian 16:  EM64L-G16RevA.03 25-Dec-2016

 ---------------------------------------
 #p wb97xd/cc-pvdz sp scf=(maxcycles=20)
 ---------------------------------------

 ------------------
 Base pair stacking
 ------------------
 Symbolic Z-matrix:
 Charge =  0 Multiplicity = 1

                         Standard orientation:
 ---------------------------------------------------------------------
 Center     Atomic      Atomic             Coordinates (Angstroms)
 Number     Number       Type             X           Y           Z
 ---------------------------------------------------------------------
      1          7           0        6.303749   -1.027440   -0.653634
      2          6           0        7.605481   -0.332626   -0.681005
      3          6           0        4.155698   -1.482539   -0.780425
      4          7           0        4.782215   -2.665579   -0.416238
      5          6           0        6.051259   -2.344044   -0.354430
      6          1           0        6.853749   -3.034456   -0.093088
      7          7           0        2.519883    0.114566   -1.360332
      8          6           0        3.523371    0.991698   -1.466351
      9          1           0        3.230260    2.001528   -1.750217
     10          7           0        4.828443    0.809543   -1.275263
     11          6           0        5.080682   -0.463984   -0.930385
     12          6           0        2.806393   -1.158780   -1.011664
     13          7           0        1.806048   -2.035811   -0.905318
     14          1           0        1.971792   -2.988934   -0.649779
     15          1           0        0.857371   -1.770188   -1.077348
     16          1           0        8.204898   -0.771119   -1.350769
     17          1           0        7.468007    0.624476   -0.934369
     18          1           0        8.029312   -0.378632    0.223562
     19          7           0        3.762565    1.533970    1.361558
     20          6           0        2.407103    1.631251    1.158290
     21          6           0        4.761100    2.543937    0.957076
     22          7           0       -0.334579    3.386619   -0.051501
     23          1           0       -1.325451    3.264288   -0.100967
     24          1           0        0.038575    4.229105   -0.440961
     25          7           0        1.764871    2.657547    0.559719
     26          6           0        0.458938    2.462964    0.511604
     27          7           0       -0.171756    1.349224    1.010909
     28          1           0       -1.174924    1.285174    0.930181
     29          6           0        0.469033    0.281037    1.630780
     30          8           0       -0.193791   -0.677256    2.046797
     31          6           0        1.872422    0.475689    1.689891
     32          7           0        2.872083   -0.330819    2.216307
     33          6           0        3.973300    0.335858    1.999338
     34          1           0        4.970108   -0.001717    2.285141
     35          1           0        5.412308    2.134374    0.319120
     36          1           0        4.297022    3.308970    0.512535
     37          1           0        5.248741    2.874859    1.764232
     38          1           0       -6.094379    1.276820   -0.354965
     39          1           0       -6.315653    1.816952    1.307539
     40          1           0       -4.856106    2.262994    0.423165
     41          1           0       -5.599277   -2.890065    1.998434
     42          6           0       -5.022321   -1.990654    1.783018
     43          8           0       -2.940752   -2.961771    2.375578
     44          6           0       -3.604504   -2.005247    1.976465
     45          1           0       -1.968824   -0.788158    1.798760
     46          7           0       -2.971073   -0.816597    1.674596
     47          8           0       -2.908307    1.344837    0.980716
     48          6           0       -3.554272    0.340060    1.221187
     49          1           0       -6.694804   -0.814663    1.178342
     50          6           0       -5.619785   -0.877550    1.341854
     51          6           0       -5.591664    1.487530    0.577207
     52          7           0       -4.924299    0.275343    1.059863
     53          1           0       -4.751225    2.770228   -3.021907
     54          1           0       -3.573179    3.040594   -1.925912
     55          1           0       -5.115523    2.836201   -1.432454
     56          1           0       -1.493669   -3.634656   -1.169527
     57          1           0       -3.151705   -3.519138   -1.553794
     58          7           0       -2.283087   -3.055913   -1.374490
     59          6           0       -2.183021   -1.725472   -1.407505
     60          6           0       -3.002439    0.490721   -1.688152
     61          7           0       -1.823164    1.085519   -1.443289
     62          1           0        0.106714    0.573916   -0.980179
     63          6           0       -0.884853    0.175294   -1.190326
     64          7           0       -0.983102   -1.157668   -1.156786
     65          1           0       -6.149249    0.281522   -2.399443
     66          6           0       -5.106173    0.081827   -2.152365
     67          7           0       -4.595623   -1.113627   -1.985290
     68          6           0       -3.262271   -0.868694   -1.690478
     69          6           0       -4.427847    2.552711   -2.100977
     70          7           0       -4.198296    1.099311   -1.987374
 ---------------------------------------------------------------------

 SCF Done:  E(RwB97XD) =  -2048.72434873     A.U. after   15 cycles

 The electronic state is 1-A.
 Alpha  occ. eigenvalues --  -19.25559 -19.21751 -19.20444 -14.52363 -14.52179
 Alpha  occ. eigenvalues --  -14.49792 -14.48184 -14.47629 -14.47560 -14.46444
 Alpha  occ. eigenvalues --  -14.46066 -14.45167 -14.43722 -14.43719 -14.43162
 Alpha  occ. eigenvalues --  -14.42306 -14.41763 -14.41687 -14.41018 -14.40446
 Alpha  occ. eigenvalues --  -10.45247 -10.40799 -10.39859 -10.39439 -10.37909
 Alpha  occ. eigenvalues --  -10.37702 -10.37528 -10.36811 -10.36336 -10.35605
 Alpha  occ. eigenvalues --  -10.35208 -10.34960 -10.34272 -10.34029 -10.33835
 Alpha  occ. eigenvalues --  -10.33827 -10.32981 -10.32166 -10.32027 -10.30768
 Alpha  occ. eigenvalues --  -10.29436 -10.29275 -10.27633  -1.19365  -1.14921
 Alpha  occ. eigenvalues --   -1.12990  -1.12776  -1.12326  -1.10235  -1.09263
 Alpha  occ. eigenvalues --   -1.08719  -1.08239  -1.05938  -1.04306  -1.02335
 Alpha  occ. eigenvalues --   -1.01445  -1.00714  -0.99301  -0.98259  -0.97918
 Alpha  occ. eigenvalues --   -0.96343  -0.96052  -0.93621  -0.90851  -0.87477
 Alpha  occ. eigenvalues --   -0.85879  -0.84927  -0.83907  -0.83570  -0.83268
 Alpha  occ. eigenvalues --   -0.81625  -0.78703  -0.76738  -0.74606  -0.74212
 Alpha  occ. eigenvalues --   -0.73818  -0.73349  -0.73166  -0.71986  -0.70127
 Alpha  occ. eigenvalues --   -0.67268  -0.66988  -0.66456  -0.66366  -0.64494
 Alpha  occ. eigenvalues --   -0.64020  -0.63628  -0.63362  -0.62525  -0.61736
 Alpha  occ. eigenvalues --   -0.61369  -0.61112  -0.60403  -0.59406  -0.59312
 Alpha  occ. eigenvalues --   -0.58016  -0.57822  -0.57740  -0.57468  -0.56562
 Alpha  occ. eigenvalues --   -0.56232  -0.55873  -0.55130  -0.55008  -0.54431
 Alpha  occ. eigenvalues --   -0.54075  -0.53395  -0.53163  -0.52941  -0.52593
 Alpha  occ. eigenvalues --   -0.52373  -0.52221  -0.52017  -0.51433  -0.50942
 Alpha  occ. eigenvalues --   -0.50016  -0.49673  -0.49272  -0.49113  -0.48811
 Alpha  occ. eigenvalues --   -0.48401  -0.48329  -0.47951  -0.47824  -0.47158
 Alpha  occ. eigenvalues --   -0.47063  -0.45608  -0.45322  -0.44390  -0.43188
 Alpha  occ. eigenvalues --   -0.41900  -0.40520  -0.39333  -0.38106  -0.37465
 Alpha  occ. eigenvalues --   -0.37355  -0.37083  -0.36918  -0.35730  -0.34630
 Alpha  occ. eigenvalues --   -0.34369  -0.34099  -0.33873  -0.33314  -0.32944
 Alpha  occ. eigenvalues --   -0.32419  -0.31962  -0.31739  -0.31577  -0.31484
 Alpha  occ. eigenvalues --   -0.31242  -0.29256  -0.26647  -0.24913
 Alpha virt. eigenvalues --    0.03144   0.04513   0.06910   0.07511   0.08218
 Alpha virt. eigenvalues --    0.08804   0.10060   0.10203   0.11135   0.12153
 Alpha virt. eigenvalues --    0.13141   0.13356   0.14217   0.14440   0.14748

 Mulliken charges:
               1
     1  N   -0.310824
     2  C    0.176653
     3  C    0.066348
     4  N   -0.253551
     5  C    0.129312
     6  H    0.029049
     7  N   -0.274369
     8  C    0.136535
     9  H    0.016192
    10  N   -0.292085
    11  C    0.228364
    12  C    0.094678
    13  N   -0.044612
    14  H    0.109129
    15  H    0.089178
    16  H    0.029748
    17  H    0.038561
    18  H    0.025228
    19  N   -0.282452
    20  C    0.218376
    21  C    0.186139
    22  N   -0.097340
    23  H    0.113971
    24  H    0.112664
    25  N   -0.289872
    26  C    0.202276
    27  N   -0.143609
    28  H    0.134589
    29  C    0.155635
    30  O   -0.323860
    31  C    0.013419
    32  N   -0.220216
    33  C    0.120334
    34  H    0.018723
    35  H    0.019205
    36  H    0.024047
    37  H    0.014641
    38  H    0.029230
    39  H    0.062005
    40  H    0.075092
    41  H    0.028733
    42  C   -0.103598
    43  O   -0.266838
    44  C    0.175558
    45  H    0.132728
    46  N   -0.125195
    47  O   -0.334849
    48  C    0.334179
    49  H    0.043835
    50  C    0.175558
    51  C    0.048023
    52  N   -0.276759
    53  H    0.033989
    54  H    0.035441
    55  H    0.012505
    56  H    0.122003
    57  H    0.120244
    58  N   -0.061003
    59  C    0.120523
    60  C    0.219880
    61  N   -0.276423
    62  H    0.041786
    63  C    0.154287
    64  N   -0.305851
    65  H    0.040970
    66  C    0.104102
    67  N   -0.241449
    68  C    0.022552
    69  C    0.181373
    70  N   -0.292832
 Sum of Mulliken charges =  -0.00000

 Dipole moment (field-independent basis, Debye):
    X=             -5.2066    Y=              5.8472    Z=             -4.6918  Tot=              9.1275
 Quadrupole moment (field-independent basis, Debye-Ang):
   XX=           -144.2273   YY=           -227.4089   ZZ=           -260.8829
   XY=            -13.9887   XZ=              9.2346   YZ=              9.0507

 Normal termination of Gaussian 16 at Fri Jan 19 19:11:12 2018.
