 Gaussian 16, Revision A.03,
 Gaussian 16:  EM64L-G16RevA.03 25-Dec-2016

 ---------------------------------------
 #p wb97xd/cc-pvdz sp scf=(maxcycles=20)
 ---------------------------------------

 ------------------
 Base pair stacking
 ------------------
 Symbolic Z-matrix:
 Charge =  0 Multiplicity = 1

                         Standard orientation:
 ---------------------------------------------------------------------
 Center     Atomic      Atomic             Coordinates (Angstroms)
 Number     Number       Type             X           Y           Z
 ---------------------------------------------------------------------
      1          7           0       -5.160335   -2.157325    0.497673
      2          6           0       -6.464863   -2.021825    1.174323
      3          6           0       -3.007081   -2.135655    0.050091
      4          7           0       -3.636196   -2.608664   -1.092372
      5          6           0       -4.908271   -2.602785   -0.776992
      6          1           0       -5.713416   -2.916062   -1.442227
      7          7           0       -1.365684   -1.429756    1.589721
      8          6           0       -2.371047   -1.204179    2.441733
      9          1           0       -2.076339   -0.821027    3.417749
     10          7           0       -3.679659   -1.380030    2.269932
     11          6           0       -3.933612   -1.853228    1.038671
     12          6           0       -1.653991   -1.905825    0.358737
     13          7           0       -0.651776   -2.131630   -0.493173
     14          1           0       -0.818741   -2.483816   -1.414749
     15          1           0        0.299586   -1.956563   -0.239403
     16          1           0       -6.911998   -2.915169    1.221130
     17          1           0       -6.326243   -1.670649    2.099840
     18          1           0       -7.044037   -1.387553    0.662223
     19          7           0       -4.944342    1.932799   -0.138764
     20          6           0       -3.581371    2.083727   -0.051582
     21          6           0       -5.935919    2.626201    0.707790
     22          7           0       -0.806524    3.548431    1.437235
     23          1           0        0.187606    3.514858    1.338082
     24          1           0       -1.171703    4.153509    2.145211
     25          7           0       -2.924261    2.884396    0.815136
     26          6           0       -1.614440    2.815341    0.656365
     27          7           0       -0.993628    2.023418   -0.279020
     28          1           0        0.013520    2.033920   -0.329053
     29          6           0       -1.649766    1.191671   -1.180990
     30          8           0       -0.994893    0.517237   -1.985359
     31          6           0       -3.057516    1.255122   -1.022551
     32          7           0       -4.071202    0.597239   -1.705576
     33          6           0       -5.169903    1.029332   -1.148481
     34          1           0       -6.175299    0.720435   -1.436627
     35          1           0       -6.475300    1.952671    1.212006
     36          1           0       -5.460823    3.222192    1.353817
     37          1           0       -6.541659    3.175219    0.132922
     38          1           0        5.051126    2.049633    0.360118
     39          1           0        5.024705    3.170053   -0.999511
     40          1           0        3.670006    3.122244    0.129135
     41          1           0        4.484531   -1.020439   -3.300518
     42          6           0        3.891854   -0.320102   -2.711877
     43          8           0        1.807535   -1.213694   -3.407737
     44          6           0        2.463885   -0.403980   -2.753246
     45          1           0        0.800705    0.500278   -1.975764
     46          7           0        1.810631    0.528126   -1.972432
     47          8           0        1.719756    2.278413   -0.528330
     48          6           0        2.383277    1.496102   -1.185894
     49          1           0        5.561491    0.718911   -1.888111
     50          6           0        4.479433    0.613268   -1.954138
     51          6           0        4.420859    2.530526   -0.373074
     52          7           0        3.764135    1.513216   -1.198629
     53          1           0        5.960953   -0.021482    4.239128
     54          1           0        4.591993    0.811631    3.932619
     55          1           0        6.026052    1.369871    3.388645
     56          1           0        2.708641   -2.655534   -1.888656
     57          1           0        4.402133   -2.611534   -1.688067
     58          7           0        3.495643   -2.360933   -1.346456
     59          6           0        3.344156   -1.664831   -0.217893
     60          6           0        4.101534   -0.514990    1.722725
     61          7           0        2.872097   -0.192591    2.157428
     62          1           0        0.914854   -0.440863    1.602296
     63          6           0        1.944854   -0.658912    1.323350
     64          7           0        2.094568   -1.356325    0.192531
     65          1           0        7.331427   -0.655320    1.738000
     66          6           0        6.270726   -0.749370    1.503468
     67          7           0        5.791992   -1.368939    0.452453
     68          6           0        4.417685   -1.227813    0.579278
     69          6           0        5.485107    0.548300    3.569123
     70          7           0        5.303613   -0.208809    2.315391
 ---------------------------------------------------------------------

 SCF Done:  E(RwB97XD) =  -2048.73295248     A.U. after   15 cycles

 The electronic state is 1-A.
 Alpha  occ. eigenvalues --  -19.25591 -19.22462 -19.20860 -14.52336 -14.51964
 Alpha  occ. eigenvalues --  -14.49146 -14.48498 -14.47807 -14.47287 -14.47100
 Alpha  occ. eigenvalues --  -14.46891 -14.45303 -14.44216 -14.44179 -14.42234
 Alpha  occ. eigenvalues --  -14.42009 -14.41246 -14.40844 -14.40823 -14.40250
 Alpha  occ. eigenvalues --  -10.45144 -10.41469 -10.40434 -10.39487 -10.38482
 Alpha  occ. eigenvalues --  -10.37848 -10.37047 -10.36753 -10.35621 -10.35275
 Alpha  occ. eigenvalues --  -10.35006 -10.34659 -10.33787 -10.33740 -10.33632
 Alpha  occ. eigenvalues --  -10.33158 -10.33020 -10.32540 -10.31288 -10.31068
 Alpha  occ. eigenvalues --  -10.30980 -10.28422 -10.28270  -1.19179  -1.15081
 Alpha  occ. eigenvalues --   -1.13564  -1.13448  -1.11035  -1.10902  -1.09183
 Alpha  occ. eigenvalues --   -1.08939  -1.08774  -1.04925  -1.04638  -1.02505
 Alpha  occ. eigenvalues --   -1.00822  -1.00247  -0.99972  -0.98796  -0.96930
 Alpha  occ. eigenvalues --   -0.96793  -0.96542  -0.92587  -0.90742  -0.87477
 Alpha  occ. eigenvalues --   -0.85757  -0.84443  -0.83752  -0.83426  -0.82840
 Alpha  occ. eigenvalues --   -0.82185  -0.78599  -0.76856  -0.74926  -0.74703
 Alpha  occ. eigenvalues --   -0.73869  -0.73277  -0.72701  -0.70882  -0.70197
 Alpha  occ. eigenvalues --   -0.67652  -0.66828  -0.66192  -0.66080  -0.64635
 Alpha  occ. eigenvalues --   -0.64120  -0.63755  -0.62829  -0.62521  -0.62035
 Alpha  occ. eigenvalues --   -0.60646  -0.60312  -0.60195  -0.59323  -0.59104
 Alpha  occ. eigenvalues --   -0.58906  -0.58597  -0.57149  -0.56416  -0.56188
 Alpha  occ. eigenvalues --   -0.55956  -0.55331  -0.55086  -0.54598  -0.54301
 Alpha  occ. eigenvalues --   -0.53862  -0.53789  -0.53498  -0.53221  -0.53168
 Alpha  occ. eigenvalues --   -0.52635  -0.52247  -0.51651  -0.50685  -0.50487
 Alpha  occ. eigenvalues --   -0.50173  -0.49857  -0.49752  -0.49383  -0.49102
 Alpha  occ. eigenvalues --   -0.48722  -0.48711  -0.47998  -0.47752  -0.47547
 Alpha  occ. eigenvalues --   -0.46805  -0.46116  -0.45051  -0.44685  -0.42741
 Alpha  occ. eigenvalues --   -0.40910  -0.40554  -0.39290  -0.38160  -0.37513
 Alpha  occ. eigenvalues --   -0.37440  -0.37285  -0.36879  -0.36130  -0.34508
 Alpha  occ. eigenvalues --   -0.34308  -0.33891  -0.33718  -0.33453  -0.33204
 Alpha  occ. eigenvalues --   -0.32954  -0.32467  -0.31914  -0.31871  -0.30753
 Alpha  occ. eigenvalues --   -0.30295  -0.29155  -0.26229  -0.25080
 Alpha virt. eigenvalues --    0.03399   0.04247   0.07393   0.07871   0.08384
 Alpha virt. eigenvalues --    0.09075   0.09485   0.10465   0.11174   0.11930
 Alpha virt. eigenvalues --    0.12983   0.13070   0.14229   0.14668   0.14836

 Mulliken charges:
               1
     1  N   -0.306969
     2  C    0.181193
     3  C    0.052291
     4  N   -0.241531
     5  C    0.136815
     6  H    0.023302
     7  N   -0.296468
     8  C    0.133210
     9  H    0.010160
    10  N   -0.288873
    11  C    0.236860
    12  C    0.087089
    13  N   -0.044166
    14  H    0.117436
    15  H    0.084942
    16  H    0.026337
    17  H    0.033294
    18  H    0.015289
    19  N   -0.309737
    20  C    0.260938
    21  C    0.182069
    22  N   -0.124686
    23  H    0.117983
    24  H    0.119316
    25  N   -0.312225
    26  C    0.250682
    27  N   -0.149041
    28  H    0.119963
    29  C    0.194292
    30  O   -0.323633
    31  C   -0.018849
    32  N   -0.214633
    33  C    0.118379
    34  H    0.020060
    35  H    0.024255
    36  H    0.031635
    37  H    0.024935
    38  H    0.051752
    39  H    0.059061
    40  H    0.074578
    41  H    0.017188
    42  C   -0.105704
    43  O   -0.282767
    44  C    0.161831
    45  H    0.128464
    46  N   -0.102232
    47  O   -0.351794
    48  C    0.339373
    49  H    0.043152
    50  C    0.170647
    51  C    0.045477
    52  N   -0.280242
    53  H    0.034492
    54  H    0.042764
    55  H    0.025058
    56  H    0.126408
    57  H    0.113815
    58  N   -0.040836
    59  C    0.076579
    60  C    0.234221
    61  N   -0.267135
    62  H    0.032311
    63  C    0.163838
    64  N   -0.300521
    65  H    0.036239
    66  C    0.127902
    67  N   -0.258430
    68  C    0.040781
    69  C    0.180570
    70  N   -0.308757
 Sum of Mulliken charges =  -0.00000

 Dipole moment (field-independent basis, Debye):
    X=              5.8046    Y=              5.4876    Z=              5.4621  Tot=              9.6768
 Quadrupole moment (field-independent basis, Debye-Ang):
   XX=           -147.9528   YY=           -228.8394   ZZ=           -252.5428
   XY=              7.5249   XZ=              2.7195   YZ=             10.6169

 Normal termination of Gaussian 16 at Sat Jan 20 00:14:34 2018.
