 Gaussian 16, Revision A.03,
 Gaussian 16:  EM64L-G16RevA.03 25-Dec-2016

 ---------------------------------------
 #p wb97xd/cc-pvdz sp scf=(maxcycles=20)
 ---------------------------------------

 ------------------
 Base pair stacking
 ------------------
 Symbolic Z-matrix:
 Charge =  0 Multiplicity = 1

                         Standard orientation:
 ---------------------------------------------------------------------
 Center     Atomic      Atomic             Coordinates (Angstroms)
 Number     Number       Type             X           Y           Z
 ---------------------------------------------------------------------
      1          7           0       -5.470860   -1.754680    0.810199
      2          6           0       -6.787698   -1.350412    1.339823
      3          6           0       -3.306257   -1.961126    0.479767
      4          7           0       -3.921611   -2.777474   -0.458132
      5          6           0       -5.201075   -2.620417   -0.221519
      6          1           0       -5.999289   -3.116504   -0.774413
      7          7           0       -1.681430   -0.823482    1.755965
      8          6           0       -2.700722   -0.284337    2.432680
      9          1           0       -2.418373    0.401605    3.230196
     10          7           0       -4.010283   -0.464457    2.272915
     11          6           0       -4.248348   -1.324222    1.268653
     12          6           0       -1.953948   -1.684682    0.751394
     13          7           0       -0.937822   -2.223899    0.074721
     14          1           0       -1.092835   -2.866331   -0.676596
     15          1           0        0.012502   -2.004228    0.295566
     16          1           0       -7.277636   -2.157278    1.670124
     17          1           0       -6.661157   -0.706616    2.093897
     18          1           0       -7.320370   -0.912401    0.615666
     19          7           0       -4.640803    1.877197   -0.673113
     20          6           0       -3.276386    2.003600   -0.570906
     21          6           0       -5.631024    2.738483    0.003907
     22          7           0       -0.495102    3.634575    0.719866
     23          1           0        0.499650    3.556280    0.660032
     24          1           0       -0.858735    4.366807    1.296342
     25          7           0       -2.616397    2.928410    0.159279
     26          6           0       -1.305817    2.795797    0.057220
     27          7           0       -0.686926    1.831931   -0.701357
     28          1           0        0.320991    1.805431   -0.720343
     29          6           0       -1.346047    0.870194   -1.460639
     30          8           0       -0.692708    0.044443   -2.110277
     31          6           0       -2.754627    0.999956   -1.361017
     32          7           0       -3.771031    0.258385   -1.947443
     33          6           0       -4.869243    0.813684   -1.511810
     34          1           0       -5.876303    0.485974   -1.772005
     35          1           0       -6.205395    2.181609    0.602900
     36          1           0       -5.153792    3.427430    0.547841
     37          1           0       -6.202989    3.191876   -0.678812
     38          1           0        5.336444    1.805398    0.115068
     39          1           0        5.382795    2.663763   -1.423016
     40          1           0        3.997939    2.856861   -0.347734
     41          1           0        4.765958   -1.855240   -2.954257
     42          6           0        4.181311   -1.044478   -2.519410
     43          8           0        2.087805   -1.990542   -3.110469
     44          6           0        2.752950   -1.094925   -2.590602
     45          1           0        1.100486   -0.020140   -2.040597
     46          7           0        2.110331   -0.020059   -2.010120
     47          8           0        2.039013    1.962922   -0.905632
     48          6           0        2.693558    1.057219   -1.391358
     49          1           0        5.861902    0.079009   -1.841788
     50          6           0        4.779087   -0.006818   -1.922313
     51          6           0        4.741903    2.164057   -0.711946
     52          7           0        4.074084    1.033586   -1.362949
     53          1           0        5.618677    1.164190    4.088317
     54          1           0        4.300514    1.886181    3.453265
     55          1           0        5.775293    2.174091    2.815917
     56          1           0        2.435420   -3.309531   -0.903509
     57          1           0        4.122160   -3.256121   -0.654177
     58          7           0        3.218423   -2.872772   -0.460452
     59          6           0        3.065333   -1.825640    0.352717
     60          6           0        3.816147   -0.103556    1.813000
     61          7           0        2.590498    0.390123    2.054887
     62          1           0        0.641694    0.031770    1.531128
     63          6           0        1.668348   -0.303615    1.390608
     64          7           0        1.819673   -1.352691    0.575675
     65          1           0        7.033858   -0.338675    2.020891
     66          6           0        5.977592   -0.472039    1.785371
     67          7           0        5.502677   -1.399411    0.990314
     68          6           0        4.133296   -1.177038    0.999021
     69          6           0        5.190969    1.483780    3.242785
     70          7           0        5.012567    0.347492    2.318112
 ---------------------------------------------------------------------

 SCF Done:  E(RwB97XD) =  -2048.74952038     A.U. after   15 cycles

 The electronic state is 1-A.
 Alpha  occ. eigenvalues --  -19.25619 -19.21901 -19.20703 -14.52323 -14.52133
 Alpha  occ. eigenvalues --  -14.48925 -14.48827 -14.47624 -14.47382 -14.46957
 Alpha  occ. eigenvalues --  -14.46733 -14.45273 -14.44059 -14.44008 -14.42292
 Alpha  occ. eigenvalues --  -14.42074 -14.41224 -14.41078 -14.41040 -14.40430
 Alpha  occ. eigenvalues --  -10.45192 -10.41308 -10.40064 -10.39475 -10.38335
 Alpha  occ. eigenvalues --  -10.37829 -10.37270 -10.36968 -10.35528 -10.35519
 Alpha  occ. eigenvalues --  -10.35139 -10.34479 -10.33984 -10.33886 -10.33538
 Alpha  occ. eigenvalues --  -10.33421 -10.33226 -10.32401 -10.31359 -10.31040
 Alpha  occ. eigenvalues --  -10.30758 -10.28532 -10.28234  -1.19203  -1.15052
 Alpha  occ. eigenvalues --   -1.13282  -1.13012  -1.11347  -1.10711  -1.09066
 Alpha  occ. eigenvalues --   -1.08932  -1.08639  -1.05149  -1.04424  -1.02332
 Alpha  occ. eigenvalues --   -1.00766  -1.00506  -0.99809  -0.98620  -0.96997
 Alpha  occ. eigenvalues --   -0.96706  -0.96496  -0.92812  -0.90725  -0.87424
 Alpha  occ. eigenvalues --   -0.85760  -0.84240  -0.84042  -0.83502  -0.82648
 Alpha  occ. eigenvalues --   -0.82451  -0.78576  -0.76749  -0.74746  -0.74557
 Alpha  occ. eigenvalues --   -0.73705  -0.73162  -0.72974  -0.71133  -0.70084
 Alpha  occ. eigenvalues --   -0.67477  -0.66505  -0.66383  -0.66263  -0.64426
 Alpha  occ. eigenvalues --   -0.63887  -0.63764  -0.62796  -0.62686  -0.61860
 Alpha  occ. eigenvalues --   -0.60930  -0.60449  -0.60155  -0.59249  -0.59171
 Alpha  occ. eigenvalues --   -0.58691  -0.58448  -0.57188  -0.56669  -0.56247
 Alpha  occ. eigenvalues --   -0.55861  -0.55547  -0.55086  -0.54551  -0.54214
 Alpha  occ. eigenvalues --   -0.53726  -0.53646  -0.53393  -0.53087  -0.53021
 Alpha  occ. eigenvalues --   -0.52582  -0.52292  -0.51944  -0.50905  -0.50385
 Alpha  occ. eigenvalues --   -0.50260  -0.49798  -0.49450  -0.49199  -0.48961
 Alpha  occ. eigenvalues --   -0.48882  -0.48465  -0.47940  -0.47673  -0.47398
 Alpha  occ. eigenvalues --   -0.47046  -0.46070  -0.44891  -0.44647  -0.43155
 Alpha  occ. eigenvalues --   -0.41146  -0.40482  -0.39249  -0.37783  -0.37341
 Alpha  occ. eigenvalues --   -0.37298  -0.37206  -0.37156  -0.36106  -0.34416
 Alpha  occ. eigenvalues --   -0.34276  -0.33929  -0.33520  -0.33427  -0.33205
 Alpha  occ. eigenvalues --   -0.32733  -0.32346  -0.31913  -0.31835  -0.30980
 Alpha  occ. eigenvalues --   -0.30541  -0.29390  -0.26113  -0.25273
 Alpha virt. eigenvalues --    0.03540   0.04189   0.07310   0.07723   0.08395
 Alpha virt. eigenvalues --    0.09195   0.09622   0.10554   0.10905   0.12075
 Alpha virt. eigenvalues --    0.13238   0.13258   0.14283   0.14352   0.14868

 Mulliken charges:
               1
     1  N   -0.306432
     2  C    0.178554
     3  C    0.061384
     4  N   -0.245217
     5  C    0.130827
     6  H    0.024714
     7  N   -0.293894
     8  C    0.135648
     9  H    0.010959
    10  N   -0.288456
    11  C    0.230476
    12  C    0.089632
    13  N   -0.044022
    14  H    0.114163
    15  H    0.085401
    16  H    0.027666
    17  H    0.034696
    18  H    0.017549
    19  N   -0.304610
    20  C    0.259644
    21  C    0.183191
    22  N   -0.123654
    23  H    0.118059
    24  H    0.118560
    25  N   -0.310347
    26  C    0.247100
    27  N   -0.145643
    28  H    0.118471
    29  C    0.190109
    30  O   -0.324669
    31  C   -0.020405
    32  N   -0.215254
    33  C    0.119959
    34  H    0.018398
    35  H    0.023492
    36  H    0.031216
    37  H    0.023338
    38  H    0.048458
    39  H    0.060663
    40  H    0.075676
    41  H    0.020334
    42  C   -0.104184
    43  O   -0.277732
    44  C    0.157418
    45  H    0.129919
    46  N   -0.104616
    47  O   -0.346690
    48  C    0.336291
    49  H    0.044701
    50  C    0.175595
    51  C    0.043606
    52  N   -0.277727
    53  H    0.034716
    54  H    0.042272
    55  H    0.021738
    56  H    0.127588
    57  H    0.116181
    58  N   -0.043107
    59  C    0.074929
    60  C    0.226247
    61  N   -0.266152
    62  H    0.029943
    63  C    0.159890
    64  N   -0.297561
    65  H    0.034872
    66  C    0.118639
    67  N   -0.253790
    68  C    0.044446
    69  C    0.181055
    70  N   -0.304222
 Sum of Mulliken charges =  -0.00000

 Dipole moment (field-independent basis, Debye):
    X=              5.8053    Y=              5.9548    Z=              4.6766  Tot=              9.5410
 Quadrupole moment (field-independent basis, Debye-Ang):
   XX=           -147.1098   YY=           -224.6548   ZZ=           -258.4683
   XY=              8.5010   XZ=              3.7546   YZ=              4.0255

 Normal termination of Gaussian 16 at Fri Jan 19 14:30:51 2018.
