 Gaussian 16, Revision A.03,
 Gaussian 16:  EM64L-G16RevA.03 25-Dec-2016

 ---------------------------------------
 #p wb97xd/cc-pvdz sp scf=(maxcycles=20)
 ---------------------------------------

 ------------------
 Base pair stacking
 ------------------
 Symbolic Z-matrix:
 Charge =  0 Multiplicity = 1

                         Standard orientation:
 ---------------------------------------------------------------------
 Center     Atomic      Atomic             Coordinates (Angstroms)
 Number     Number       Type             X           Y           Z
 ---------------------------------------------------------------------
      1          7           0       -6.913525   -1.064753    0.122461
      2          6           0       -8.229319   -0.551706    0.550809
      3          6           0       -4.758345   -1.480784   -0.016900
      4          7           0       -5.356325   -2.178777   -1.056109
      5          6           0       -6.630815   -1.900187   -0.930559
      6          1           0       -7.415943   -2.280550   -1.584644
      7          7           0       -3.162305   -0.587291    1.472155
      8          6           0       -4.184576    0.020862    2.082628
      9          1           0       -3.915428    0.631581    2.943345
     10          7           0       -5.483319   -0.011972    1.790876
     11          6           0       -5.705522   -0.789416    0.718204
     12          6           0       -3.418733   -1.362517    0.395879
     13          7           0       -2.399599   -1.970414   -0.214850
     14          1           0       -2.542910   -2.553694   -1.015148
     15          1           0       -1.458627   -1.863598    0.106546
     16          1           0       -8.827654   -1.318326    0.784167
     17          1           0       -8.114330    0.035787    1.351277
     18          1           0       -8.641309   -0.023593   -0.191724
     19          7           0       -3.029293    2.380316   -1.082932
     20          6           0       -1.674089    2.356790   -0.857288
     21          6           0       -3.956034    3.426660   -0.606450
     22          7           0        1.170275    3.792012    0.525294
     23          1           0        2.148149    3.590778    0.575306
     24          1           0        0.854739    4.625477    0.979709
     25          7           0       -0.967076    3.278176   -0.167907
     26          6           0        0.319515    2.981232   -0.121820
     27          7           0        0.873360    1.867656   -0.705528
     28          1           0        1.867329    1.720818   -0.619370
     29          6           0        0.165014    0.906299   -1.419615
     30          8           0        0.761118   -0.062146   -1.906969
     31          6           0       -1.218553    1.211662   -1.477726
     32          7           0       -2.266676    0.529979   -2.080761
     33          6           0       -3.318320    1.258528   -1.820974
     34          1           0       -4.332553    1.022725   -2.145006
     35          1           0       -4.647136    3.016699   -0.012212
     36          1           0       -3.443598    4.114746   -0.094384
     37          1           0       -4.403358    3.859322   -1.388440
     38          1           0        6.749210    1.231141    0.714850
     39          1           0        7.039260    1.888223   -0.894117
     40          1           0        5.602196    2.369772    0.008290
     41          1           0        5.983498   -2.677270   -1.984141
     42          6           0        5.472055   -1.757336   -1.700639
     43          8           0        3.334039   -2.514575   -2.395307
     44          6           0        4.060726   -1.647710   -1.910283
     45          1           0        2.518238   -0.328222   -1.649480
     46          7           0        3.513210   -0.443187   -1.517072
     47          8           0        3.600918    1.652049   -0.645582
     48          6           0        4.173665    0.624215   -0.962091
     49          1           0        7.217391   -0.766300   -0.981282
     50          6           0        6.143694   -0.733279   -1.161350
     51          6           0        6.280007    1.555823   -0.201935
     52          7           0        5.531963    0.442070   -0.791622
     53          1           0        4.033079    0.498840    4.591294
     54          1           0        2.862944    1.387134    3.881487
     55          1           0        4.414884    1.550378    3.403051
     56          1           0        0.928501   -3.353718   -0.939059
     57          1           0        2.579150   -3.491023   -0.530912
     58          7           0        1.703513   -3.025052   -0.399172
     59          6           0        1.576077   -2.010586    0.458595
     60          6           0        2.346941   -0.454052    2.084857
     61          7           0        1.158842    0.152906    2.241213
     62          1           0       -0.754590    0.028978    1.517313
     63          6           0        0.242282   -0.405008    1.452816
     64          7           0        0.367951   -1.421130    0.593010
     65          1           0        5.488648   -1.036976    2.576820
     66          6           0        4.452860   -1.046163    2.236236
     67          7           0        3.968699   -1.876513    1.345287
     68          6           0        2.634262   -1.511939    1.239953
     69          6           0        3.725188    0.904512    3.730696
     70          7           0        3.526553   -0.157903    2.725809
 ---------------------------------------------------------------------

 SCF Done:  E(RwB97XD) =  -2048.74627951     A.U. after   15 cycles

 The electronic state is 1-A.
 Alpha  occ. eigenvalues --  -19.26121 -19.22442 -19.20843 -14.52590 -14.50955
 Alpha  occ. eigenvalues --  -14.49429 -14.48748 -14.48065 -14.47144 -14.46911
 Alpha  occ. eigenvalues --  -14.45153 -14.43930 -14.42326 -14.42274 -14.42190
 Alpha  occ. eigenvalues --  -14.42110 -14.42095 -14.41441 -14.40902 -14.40584
 Alpha  occ. eigenvalues --  -10.45692 -10.41417 -10.40426 -10.38445 -10.37637
 Alpha  occ. eigenvalues --  -10.37600 -10.36539 -10.35790 -10.35750 -10.35386
 Alpha  occ. eigenvalues --  -10.34734 -10.34474 -10.33982 -10.33939 -10.33560
 Alpha  occ. eigenvalues --  -10.33297 -10.32913 -10.31547 -10.31006 -10.30745
 Alpha  occ. eigenvalues --  -10.30683 -10.29132 -10.28243  -1.19661  -1.13641
 Alpha  occ. eigenvalues --   -1.13493  -1.13396  -1.12010  -1.10679  -1.09501
 Alpha  occ. eigenvalues --   -1.08780  -1.07026  -1.05442  -1.02787  -1.02537
 Alpha  occ. eigenvalues --   -1.00816  -0.99967  -0.99285  -0.98692  -0.97522
 Alpha  occ. eigenvalues --   -0.96608  -0.94667  -0.93037  -0.91017  -0.85987
 Alpha  occ. eigenvalues --   -0.84551  -0.84459  -0.84168  -0.83966  -0.82883
 Alpha  occ. eigenvalues --   -0.82455  -0.78966  -0.75164  -0.74705  -0.73836
 Alpha  occ. eigenvalues --   -0.73557  -0.73380  -0.72893  -0.71558  -0.68479
 Alpha  occ. eigenvalues --   -0.67539  -0.66765  -0.66704  -0.64841  -0.64577
 Alpha  occ. eigenvalues --   -0.63871  -0.63164  -0.62805  -0.62282  -0.61882
 Alpha  occ. eigenvalues --   -0.60582  -0.60108  -0.59629  -0.58713  -0.58572
 Alpha  occ. eigenvalues --   -0.58259  -0.57820  -0.57065  -0.56856  -0.56538
 Alpha  occ. eigenvalues --   -0.56180  -0.55655  -0.54553  -0.54427  -0.53832
 Alpha  occ. eigenvalues --   -0.53780  -0.53557  -0.53022  -0.52760  -0.52434
 Alpha  occ. eigenvalues --   -0.52155  -0.51977  -0.51372  -0.51127  -0.50658
 Alpha  occ. eigenvalues --   -0.50345  -0.49675  -0.49515  -0.49108  -0.48777
 Alpha  occ. eigenvalues --   -0.48424  -0.48173  -0.47829  -0.47794  -0.47435
 Alpha  occ. eigenvalues --   -0.47426  -0.45550  -0.45164  -0.44015  -0.42802
 Alpha  occ. eigenvalues --   -0.41699  -0.39687  -0.39062  -0.37700  -0.37440
 Alpha  occ. eigenvalues --   -0.37309  -0.36944  -0.35853  -0.35343  -0.34545
 Alpha  occ. eigenvalues --   -0.34159  -0.34010  -0.33570  -0.32994  -0.32716
 Alpha  occ. eigenvalues --   -0.32415  -0.32335  -0.32017  -0.31812  -0.31512
 Alpha  occ. eigenvalues --   -0.30780  -0.27570  -0.26222  -0.25554
 Alpha virt. eigenvalues --    0.03025   0.05628   0.07448   0.08094   0.08836
 Alpha virt. eigenvalues --    0.09337   0.09581   0.10496   0.10773   0.12442
 Alpha virt. eigenvalues --    0.13150   0.13544   0.14399   0.14773   0.15774

 Mulliken charges:
               1
     1  N   -0.309937
     2  C    0.180648
     3  C    0.033078
     4  N   -0.254141
     5  C    0.128019
     6  H    0.027849
     7  N   -0.284347
     8  C    0.131424
     9  H    0.015959
    10  N   -0.291437
    11  C    0.232309
    12  C    0.101277
    13  N   -0.036122
    14  H    0.108780
    15  H    0.089638
    16  H    0.027693
    17  H    0.035632
    18  H    0.024101
    19  N   -0.307255
    20  C    0.255936
    21  C    0.180142
    22  N   -0.122859
    23  H    0.112993
    24  H    0.118686
    25  N   -0.308503
    26  C    0.247912
    27  N   -0.137352
    28  H    0.117437
    29  C    0.175230
    30  O   -0.326015
    31  C   -0.009105
    32  N   -0.228616
    33  C    0.126261
    34  H    0.029936
    35  H    0.032915
    36  H    0.027991
    37  H    0.022627
    38  H    0.051743
    39  H    0.063176
    40  H    0.074306
    41  H    0.027947
    42  C   -0.072058
    43  O   -0.288079
    44  C    0.174634
    45  H    0.137579
    46  N   -0.127811
    47  O   -0.350866
    48  C    0.350418
    49  H    0.045005
    50  C    0.169029
    51  C    0.040514
    52  N   -0.288204
    53  H    0.030785
    54  H    0.040334
    55  H    0.018373
    56  H    0.117258
    57  H    0.116721
    58  N   -0.020484
    59  C    0.096795
    60  C    0.242235
    61  N   -0.277488
    62  H    0.032843
    63  C    0.159536
    64  N   -0.303324
    65  H    0.024284
    66  C    0.120045
    67  N   -0.253630
    68  C    0.006646
    69  C    0.181327
    70  N   -0.308374
 Sum of Mulliken charges =  -0.00000

 Dipole moment (field-independent basis, Debye):
    X=              5.9846    Y=              5.7356    Z=              3.7252  Tot=              9.0879
 Quadrupole moment (field-independent basis, Debye-Ang):
   XX=           -140.1435   YY=           -226.8945   ZZ=           -252.1305
   XY=              7.7233   XZ=             20.6079   YZ=              3.4565

 Normal termination of Gaussian 16 at Sat Jan 20 01:40:40 2018.
