 Gaussian 16, Revision A.03,
 Gaussian 16:  EM64L-G16RevA.03 25-Dec-2016

 ---------------------------------------
 #p wb97xd/cc-pvdz sp scf=(maxcycles=20)
 ---------------------------------------

 ------------------
 Base pair stacking
 ------------------
 Symbolic Z-matrix:
 Charge =  0 Multiplicity = 1

                         Standard orientation:
 ---------------------------------------------------------------------
 Center     Atomic      Atomic             Coordinates (Angstroms)
 Number     Number       Type             X           Y           Z
 ---------------------------------------------------------------------
      1          7           0        6.316456   -1.070073   -0.642530
      2          6           0        7.621733   -0.387877   -0.736775
      3          6           0        4.165342   -1.521959   -0.718633
      4          7           0        4.787428   -2.672378   -0.255732
      5          6           0        6.058498   -2.354085   -0.228415
      6          1           0        6.858665   -3.023741    0.088210
      7          7           0        2.535034    0.028004   -1.427604
      8          6           0        3.542631    0.886687   -1.614625
      9          1           0        3.253430    1.869616   -1.984045
     10          7           0        4.847717    0.714284   -1.414769
     11          6           0        5.094955   -0.525774   -0.961382
     12          6           0        2.816565   -1.211748   -0.970623
     13          7           0        1.812104   -2.070324   -0.783292
     14          1           0        1.974096   -2.998485   -0.446413
     15          1           0        0.863955   -1.815188   -0.973182
     16          1           0        8.215164   -0.886589   -1.368672
     17          1           0        7.488048    0.544267   -1.071973
     18          1           0        8.050178   -0.357324    0.166275
     19          7           0        3.745723    1.622554    1.353726
     20          6           0        2.389487    1.713355    1.152666
     21          6           0        4.738991    2.636230    0.945572
     22          7           0       -0.362196    3.454082   -0.055590
     23          1           0       -1.352586    3.327199   -0.103076
     24          1           0        0.006484    4.297505   -0.447298
     25          7           0        1.741591    2.735615    0.553291
     26          6           0        0.436469    2.535065    0.507856
     27          7           0       -0.188332    1.419454    1.010373
     28          1           0       -1.191348    1.350741    0.931541
     29          6           0        0.458340    0.355338    1.631123
     30          8           0       -0.199438   -0.605139    2.050121
     31          6           0        1.860936    0.556410    1.687388
     32          7           0        2.865153   -0.244596    2.213562
     33          6           0        3.962973    0.426612    1.993388
     34          1           0        4.961787    0.094064    2.278073
     35          1           0        5.390918    2.228384    0.307245
     36          1           0        4.270698    3.398325    0.500407
     37          1           0        5.226558    2.970868    1.751240
     38          1           0       -6.112964    1.317833   -0.344909
     39          1           0       -6.333748    1.860122    1.316961
     40          1           0       -4.877772    2.311039    0.429176
     41          1           0       -5.594990   -2.842318    2.015476
     42          6           0       -5.022461   -1.940729    1.797339
     43          8           0       -2.935498   -2.901349    2.388060
     44          6           0       -3.604254   -1.948584    1.988312
     45          1           0       -1.974379   -0.724485    1.805423
     46          7           0       -2.976705   -0.757665    1.683083
     47          8           0       -2.924895    1.402708    0.985024
     48          6           0       -3.565891    0.395489    1.228520
     49          1           0       -6.701271   -0.773411    1.193400
     50          6           0       -5.625698   -0.831159    1.355130
     51          6           0       -5.609565    1.532570    0.585975
     52          7           0       -4.935908    0.324307    1.069738
     53          1           0       -4.730529    2.571000   -3.278832
     54          1           0       -3.545169    2.929030   -2.216365
     55          1           0       -5.085907    2.777432   -1.699423
     56          1           0       -1.497535   -3.666856   -0.890891
     57          1           0       -3.156974   -3.575633   -1.275641
     58          7           0       -2.284925   -3.103604   -1.141678
     59          6           0       -2.177888   -1.781718   -1.291089
     60          6           0       -2.986869    0.406314   -1.759928
     61          7           0       -1.803110    1.013309   -1.573652
     62          1           0        0.126445    0.532794   -1.077146
     63          6           0       -0.868362    0.123158   -1.246873
     64          7           0       -0.973589   -1.201211   -1.096731
     65          1           0       -6.138553    0.154242   -2.434850
     66          6           0       -5.095244   -0.029232   -2.176407
     67          7           0       -4.590230   -1.208520   -1.908214
     68          6           0       -3.254018   -0.946593   -1.642412
     69          6           0       -4.403377    2.432733   -2.344040
     70          7           0       -4.181041    0.993447   -2.105232
 ---------------------------------------------------------------------

 SCF Done:  E(RwB97XD) =  -2048.74253191     A.U. after   15 cycles

 The electronic state is 1-A.
 Alpha  occ. eigenvalues --  -19.25639 -19.21795 -19.20468 -14.52387 -14.52100
 Alpha  occ. eigenvalues --  -14.49704 -14.48288 -14.47658 -14.47402 -14.46536
 Alpha  occ. eigenvalues --  -14.46193 -14.45052 -14.43669 -14.43624 -14.43049
 Alpha  occ. eigenvalues --  -14.42227 -14.41811 -14.41732 -14.40984 -14.40498
 Alpha  occ. eigenvalues --  -10.45313 -10.40862 -10.39901 -10.39321 -10.37960
 Alpha  occ. eigenvalues --  -10.37596 -10.37538 -10.36707 -10.36260 -10.35679
 Alpha  occ. eigenvalues --  -10.35203 -10.34891 -10.34212 -10.33961 -10.33920
 Alpha  occ. eigenvalues --  -10.33831 -10.33027 -10.32072 -10.31923 -10.30775
 Alpha  occ. eigenvalues --  -10.29654 -10.29367 -10.27709  -1.19360  -1.14802
 Alpha  occ. eigenvalues --   -1.12989  -1.12816  -1.12244  -1.10261  -1.09249
 Alpha  occ. eigenvalues --   -1.08617  -1.08275  -1.05859  -1.04172  -1.02360
 Alpha  occ. eigenvalues --   -1.01327  -1.00581  -0.99363  -0.98267  -0.97828
 Alpha  occ. eigenvalues --   -0.96221  -0.96115  -0.93530  -0.90851  -0.87310
 Alpha  occ. eigenvalues --   -0.85723  -0.84831  -0.83900  -0.83629  -0.83188
 Alpha  occ. eigenvalues --   -0.81777  -0.78713  -0.76593  -0.74448  -0.74218
 Alpha  occ. eigenvalues --   -0.73734  -0.73369  -0.73188  -0.71906  -0.69978
 Alpha  occ. eigenvalues --   -0.67172  -0.67031  -0.66392  -0.66296  -0.64383
 Alpha  occ. eigenvalues --   -0.63875  -0.63516  -0.63402  -0.62475  -0.61506
 Alpha  occ. eigenvalues --   -0.61398  -0.61036  -0.60205  -0.59368  -0.59185
 Alpha  occ. eigenvalues --   -0.58027  -0.57918  -0.57609  -0.57371  -0.56417
 Alpha  occ. eigenvalues --   -0.56128  -0.55808  -0.55046  -0.54968  -0.54251
 Alpha  occ. eigenvalues --   -0.54027  -0.53241  -0.53165  -0.52826  -0.52552
 Alpha  occ. eigenvalues --   -0.52413  -0.52274  -0.52221  -0.51406  -0.50989
 Alpha  occ. eigenvalues --   -0.49944  -0.49750  -0.49292  -0.49137  -0.48858
 Alpha  occ. eigenvalues --   -0.48422  -0.48321  -0.47969  -0.47760  -0.47250
 Alpha  occ. eigenvalues --   -0.47142  -0.45588  -0.45353  -0.44345  -0.43313
 Alpha  occ. eigenvalues --   -0.41943  -0.40359  -0.39320  -0.38049  -0.37346
 Alpha  occ. eigenvalues --   -0.37247  -0.37028  -0.36959  -0.35728  -0.34540
 Alpha  occ. eigenvalues --   -0.34328  -0.34057  -0.33803  -0.33488  -0.32990
 Alpha  occ. eigenvalues --   -0.32452  -0.31982  -0.31737  -0.31602  -0.31593
 Alpha  occ. eigenvalues --   -0.31238  -0.29222  -0.26614  -0.24996
 Alpha virt. eigenvalues --    0.03152   0.04596   0.07036   0.07642   0.08281
 Alpha virt. eigenvalues --    0.08904   0.10037   0.10255   0.11040   0.11989
 Alpha virt. eigenvalues --    0.13146   0.13364   0.14358   0.14433   0.14803

 Mulliken charges:
               1
     1  N   -0.310298
     2  C    0.177602
     3  C    0.063247
     4  N   -0.252826
     5  C    0.128839
     6  H    0.028808
     7  N   -0.276929
     8  C    0.134752
     9  H    0.015911
    10  N   -0.290451
    11  C    0.228395
    12  C    0.095938
    13  N   -0.043656
    14  H    0.109654
    15  H    0.089652
    16  H    0.029425
    17  H    0.037152
    18  H    0.024660
    19  N   -0.287631
    20  C    0.232990
    21  C    0.183863
    22  N   -0.103572
    23  H    0.113538
    24  H    0.113970
    25  N   -0.295278
    26  C    0.211576
    27  N   -0.142281
    28  H    0.131950
    29  C    0.158372
    30  O   -0.324074
    31  C    0.005505
    32  N   -0.221000
    33  C    0.121491
    34  H    0.019760
    35  H    0.018085
    36  H    0.025276
    37  H    0.017554
    38  H    0.033594
    39  H    0.063312
    40  H    0.077126
    41  H    0.028236
    42  C   -0.101527
    43  O   -0.268088
    44  C    0.172715
    45  H    0.133339
    46  N   -0.124866
    47  O   -0.337622
    48  C    0.335492
    49  H    0.043787
    50  C    0.176456
    51  C    0.043172
    52  N   -0.276899
    53  H    0.034594
    54  H    0.036627
    55  H    0.009833
    56  H    0.122492
    57  H    0.119925
    58  N   -0.057330
    59  C    0.118095
    60  C    0.224057
    61  N   -0.274460
    62  H    0.039084
    63  C    0.154816
    64  N   -0.304943
    65  H    0.038471
    66  C    0.106101
    67  N   -0.242830
    68  C    0.018340
    69  C    0.182822
    70  N   -0.293890
 Sum of Mulliken charges =  -0.00000

 Dipole moment (field-independent basis, Debye):
    X=             -5.3145    Y=              5.8299    Z=             -4.4874  Tot=              9.0757
 Quadrupole moment (field-independent basis, Debye-Ang):
   XX=           -144.1439   YY=           -226.4573   ZZ=           -260.3675
   XY=            -13.5275   XZ=             10.0625   YZ=              7.4353

 Normal termination of Gaussian 16 at Fri Jan 19 14:43:34 2018.
