 Gaussian 16, Revision A.03,
 Gaussian 16:  EM64L-G16RevA.03 25-Dec-2016

 ---------------------------------------
 #p wb97xd/cc-pvdz sp scf=(maxcycles=20)
 ---------------------------------------

 ------------------
 Base pair stacking
 ------------------
 Symbolic Z-matrix:
 Charge =  0 Multiplicity = 1

                         Standard orientation:
 ---------------------------------------------------------------------
 Center     Atomic      Atomic             Coordinates (Angstroms)
 Number     Number       Type             X           Y           Z
 ---------------------------------------------------------------------
      1          7           0        6.048238   -1.211912   -0.788146
      2          6           0        7.362238   -0.571661   -0.991815
      3          6           0        3.887859   -1.622893   -0.753567
      4          7           0        4.502858   -2.731413   -0.189930
      5          6           0        5.779794   -2.439447   -0.233326
      6          1           0        6.576997   -3.089195    0.128925
      7          7           0        2.264975   -0.121271   -1.574735
      8          6           0        3.281849    0.691112   -1.880653
      9          1           0        2.999364    1.635779   -2.343330
     10          7           0        4.589144    0.512612   -1.701665
     11          6           0        4.827593   -0.677966   -1.127135
     12          6           0        2.537810   -1.311914   -0.997658
     13          7           0        1.524090   -2.124222   -0.691550
     14          1           0        1.679438   -3.015124   -0.263313
     15          1           0        0.575328   -1.870103   -0.879739
     16          1           0        7.926453   -1.146671   -1.584438
     17          1           0        7.235307    0.322761   -1.419624
     18          1           0        7.819088   -0.455609   -0.109875
     19          7           0        4.038302    1.668663    1.243044
     20          6           0        2.678142    1.770005    1.076495
     21          6           0        5.030514    2.663317    0.788184
     22          7           0       -0.087172    3.515843   -0.092625
     23          1           0       -1.079734    3.398682   -0.111081
     24          1           0        0.279409    4.347321   -0.510940
     25          7           0        2.024798    2.787061    0.474188
     26          6           0        0.716953    2.599670    0.467673
     27          7           0        0.094561    1.501021    1.009049
     28          1           0       -0.910856    1.441532    0.958435
     29          6           0        0.746825    0.442555    1.633605
     30          8           0        0.090811   -0.502304    2.089268
     31          6           0        2.152404    0.629641    1.648324
     32          7           0        3.162199   -0.171494    2.163500
     33          6           0        4.260491    0.483388    1.900623
     34          1           0        5.263159    0.145848    2.165157
     35          1           0        5.660828    2.235913    0.141013
     36          1           0        4.558198    3.421417    0.340441
     37          1           0        5.542973    3.008629    1.573649
     38          1           0       -5.865130    1.436119   -0.185183
     39          1           0       -6.035562    2.013617    1.470740
     40          1           0       -4.599490    2.431180    0.535488
     41          1           0       -5.326254   -2.681682    2.243781
     42          6           0       -4.750631   -1.790796    1.992339
     43          8           0       -2.658442   -2.761851    2.546317
     44          6           0       -3.327960   -1.810081    2.145480
     45          1           0       -1.691205   -0.607425    1.894518
     46          7           0       -2.696749   -0.632264    1.799682
     47          8           0       -2.641709    1.513150    1.057142
     48          6           0       -3.286170    0.517904    1.337902
     49          1           0       -6.433108   -0.617750    1.410075
     50          6           0       -5.354215   -0.683813    1.544151
     51          6           0       -5.334702    1.663872    0.727417
     52          7           0       -4.660616    0.458293    1.217236
     53          1           0       -5.006847    2.368922   -3.472614
     54          1           0       -3.782598    2.811008   -2.488808
     55          1           0       -5.309004    2.747783   -1.914223
     56          1           0       -1.816029   -3.651612   -0.533671
     57          1           0       -3.484693   -3.565610   -0.877561
     58          7           0       -2.600386   -3.101005   -0.819613
     59          6           0       -2.473816   -1.804747   -1.110935
     60          6           0       -3.256725    0.338805   -1.784709
     61          7           0       -2.056809    0.936390   -1.698081
     62          1           0       -0.121856    0.469285   -1.209804
     63          6           0       -1.128820    0.065589   -1.306331
     64          7           0       -1.253597   -1.233098   -1.014068
     65          1           0       -6.431993    0.085096   -2.337406
     66          6           0       -5.384685   -0.092617   -2.091420
     67          7           0       -4.893284   -1.247782   -1.714882
     68          6           0       -3.544861   -0.988199   -1.517159
     69          6           0       -4.653320    2.322639   -2.538335
     70          7           0       -4.450103    0.911972   -2.155307
 ---------------------------------------------------------------------

 SCF Done:  E(RwB97XD) =  -2048.75172213     A.U. after   15 cycles

 The electronic state is 1-A.
 Alpha  occ. eigenvalues --  -19.25543 -19.21715 -19.20528 -14.52269 -14.52260
 Alpha  occ. eigenvalues --  -14.49454 -14.48443 -14.47548 -14.47452 -14.46739
 Alpha  occ. eigenvalues --  -14.46411 -14.45264 -14.43889 -14.43785 -14.42840
 Alpha  occ. eigenvalues --  -14.41939 -14.41815 -14.41574 -14.40761 -14.40616
 Alpha  occ. eigenvalues --  -10.45191 -10.41036 -10.39841 -10.39441 -10.38089
 Alpha  occ. eigenvalues --  -10.37788 -10.37451 -10.36900 -10.36015 -10.35410
 Alpha  occ. eigenvalues --  -10.35346 -10.34632 -10.34053 -10.34038 -10.33959
 Alpha  occ. eigenvalues --  -10.33599 -10.33107 -10.32304 -10.31790 -10.30659
 Alpha  occ. eigenvalues --  -10.30213 -10.29082 -10.27844  -1.19221  -1.15005
 Alpha  occ. eigenvalues --   -1.13049  -1.12746  -1.11974  -1.10348  -1.09131
 Alpha  occ. eigenvalues --   -1.08748  -1.08385  -1.05611  -1.04291  -1.02259
 Alpha  occ. eigenvalues --   -1.01054  -1.00748  -0.99514  -0.98349  -0.97583
 Alpha  occ. eigenvalues --   -0.96354  -0.96270  -0.93273  -0.90731  -0.87432
 Alpha  occ. eigenvalues --   -0.85825  -0.84586  -0.83814  -0.83680  -0.82979
 Alpha  occ. eigenvalues --   -0.82058  -0.78593  -0.76717  -0.74561  -0.74325
 Alpha  occ. eigenvalues --   -0.73510  -0.73420  -0.73118  -0.71638  -0.70079
 Alpha  occ. eigenvalues --   -0.67162  -0.66914  -0.66398  -0.66294  -0.64271
 Alpha  occ. eigenvalues --   -0.63918  -0.63533  -0.63302  -0.62483  -0.61554
 Alpha  occ. eigenvalues --   -0.61503  -0.60854  -0.60220  -0.59275  -0.59220
 Alpha  occ. eigenvalues --   -0.58165  -0.58067  -0.57465  -0.57155  -0.56248
 Alpha  occ. eigenvalues --   -0.55972  -0.55724  -0.55143  -0.54763  -0.54129
 Alpha  occ. eigenvalues --   -0.53827  -0.53351  -0.53153  -0.52749  -0.52656
 Alpha  occ. eigenvalues --   -0.52511  -0.52403  -0.52390  -0.51327  -0.50813
 Alpha  occ. eigenvalues --   -0.49870  -0.49842  -0.49252  -0.49247  -0.48886
 Alpha  occ. eigenvalues --   -0.48509  -0.48371  -0.48086  -0.47540  -0.47227
 Alpha  occ. eigenvalues --   -0.47167  -0.45652  -0.45397  -0.44430  -0.43237
 Alpha  occ. eigenvalues --   -0.41739  -0.40422  -0.39220  -0.37758  -0.37453
 Alpha  occ. eigenvalues --   -0.37236  -0.37137  -0.37033  -0.35930  -0.34487
 Alpha  occ. eigenvalues --   -0.34156  -0.34040  -0.33846  -0.33637  -0.32957
 Alpha  occ. eigenvalues --   -0.32484  -0.32180  -0.31699  -0.31675  -0.31352
 Alpha  occ. eigenvalues --   -0.31037  -0.29349  -0.26294  -0.25218
 Alpha virt. eigenvalues --    0.03369   0.04353   0.07246   0.07392   0.08358
 Alpha virt. eigenvalues --    0.08867   0.09958   0.10547   0.10889   0.12115
 Alpha virt. eigenvalues --    0.13246   0.13599   0.13992   0.14424   0.14838

 Mulliken charges:
               1
     1  N   -0.308825
     2  C    0.176626
     3  C    0.066317
     4  N   -0.250755
     5  C    0.127733
     6  H    0.027771
     7  N   -0.283945
     8  C    0.135753
     9  H    0.013683
    10  N   -0.287858
    11  C    0.224665
    12  C    0.093599
    13  N   -0.044595
    14  H    0.110857
    15  H    0.089093
    16  H    0.029269
    17  H    0.037759
    18  H    0.022493
    19  N   -0.290466
    20  C    0.240077
    21  C    0.185614
    22  N   -0.112242
    23  H    0.114875
    24  H    0.116151
    25  N   -0.300705
    26  C    0.223822
    27  N   -0.143036
    28  H    0.126280
    29  C    0.173972
    30  O   -0.324338
    31  C   -0.009944
    32  N   -0.218045
    33  C    0.123587
    34  H    0.017835
    35  H    0.017335
    36  H    0.027774
    37  H    0.019501
    38  H    0.037025
    39  H    0.062016
    40  H    0.075354
    41  H    0.025933
    42  C   -0.103437
    43  O   -0.269946
    44  C    0.164939
    45  H    0.133502
    46  N   -0.120705
    47  O   -0.337748
    48  C    0.335198
    49  H    0.042903
    50  C    0.177396
    51  C    0.045105
    52  N   -0.276456
    53  H    0.036066
    54  H    0.039833
    55  H    0.014216
    56  H    0.124224
    57  H    0.119175
    58  N   -0.052349
    59  C    0.106899
    60  C    0.221899
    61  N   -0.262578
    62  H    0.041026
    63  C    0.144242
    64  N   -0.301330
    65  H    0.036594
    66  C    0.107882
    67  N   -0.245020
    68  C    0.027227
    69  C    0.181062
    70  N   -0.297833
 Sum of Mulliken charges =  -0.00000

 Dipole moment (field-independent basis, Debye):
    X=             -5.5445    Y=              5.9978    Z=             -4.3792  Tot=              9.2678
 Quadrupole moment (field-independent basis, Debye-Ang):
   XX=           -145.5232   YY=           -225.1609   ZZ=           -260.6315
   XY=            -11.7300   XZ=              7.9481   YZ=              5.6788

 Normal termination of Gaussian 16 at Sat Jan 20 03:16:49 2018.
