 Gaussian 16, Revision A.03,
 Gaussian 16:  EM64L-G16RevA.03 25-Dec-2016

 ---------------------------------------
 #p wb97xd/cc-pvdz sp scf=(maxcycles=20)
 ---------------------------------------

 ------------------
 Base pair stacking
 ------------------
 Symbolic Z-matrix:
 Charge =  0 Multiplicity = 1

                         Standard orientation:
 ---------------------------------------------------------------------
 Center     Atomic      Atomic             Coordinates (Angstroms)
 Number     Number       Type             X           Y           Z
 ---------------------------------------------------------------------
      1          7           0       -6.907169   -1.036049    0.189056
      2          6           0       -8.219107   -0.462918    0.547304
      3          6           0       -4.755152   -1.482392    0.105971
      4          7           0       -5.358268   -2.302504   -0.836575
      5          6           0       -6.630648   -2.000771   -0.748795
      6          1           0       -7.418562   -2.455437   -1.349956
      7          7           0       -3.152573   -0.418526    1.470836
      8          6           0       -4.170305    0.269935    1.997924
      9          1           0       -3.896648    0.983209    2.774206
     10          7           0       -5.469229    0.209862    1.711406
     11          6           0       -5.697179   -0.696096    0.746152
     12          6           0       -3.414722   -1.322482    0.501702
     13          7           0       -2.400121   -2.010696   -0.025675
     14          1           0       -2.547734   -2.689995   -0.745388
     15          1           0       -1.458397   -1.870830    0.280478
     16          1           0       -8.823182   -1.189157    0.875715
     17          1           0       -8.099791    0.220800    1.266629
     18          1           0       -8.627098   -0.030550   -0.256811
     19          7           0       -3.045657    2.236857   -1.226431
     20          6           0       -1.691632    2.233814   -0.992615
     21          6           0       -3.983066    3.295584   -0.800943
     22          7           0        1.133691    3.750061    0.341650
     23          1           0        2.112772    3.558886    0.405676
     24          1           0        0.809210    4.599978    0.757666
     25          7           0       -0.995650    3.189809   -0.340147
     26          6           0        0.292885    2.905266   -0.274193
     27          7           0        0.858550    1.771770   -0.805908
     28          1           0        1.853100    1.636636   -0.708042
     29          6           0        0.161680    0.774753   -1.481330
     30          8           0        0.767949   -0.209227   -1.922868
     31          6           0       -1.223819    1.066415   -1.560190
     32          7           0       -2.263221    0.350963   -2.138675
     33          6           0       -3.321861    1.081820   -1.916536
     34          1           0       -4.332389    0.824189   -2.235510
     35          1           0       -4.674449    2.906415   -0.193203
     36          1           0       -3.478852    4.009283   -0.316520
     37          1           0       -4.429169    3.690336   -1.603428
     38          1           0        6.730798    1.243788    0.672698
     39          1           0        7.025103    1.832596   -0.961728
     40          1           0        5.579233    2.341584   -0.088941
     41          1           0        6.010452   -2.784114   -1.857868
     42          6           0        5.490395   -1.856775   -1.617421
     43          8           0        3.362245   -2.660265   -2.290091
     44          6           0        4.079496   -1.767456   -1.839298
     45          1           0        2.525521   -0.450056   -1.644504
     46          7           0        3.520561   -0.551331   -1.501826
     47          8           0        3.587282    1.580424   -0.721829
     48          6           0        4.169656    0.544338   -0.990224
     49          1           0        7.223948   -0.821720   -0.932393
     50          6           0        6.151080   -0.805004   -1.119547
     51          6           0        6.264425    1.524627   -0.259870
     52          7           0        5.528303    0.380458   -0.804614
     53          1           0        4.050530    1.002354    4.433726
     54          1           0        2.887130    1.801741    3.615462
     55          1           0        4.440279    1.891266    3.121721
     56          1           0        0.917579   -3.499539   -0.564580
     57          1           0        2.567132   -3.596016   -0.140603
     58          7           0        1.695002   -3.110603   -0.070122
     59          6           0        1.575099   -1.994304    0.651453
     60          6           0        2.357478   -0.249237    2.067206
     61          7           0        1.173942    0.381471    2.143849
     62          1           0       -0.740312    0.180619    1.439656
     63          6           0        0.253294   -0.265420    1.431922
     64          7           0        0.371413   -1.383604    0.708543
     65          1           0        5.494706   -0.788083    2.632536
     66          6           0        4.458899   -0.832862    2.294845
     67          7           0        3.968602   -1.766219    1.516302
     68          6           0        2.636934   -1.408130    1.364081
     69          6           0        3.745747    1.297477    3.528191
     70          7           0        3.539228    0.117318    2.666455
 ---------------------------------------------------------------------

 SCF Done:  E(RwB97XD) =  -2048.74987266     A.U. after   15 cycles

 The electronic state is 1-A.
 Alpha  occ. eigenvalues --  -19.26084 -19.22284 -19.20754 -14.52556 -14.51088
 Alpha  occ. eigenvalues --  -14.49516 -14.48671 -14.47973 -14.47029 -14.46824
 Alpha  occ. eigenvalues --  -14.45565 -14.44042 -14.42515 -14.42432 -14.42343
 Alpha  occ. eigenvalues --  -14.42174 -14.42112 -14.41584 -14.40834 -14.40708
 Alpha  occ. eigenvalues --  -10.45644 -10.41325 -10.40296 -10.38357 -10.37859
 Alpha  occ. eigenvalues --  -10.37624 -10.36668 -10.35924 -10.35766 -10.35553
 Alpha  occ. eigenvalues --  -10.34815 -10.34400 -10.34122 -10.34085 -10.33681
 Alpha  occ. eigenvalues --  -10.33241 -10.33051 -10.31617 -10.30974 -10.30919
 Alpha  occ. eigenvalues --  -10.30565 -10.29237 -10.28171  -1.19617  -1.13736
 Alpha  occ. eigenvalues --   -1.13325  -1.13302  -1.12101  -1.10599  -1.09452
 Alpha  occ. eigenvalues --   -1.08688  -1.07252  -1.05565  -1.02777  -1.02668
 Alpha  occ. eigenvalues --   -1.00946  -0.99878  -0.99444  -0.98609  -0.97617
 Alpha  occ. eigenvalues --   -0.96526  -0.94891  -0.93168  -0.90991  -0.86143
 Alpha  occ. eigenvalues --   -0.84662  -0.84591  -0.84095  -0.83947  -0.82973
 Alpha  occ. eigenvalues --   -0.82361  -0.78918  -0.75345  -0.74630  -0.73755
 Alpha  occ. eigenvalues --   -0.73493  -0.73471  -0.73076  -0.71672  -0.68674
 Alpha  occ. eigenvalues --   -0.67458  -0.66876  -0.66643  -0.65001  -0.64530
 Alpha  occ. eigenvalues --   -0.63795  -0.63283  -0.62730  -0.62482  -0.61805
 Alpha  occ. eigenvalues --   -0.60693  -0.60161  -0.59576  -0.58890  -0.58493
 Alpha  occ. eigenvalues --   -0.58321  -0.57972  -0.57144  -0.56973  -0.56473
 Alpha  occ. eigenvalues --   -0.56124  -0.55784  -0.54490  -0.54447  -0.53981
 Alpha  occ. eigenvalues --   -0.53692  -0.53530  -0.52946  -0.52744  -0.52534
 Alpha  occ. eigenvalues --   -0.52234  -0.52067  -0.51455  -0.51300  -0.50761
 Alpha  occ. eigenvalues --   -0.50234  -0.49625  -0.49591  -0.48984  -0.48721
 Alpha  occ. eigenvalues --   -0.48402  -0.48272  -0.47804  -0.47731  -0.47542
 Alpha  occ. eigenvalues --   -0.47439  -0.45622  -0.45173  -0.43995  -0.43019
 Alpha  occ. eigenvalues --   -0.41804  -0.39638  -0.39212  -0.37810  -0.37360
 Alpha  occ. eigenvalues --   -0.37243  -0.36859  -0.35987  -0.35369  -0.34468
 Alpha  occ. eigenvalues --   -0.34232  -0.34116  -0.33447  -0.32991  -0.32781
 Alpha  occ. eigenvalues --   -0.32529  -0.32307  -0.31964  -0.31847  -0.31606
 Alpha  occ. eigenvalues --   -0.30909  -0.27881  -0.26353  -0.25486
 Alpha virt. eigenvalues --    0.03090   0.05450   0.07336   0.08191   0.08824
 Alpha virt. eigenvalues --    0.09203   0.09641   0.10378   0.10684   0.12243
 Alpha virt. eigenvalues --    0.13053   0.13464   0.14455   0.14769   0.15690

 Mulliken charges:
               1
     1  N   -0.310111
     2  C    0.180556
     3  C    0.035296
     4  N   -0.254278
     5  C    0.128777
     6  H    0.028291
     7  N   -0.282630
     8  C    0.131301
     9  H    0.016411
    10  N   -0.291937
    11  C    0.231997
    12  C    0.101005
    13  N   -0.037408
    14  H    0.108745
    15  H    0.089408
    16  H    0.027891
    17  H    0.035490
    18  H    0.024503
    19  N   -0.305534
    20  C    0.254480
    21  C    0.180529
    22  N   -0.121047
    23  H    0.112270
    24  H    0.118135
    25  N   -0.307129
    26  C    0.244975
    27  N   -0.133648
    28  H    0.117423
    29  C    0.167500
    30  O   -0.324948
    31  C   -0.006313
    32  N   -0.227693
    33  C    0.124426
    34  H    0.029197
    35  H    0.031269
    36  H    0.027569
    37  H    0.022152
    38  H    0.050849
    39  H    0.063607
    40  H    0.074566
    41  H    0.028414
    42  C   -0.078010
    43  O   -0.282572
    44  C    0.174156
    45  H    0.137075
    46  N   -0.128308
    47  O   -0.350414
    48  C    0.348364
    49  H    0.044952
    50  C    0.169719
    51  C    0.039434
    52  N   -0.287474
    53  H    0.031215
    54  H    0.039723
    55  H    0.018087
    56  H    0.118392
    57  H    0.117904
    58  N   -0.030890
    59  C    0.104731
    60  C    0.239891
    61  N   -0.275687
    62  H    0.035272
    63  C    0.159886
    64  N   -0.303091
    65  H    0.025054
    66  C    0.119198
    67  N   -0.252086
    68  C    0.007039
    69  C    0.180948
    70  N   -0.306867
 Sum of Mulliken charges =  -0.00000

 Dipole moment (field-independent basis, Debye):
    X=              5.8069    Y=              5.7761    Z=              3.7098  Tot=              8.9914
 Quadrupole moment (field-independent basis, Debye-Ang):
   XX=           -140.1661   YY=           -226.2713   ZZ=           -253.7220
   XY=              9.9339   XZ=             20.1230   YZ=              1.4110

 Normal termination of Gaussian 16 at Fri Jan 19 21:12:30 2018.
