 Gaussian 16, Revision A.03,
 Gaussian 16:  EM64L-G16RevA.03 25-Dec-2016

 ---------------------------------------
 #p wb97xd/cc-pvdz sp scf=(maxcycles=20)
 ---------------------------------------

 ------------------
 Base pair stacking
 ------------------
 Symbolic Z-matrix:
 Charge =  0 Multiplicity = 1

                         Standard orientation:
 ---------------------------------------------------------------------
 Center     Atomic      Atomic             Coordinates (Angstroms)
 Number     Number       Type             X           Y           Z
 ---------------------------------------------------------------------
      1          7           0       -5.787227   -1.800652    0.358982
      2          6           0       -7.104509   -1.545782    0.973658
      3          6           0       -3.621937   -1.938578   -0.001291
      4          7           0       -4.237416   -2.436190   -1.140720
      5          6           0       -5.517288   -2.333175   -0.878061
      6          1           0       -6.315717   -2.633354   -1.557283
      7          7           0       -1.996702   -1.249123    1.562750
      8          6           0       -3.016348   -0.913057    2.359586
      9          1           0       -2.733967   -0.493716    3.324296
     10          7           0       -4.326297   -1.016740    2.144662
     11          6           0       -4.564371   -1.542948    0.931881
     12          6           0       -2.269232   -1.776036    0.348999
     13          7           0       -1.252744   -2.112133   -0.447842
     14          1           0       -1.407763   -2.505448   -1.354760
     15          1           0       -0.302147   -1.982316   -0.165624
     16          1           0       -7.609642   -2.405445    1.051143
     17          1           0       -6.977972   -1.151488    1.883399
     18          1           0       -7.622281   -0.907085    0.404474
     19          7           0       -4.304565    2.225813   -0.397796
     20          6           0       -2.938876    2.296440   -0.263730
     21          6           0       -5.280145    3.026868    0.368524
     22          7           0       -0.132586    3.668605    1.254067
     23          1           0        0.860303    3.567662    1.197364
     24          1           0       -0.484061    4.334763    1.912412
     25          7           0       -2.264170    3.103008    0.583788
     26          6           0       -0.956523    2.943671    0.482372
     27          7           0       -0.353731    2.062416   -0.382233
     28          1           0        0.653165    2.007389   -0.391820
     29          6           0       -1.028162    1.222806   -1.263189
     30          8           0       -0.388690    0.464017   -2.002121
     31          6           0       -2.433807    1.382642   -1.165758
     32          7           0       -3.461718    0.751028   -1.852321
     33          6           0       -4.550230    1.281794   -1.364820
     34          1           0       -5.562051    1.020022   -1.676204
     35          1           0       -5.880074    2.418157    0.886564
     36          1           0       -4.791947    3.628176    0.999679
     37          1           0       -5.827570    3.578674   -0.259689
     38          1           0        5.652327    1.749257    0.499487
     39          1           0        5.748482    2.789465   -0.919440
     40          1           0        4.352622    2.890694    0.154180
     41          1           0        5.025376   -1.484176   -3.007420
     42          6           0        4.457590   -0.715797   -2.482597
     43          8           0        2.347309   -1.516418   -3.212526
     44          6           0        3.029700   -0.712950   -2.577270
     45          1           0        1.400511    0.336010   -1.918693
     46          7           0        2.409308    0.301157   -1.875884
     47          8           0        2.377814    2.133509   -0.534728
     48          6           0        3.013523    1.275091   -1.120947
     49          1           0        6.158958    0.262841   -1.649867
     50          6           0        5.075550    0.221085   -1.753898
     51          6           0        5.081926    2.225642   -0.283946
     52          7           0        4.392135    1.205542   -1.078510
     53          1           0        5.302145   -0.149778    4.426387
     54          1           0        4.001947    0.747930    4.019343
     55          1           0        5.488136    1.183855    3.504293
     56          1           0        2.116393   -2.923016   -1.674887
     57          1           0        3.800605   -2.972989   -1.408405
     58          7           0        2.900087   -2.647363   -1.118127
     59          6           0        2.751993   -1.879713   -0.036495
     60          6           0        3.509362   -0.669973    1.867364
     61          7           0        2.287960   -0.247394    2.233465
     62          1           0        0.340718   -0.404856    1.613736
     63          6           0        1.364178   -0.702144    1.389220
     64          7           0        1.510502   -1.471111    0.305319
     65          1           0        6.720737   -1.009766    2.021473
     66          6           0        5.665604   -1.050955    1.749569
     67          7           0        5.187269   -1.698710    0.715497
     68          6           0        3.821140   -1.465374    0.778486
     69          6           0        4.889118    0.409193    3.707396
     70          7           0        4.705863   -0.405702    2.490695
 ---------------------------------------------------------------------

 SCF Done:  E(RwB97XD) =  -2048.73022176     A.U. after   15 cycles

 The electronic state is 1-A.
 Alpha  occ. eigenvalues --  -19.25985 -19.21726 -19.20867 -14.52508 -14.51884
 Alpha  occ. eigenvalues --  -14.48952 -14.48781 -14.47991 -14.47150 -14.46884
 Alpha  occ. eigenvalues --  -14.46314 -14.44868 -14.43449 -14.43322 -14.42200
 Alpha  occ. eigenvalues --  -14.42016 -14.41210 -14.41020 -14.40904 -14.40194
 Alpha  occ. eigenvalues --  -10.45574 -10.41446 -10.40447 -10.38808 -10.38471
 Alpha  occ. eigenvalues --  -10.37686 -10.37405 -10.36501 -10.35468 -10.35317
 Alpha  occ. eigenvalues --  -10.35034 -10.34541 -10.33954 -10.33530 -10.33498
 Alpha  occ. eigenvalues --  -10.33312 -10.33062 -10.31873 -10.31245 -10.31032
 Alpha  occ. eigenvalues --  -10.30897 -10.28412 -10.28294  -1.19559  -1.14592
 Alpha  occ. eigenvalues --   -1.13550  -1.13414  -1.11298  -1.10775  -1.09414
 Alpha  occ. eigenvalues --   -1.08785  -1.08281  -1.04963  -1.03846  -1.02725
 Alpha  occ. eigenvalues --   -1.00327  -1.00292  -0.99957  -0.98734  -0.96898
 Alpha  occ. eigenvalues --   -0.96748  -0.95919  -0.92605  -0.91025  -0.86959
 Alpha  occ. eigenvalues --   -0.85335  -0.84285  -0.83953  -0.83827  -0.82668
 Alpha  occ. eigenvalues --   -0.82351  -0.78945  -0.76260  -0.74822  -0.74055
 Alpha  occ. eigenvalues --   -0.73844  -0.73509  -0.72841  -0.70994  -0.69578
 Alpha  occ. eigenvalues --   -0.67588  -0.66628  -0.66233  -0.66020  -0.64608
 Alpha  occ. eigenvalues --   -0.63964  -0.63392  -0.62833  -0.62624  -0.61953
 Alpha  occ. eigenvalues --   -0.60705  -0.60220  -0.59699  -0.59474  -0.58745
 Alpha  occ. eigenvalues --   -0.58680  -0.58580  -0.56972  -0.56515  -0.56382
 Alpha  occ. eigenvalues --   -0.56125  -0.55315  -0.55208  -0.54727  -0.54421
 Alpha  occ. eigenvalues --   -0.53880  -0.53676  -0.53149  -0.52956  -0.52693
 Alpha  occ. eigenvalues --   -0.52608  -0.52125  -0.51821  -0.50862  -0.50378
 Alpha  occ. eigenvalues --   -0.50230  -0.50068  -0.49632  -0.49400  -0.49064
 Alpha  occ. eigenvalues --   -0.48721  -0.48568  -0.47767  -0.47631  -0.47432
 Alpha  occ. eigenvalues --   -0.46924  -0.45987  -0.44904  -0.43927  -0.42845
 Alpha  occ. eigenvalues --   -0.41057  -0.40018  -0.39561  -0.37609  -0.37447
 Alpha  occ. eigenvalues --   -0.37393  -0.37035  -0.36748  -0.35790  -0.34477
 Alpha  occ. eigenvalues --   -0.33966  -0.33671  -0.33556  -0.33363  -0.33257
 Alpha  occ. eigenvalues --   -0.32753  -0.32456  -0.32026  -0.31924  -0.30843
 Alpha  occ. eigenvalues --   -0.30362  -0.28501  -0.25852  -0.25433
 Alpha virt. eigenvalues --    0.03232   0.04732   0.07720   0.07937   0.07999
 Alpha virt. eigenvalues --    0.09025   0.09555   0.10574   0.11096   0.12087
 Alpha virt. eigenvalues --    0.13329   0.13367   0.14251   0.14496   0.14850

 Mulliken charges:
               1
     1  N   -0.309216
     2  C    0.180265
     3  C    0.056011
     4  N   -0.243093
     5  C    0.123498
     6  H    0.024406
     7  N   -0.294258
     8  C    0.135013
     9  H    0.011743
    10  N   -0.291594
    11  C    0.233064
    12  C    0.092901
    13  N   -0.041896
    14  H    0.114244
    15  H    0.089700
    16  H    0.027026
    17  H    0.033979
    18  H    0.018866
    19  N   -0.308148
    20  C    0.259533
    21  C    0.182127
    22  N   -0.123539
    23  H    0.116850
    24  H    0.119111
    25  N   -0.311056
    26  C    0.247663
    27  N   -0.149902
    28  H    0.120454
    29  C    0.196012
    30  O   -0.327539
    31  C   -0.023804
    32  N   -0.215675
    33  C    0.128281
    34  H    0.019818
    35  H    0.027108
    36  H    0.030281
    37  H    0.023472
    38  H    0.051794
    39  H    0.061372
    40  H    0.075438
    41  H    0.024209
    42  C   -0.101023
    43  O   -0.293187
    44  C    0.137412
    45  H    0.133958
    46  N   -0.102164
    47  O   -0.346816
    48  C    0.343988
    49  H    0.044419
    50  C    0.191356
    51  C    0.043369
    52  N   -0.280214
    53  H    0.033391
    54  H    0.042154
    55  H    0.020952
    56  H    0.131110
    57  H    0.112499
    58  N   -0.030246
    59  C    0.080462
    60  C    0.243538
    61  N   -0.273887
    62  H    0.031241
    63  C    0.162405
    64  N   -0.301917
    65  H    0.032503
    66  C    0.116955
    67  N   -0.255783
    68  C    0.026186
    69  C    0.181718
    70  N   -0.308895
 Sum of Mulliken charges =  -0.00000

 Dipole moment (field-independent basis, Debye):
    X=              5.9922    Y=              5.5340    Z=              5.0699  Tot=              9.6040
 Quadrupole moment (field-independent basis, Debye-Ang):
   XX=           -145.6803   YY=           -228.0668   ZZ=           -253.3227
   XY=              6.2668   XZ=              8.9552   YZ=              9.4313

 Normal termination of Gaussian 16 at Fri Jan 19 22:35:51 2018.
