 Gaussian 16, Revision A.03,
 Gaussian 16:  EM64L-G16RevA.03 25-Dec-2016

 ---------------------------------------
 #p wb97xd/cc-pvdz sp scf=(maxcycles=20)
 ---------------------------------------

 ------------------
 Base pair stacking
 ------------------
 Symbolic Z-matrix:
 Charge =  0 Multiplicity = 1

                         Standard orientation:
 ---------------------------------------------------------------------
 Center     Atomic      Atomic             Coordinates (Angstroms)
 Number     Number       Type             X           Y           Z
 ---------------------------------------------------------------------
      1          7           0        6.029640   -1.087456   -0.833040
      2          6           0        7.338587   -0.408223   -0.890423
      3          6           0        3.873782   -1.516339   -0.908297
      4          7           0        4.494718   -2.707947   -0.562974
      5          6           0        5.768682   -2.401870   -0.531455
      6          1           0        6.568954   -3.102667   -0.291879
      7          7           0        2.243631    0.102089   -1.443295
      8          6           0        3.254723    0.967439   -1.571456
      9          1           0        2.966948    1.981598   -1.845169
     10          7           0        4.561797    0.769038   -1.413018
     11          6           0        4.807029   -0.508497   -1.078055
     12          6           0        2.523216   -1.175689   -1.105386
     13          7           0        1.515266   -2.040980   -0.976974
     14          1           0        1.675703   -2.996823   -0.728287
     15          1           0        0.565930   -1.763455   -1.124882
     16          1           0        7.916051   -0.851785   -1.575964
     17          1           0        7.206514    0.551246   -1.137626
     18          1           0        7.783905   -0.462150    0.003313
     19          7           0        4.062809    1.470578    1.295359
     20          6           0        2.704035    1.584743    1.125749
     21          6           0        5.063235    2.469734    0.869323
     22          7           0       -0.045117    3.376666   -0.011313
     23          1           0       -1.038309    3.266390   -0.036758
     24          1           0        0.328521    4.215832   -0.407437
     25          7           0        2.059742    2.620549    0.546049
     26          6           0        0.750780    2.441800    0.529497
     27          7           0        0.119119    1.334147    1.040994
     28          1           0       -0.886429    1.282393    0.984764
     29          6           0        0.761983    0.256412    1.641899
     30          8           0        0.098047   -0.695156    2.071361
     31          6           0        2.168644    0.434029    1.667047
     32          7           0        3.171123   -0.386063    2.166437
     33          6           0        4.274655    0.268026    1.924374
     34          1           0        5.274028   -0.082380    2.184634
     35          1           0        5.693605    2.054395    0.214403
     36          1           0        4.597665    3.241679    0.438499
     37          1           0        5.574504    2.792261    1.665192
     38          1           0       -5.835672    1.337098   -0.179118
     39          1           0       -6.009553    1.874641    1.489856
     40          1           0       -4.566861    2.305906    0.571145
     41          1           0       -5.333321   -2.842774    2.149589
     42          6           0       -4.751000   -1.949678    1.922607
     43          8           0       -2.667393   -2.947555    2.461075
     44          6           0       -3.329141   -1.981890    2.081109
     45          1           0       -1.683747   -0.783977    1.866702
     46          7           0       -2.689004   -0.799987    1.767134
     47          8           0       -2.617203    1.362696    1.078054
     48          6           0       -3.269147    0.364999    1.331476
     49          1           0       -6.423501   -0.751807    1.362549
     50          6           0       -5.345641   -0.828105    1.499414
     51          6           0       -5.307739    1.538849    0.741015
     52          7           0       -4.643410    0.317228    1.203691
     53          1           0       -5.033469    2.850006   -2.918132
     54          1           0       -3.825709    3.102772   -1.850651
     55          1           0       -5.357828    2.915370   -1.320025
     56          1           0       -1.809004   -3.599277   -1.164538
     57          1           0       -3.474465   -3.462672   -1.507610
     58          7           0       -2.596179   -3.010467   -1.348395
     59          6           0       -2.480888   -1.681222   -1.380089
     60          6           0       -3.280125    0.545506   -1.634221
     61          7           0       -2.088104    1.125346   -1.416736
     62          1           0       -0.153769    0.589169   -1.002647
     63          6           0       -1.154926    0.203139   -1.189492
     64          7           0       -1.268409   -1.128646   -1.157326
     65          1           0       -6.445752    0.376316   -2.268554
     66          6           0       -5.399414    0.163345   -2.047753
     67          7           0       -4.899379   -1.038663   -1.896667
     68          6           0       -3.556334   -0.810673   -1.634021
     69          6           0       -4.690239    2.625742   -2.006048
     70          7           0       -4.475538    1.169332   -1.902235
 ---------------------------------------------------------------------

 SCF Done:  E(RwB97XD) =  -2048.72412759     A.U. after   15 cycles

 The electronic state is 1-A.
 Alpha  occ. eigenvalues --  -19.25350 -19.21604 -19.20495 -14.52416 -14.52169
 Alpha  occ. eigenvalues --  -14.49631 -14.48221 -14.47745 -14.47451 -14.46657
 Alpha  occ. eigenvalues --  -14.46311 -14.45557 -14.44082 -14.44004 -14.43074
 Alpha  occ. eigenvalues --  -14.42108 -14.41741 -14.41505 -14.40784 -14.40496
 Alpha  occ. eigenvalues --  -10.44996 -10.40983 -10.39719 -10.39657 -10.38028
 Alpha  occ. eigenvalues --  -10.38022 -10.37385 -10.37103 -10.36165 -10.35353
 Alpha  occ. eigenvalues --  -10.35158 -10.34774 -10.34235 -10.34074 -10.33885
 Alpha  occ. eigenvalues --  -10.33546 -10.32984 -10.32541 -10.32008 -10.30614
 Alpha  occ. eigenvalues --  -10.29753 -10.29207 -10.27718  -1.19191  -1.15295
 Alpha  occ. eigenvalues --   -1.13041  -1.12633  -1.12137  -1.10266  -1.09208
 Alpha  occ. eigenvalues --   -1.08853  -1.08342  -1.05745  -1.04550  -1.02169
 Alpha  occ. eigenvalues --   -1.01251  -1.01053  -0.99454  -0.98339  -0.97766
 Alpha  occ. eigenvalues --   -0.96603  -0.96150  -0.93411  -0.90683  -0.87761
 Alpha  occ. eigenvalues --   -0.86139  -0.84759  -0.83729  -0.83630  -0.83149
 Alpha  occ. eigenvalues --   -0.81821  -0.78533  -0.77020  -0.74870  -0.74281
 Alpha  occ. eigenvalues --   -0.73679  -0.73386  -0.73061  -0.71762  -0.70371
 Alpha  occ. eigenvalues --   -0.67132  -0.67063  -0.66692  -0.66237  -0.64431
 Alpha  occ. eigenvalues --   -0.64224  -0.63569  -0.63415  -0.62547  -0.62039
 Alpha  occ. eigenvalues --   -0.61473  -0.61041  -0.60519  -0.59530  -0.59272
 Alpha  occ. eigenvalues --   -0.58144  -0.57813  -0.57764  -0.57334  -0.56470
 Alpha  occ. eigenvalues --   -0.56104  -0.55829  -0.55284  -0.54661  -0.54282
 Alpha  occ. eigenvalues --   -0.53953  -0.53445  -0.53228  -0.52921  -0.52787
 Alpha  occ. eigenvalues --   -0.52554  -0.52360  -0.52134  -0.51364  -0.50880
 Alpha  occ. eigenvalues --   -0.49949  -0.49701  -0.49343  -0.49142  -0.48760
 Alpha  occ. eigenvalues --   -0.48558  -0.48324  -0.48005  -0.47735  -0.47130
 Alpha  occ. eigenvalues --   -0.46909  -0.45594  -0.45507  -0.44579  -0.42963
 Alpha  occ. eigenvalues --   -0.41752  -0.40701  -0.39215  -0.37931  -0.37664
 Alpha  occ. eigenvalues --   -0.37501  -0.37175  -0.36918  -0.35985  -0.34613
 Alpha  occ. eigenvalues --   -0.34236  -0.34112  -0.33974  -0.33420  -0.32852
 Alpha  occ. eigenvalues --   -0.32409  -0.32276  -0.31739  -0.31602  -0.31159
 Alpha  occ. eigenvalues --   -0.31016  -0.29344  -0.26367  -0.25124
 Alpha virt. eigenvalues --    0.03340   0.04188   0.06899   0.07171   0.08258
 Alpha virt. eigenvalues --    0.08691   0.09996   0.10497   0.10972   0.12377
 Alpha virt. eigenvalues --    0.13231   0.13660   0.14101   0.14140   0.14687

 Mulliken charges:
               1
     1  N   -0.309097
     2  C    0.174324
     3  C    0.072630
     4  N   -0.252641
     5  C    0.128878
     6  H    0.028271
     7  N   -0.280791
     8  C    0.141307
     9  H    0.014407
    10  N   -0.288576
    11  C    0.222378
    12  C    0.090102
    13  N   -0.046697
    14  H    0.109572
    15  H    0.088049
    16  H    0.029718
    17  H    0.041539
    18  H    0.023520
    19  N   -0.278012
    20  C    0.209735
    21  C    0.192801
    22  N   -0.103569
    23  H    0.114006
    24  H    0.114689
    25  N   -0.291931
    26  C    0.212983
    27  N   -0.142971
    28  H    0.128019
    29  C    0.169321
    30  O   -0.323161
    31  C    0.003580
    32  N   -0.217312
    33  C    0.120092
    34  H    0.015661
    35  H    0.012249
    36  H    0.026029
    37  H    0.016350
    38  H    0.031418
    39  H    0.058219
    40  H    0.070515
    41  H    0.027189
    42  C   -0.106789
    43  O   -0.267297
    44  C    0.171485
    45  H    0.132322
    46  N   -0.122100
    47  O   -0.330497
    48  C    0.329956
    49  H    0.042853
    50  C    0.174853
    51  C    0.054011
    52  N   -0.275534
    53  H    0.036027
    54  H    0.040290
    55  H    0.019472
    56  H    0.123008
    57  H    0.119988
    58  N   -0.060456
    59  C    0.112981
    60  C    0.205259
    61  N   -0.254730
    62  H    0.047356
    63  C    0.135166
    64  N   -0.301158
    65  H    0.040623
    66  C    0.105930
    67  N   -0.241602
    68  C    0.038025
    69  C    0.174499
    70  N   -0.296732
 Sum of Mulliken charges =  -0.00000

 Dipole moment (field-independent basis, Debye):
    X=             -5.3769    Y=              6.1264    Z=             -4.6656  Tot=              9.3921
 Quadrupole moment (field-independent basis, Debye-Ang):
   XX=           -145.9920   YY=           -227.0226   ZZ=           -261.4858
   XY=            -12.5371   XZ=              6.3578   YZ=              9.7448

 Normal termination of Gaussian 16 at Fri Jan 19 18:22:03 2018.
