 Gaussian 16, Revision A.03,
 Gaussian 16:  EM64L-G16RevA.03 25-Dec-2016

 ---------------------------------------
 #p wb97xd/cc-pvdz sp scf=(maxcycles=20)
 ---------------------------------------

 ------------------
 Base pair stacking
 ------------------
 Symbolic Z-matrix:
 Charge =  0 Multiplicity = 1

                         Standard orientation:
 ---------------------------------------------------------------------
 Center     Atomic      Atomic             Coordinates (Angstroms)
 Number     Number       Type             X           Y           Z
 ---------------------------------------------------------------------
      1          7           0       -6.642002   -1.184131    0.276360
      2          6           0       -7.957647   -0.657542    0.688413
      3          6           0       -4.484111   -1.584483    0.133001
      4          7           0       -5.088494   -2.359428   -0.846245
      5          6           0       -6.364348   -2.087217   -0.720674
      6          1           0       -7.154164   -2.520770   -1.334819
      7          7           0       -2.877723   -0.572106    1.532137
      8          6           0       -3.898431    0.065270    2.114787
      9          1           0       -3.624340    0.737102    2.927046
     10          7           0       -5.200768   -0.002321    1.845973
     11          6           0       -5.428951   -0.854605    0.833066
     12          6           0       -3.140202   -1.422815    0.516016
     13          7           0       -2.122647   -2.059991   -0.066860
     14          1           0       -2.270373   -2.698843   -0.822683
     15          1           0       -1.178485   -1.920572    0.231922
     16          1           0       -8.543047   -1.412876    0.983303
     17          1           0       -7.838285   -0.014791    1.444557
     18          1           0       -8.386859   -0.186778   -0.082397
     19          7           0       -3.353144    2.256892   -1.083947
     20          6           0       -1.995500    2.265603   -0.872308
     21          6           0       -4.301865    3.271282   -0.582307
     22          7           0        0.824695    3.754199    0.503301
     23          1           0        1.807958    3.578005    0.540406
     24          1           0        0.492267    4.572205    0.973501
     25          7           0       -1.305632    3.194827   -0.176135
     26          6           0       -0.011316    2.931126   -0.147504
     27          7           0        0.565298    1.841332   -0.753631
     28          1           0        1.563604    1.719389   -0.679703
     29          6           0       -0.125128    0.872488   -1.475105
     30          8           0        0.490944   -0.072557   -1.983120
     31          6           0       -1.516724    1.142232   -1.514666
     32          7           0       -2.552935    0.442361   -2.117442
     33          6           0       -3.620462    1.139062   -1.836042
     34          1           0       -4.631527    0.881563   -2.153411
     35          1           0       -4.975782    2.834469    0.012530
     36          1           0       -3.802248    3.964856   -0.064997
     37          1           0       -4.768481    3.703692   -1.353085
     38          1           0        6.470287    1.338216    0.597781
     39          1           0        6.726247    2.026679   -1.003830
     40          1           0        5.286601    2.456761   -0.079808
     41          1           0        5.778736   -2.548167   -2.152567
     42          6           0        5.246440   -1.646321   -1.849972
     43          8           0        3.121791   -2.448992   -2.534555
     44          6           0        3.830608   -1.570680   -2.043724
     45          1           0        2.256997   -0.296218   -1.747382
     46          7           0        3.255969   -0.386979   -1.626741
     47          8           0        3.298034    1.696578   -0.724382
     48          6           0        3.894087    0.688987   -1.062245
     49          1           0        6.972721   -0.620647   -1.133187
     50          6           0        5.896699   -0.613161   -1.301927
     51          6           0        5.983203    1.664136   -0.309188
     52          7           0        5.258383    0.540064   -0.908228
     53          1           0        4.348305    0.808434    4.458037
     54          1           0        3.157125    1.632198    3.706643
     55          1           0        4.699825    1.779438    3.194319
     56          1           0        1.211364   -3.452476   -0.744826
     57          1           0        2.869344   -3.542560   -0.353556
     58          7           0        1.990033   -3.078510   -0.240882
     59          6           0        1.862602   -2.008594    0.546658
     60          6           0        2.637789   -0.334636    2.049550
     61          7           0        1.444702    0.268247    2.181838
     62          1           0       -0.477386    0.072930    1.497680
     63          6           0        0.523717   -0.353203    1.448007
     64          7           0        0.649381   -1.424925    0.658585
     65          1           0        5.793255   -0.846628    2.532302
     66          6           0        4.752818   -0.891053    2.209101
     67          7           0        4.266022   -1.786491    1.385143
     68          6           0        2.925804   -1.445156    1.275388
     69          6           0        4.022963    1.150056    3.576310
     70          7           0        3.822851    0.018458    2.650330
 ---------------------------------------------------------------------

 SCF Done:  E(RwB97XD) =  -2048.74720673     A.U. after   15 cycles

 The electronic state is 1-A.
 Alpha  occ. eigenvalues --  -19.26051 -19.22266 -19.20764 -14.52550 -14.51279
 Alpha  occ. eigenvalues --  -14.49376 -14.48694 -14.48006 -14.47030 -14.46758
 Alpha  occ. eigenvalues --  -14.45783 -14.44225 -14.42715 -14.42535 -14.42357
 Alpha  occ. eigenvalues --  -14.42080 -14.41985 -14.41450 -14.40822 -14.40591
 Alpha  occ. eigenvalues --  -10.45637 -10.41295 -10.40250 -10.38328 -10.38073
 Alpha  occ. eigenvalues --  -10.37596 -10.36797 -10.35790 -10.35737 -10.35724
 Alpha  occ. eigenvalues --  -10.34646 -10.34370 -10.34349 -10.33911 -10.33540
 Alpha  occ. eigenvalues --  -10.33279 -10.33175 -10.31553 -10.31111 -10.30919
 Alpha  occ. eigenvalues --  -10.30601 -10.29050 -10.28138  -1.19602  -1.13915
 Alpha  occ. eigenvalues --   -1.13370  -1.13297  -1.11942  -1.10595  -1.09434
 Alpha  occ. eigenvalues --   -1.08660  -1.07483  -1.05427  -1.03001  -1.02718
 Alpha  occ. eigenvalues --   -1.00810  -0.99835  -0.99635  -0.98593  -0.97474
 Alpha  occ. eigenvalues --   -0.96528  -0.95109  -0.93043  -0.90959  -0.86319
 Alpha  occ. eigenvalues --   -0.84794  -0.84487  -0.84083  -0.83930  -0.82845
 Alpha  occ. eigenvalues --   -0.82371  -0.78907  -0.75538  -0.74628  -0.73729
 Alpha  occ. eigenvalues --   -0.73492  -0.73352  -0.73286  -0.71523  -0.68873
 Alpha  occ. eigenvalues --   -0.67434  -0.66740  -0.66639  -0.65220  -0.64533
 Alpha  occ. eigenvalues --   -0.63793  -0.63169  -0.62721  -0.62651  -0.61781
 Alpha  occ. eigenvalues --   -0.60585  -0.60311  -0.59550  -0.59073  -0.58447
 Alpha  occ. eigenvalues --   -0.58335  -0.58154  -0.57075  -0.56900  -0.56448
 Alpha  occ. eigenvalues --   -0.56099  -0.55685  -0.54602  -0.54480  -0.54142
 Alpha  occ. eigenvalues --   -0.53690  -0.53505  -0.52941  -0.52718  -0.52538
 Alpha  occ. eigenvalues --   -0.52214  -0.52174  -0.51484  -0.51331  -0.50651
 Alpha  occ. eigenvalues --   -0.50239  -0.49620  -0.49516  -0.49130  -0.48908
 Alpha  occ. eigenvalues --   -0.48495  -0.48342  -0.47797  -0.47644  -0.47442
 Alpha  occ. eigenvalues --   -0.47409  -0.45477  -0.45374  -0.43905  -0.43054
 Alpha  occ. eigenvalues --   -0.41663  -0.39608  -0.39391  -0.37654  -0.37334
 Alpha  occ. eigenvalues --   -0.37244  -0.37033  -0.36195  -0.35548  -0.34329
 Alpha  occ. eigenvalues --   -0.34034  -0.33975  -0.33507  -0.33277  -0.32779
 Alpha  occ. eigenvalues --   -0.32750  -0.32250  -0.31930  -0.31778  -0.31465
 Alpha  occ. eigenvalues --   -0.30795  -0.27913  -0.26282  -0.25396
 Alpha virt. eigenvalues --    0.03014   0.05292   0.07502   0.08148   0.08791
 Alpha virt. eigenvalues --    0.09115   0.09690   0.10511   0.10684   0.12144
 Alpha virt. eigenvalues --    0.13224   0.13588   0.14441   0.14754   0.15380

 Mulliken charges:
               1
     1  N   -0.310122
     2  C    0.180374
     3  C    0.042249
     4  N   -0.251865
     5  C    0.126783
     6  H    0.027520
     7  N   -0.285036
     8  C    0.132510
     9  H    0.015467
    10  N   -0.292641
    11  C    0.231584
    12  C    0.101595
    13  N   -0.039545
    14  H    0.110025
    15  H    0.090301
    16  H    0.027807
    17  H    0.034979
    18  H    0.023527
    19  N   -0.306290
    20  C    0.258480
    21  C    0.180791
    22  N   -0.120430
    23  H    0.113546
    24  H    0.118069
    25  N   -0.308606
    26  C    0.244425
    27  N   -0.140194
    28  H    0.117878
    29  C    0.173479
    30  O   -0.325469
    31  C   -0.008362
    32  N   -0.227420
    33  C    0.127330
    34  H    0.026523
    35  H    0.029982
    36  H    0.028022
    37  H    0.021910
    38  H    0.048807
    39  H    0.063404
    40  H    0.074813
    41  H    0.026602
    42  C   -0.074102
    43  O   -0.281979
    44  C    0.161390
    45  H    0.136974
    46  N   -0.125390
    47  O   -0.348129
    48  C    0.346977
    49  H    0.044202
    50  C    0.174328
    51  C    0.040480
    52  N   -0.283900
    53  H    0.031785
    54  H    0.040135
    55  H    0.018298
    56  H    0.121051
    57  H    0.116651
    58  N   -0.025246
    59  C    0.096389
    60  C    0.239013
    61  N   -0.277124
    62  H    0.032813
    63  C    0.161658
    64  N   -0.303436
    65  H    0.027275
    66  C    0.118582
    67  N   -0.249599
    68  C    0.003194
    69  C    0.181552
    70  N   -0.306646
 Sum of Mulliken charges =  -0.00000

 Dipole moment (field-independent basis, Debye):
    X=              5.8480    Y=              5.6703    Z=              3.9482  Tot=              9.0521
 Quadrupole moment (field-independent basis, Debye-Ang):
   XX=           -141.9304   YY=           -225.8741   ZZ=           -254.6696
   XY=              8.5352   XZ=             17.3648   YZ=              2.9826

 Normal termination of Gaussian 16 at Fri Jan 19 20:24:20 2018.
