 Gaussian 16, Revision A.03,
 Gaussian 16:  EM64L-G16RevA.03 25-Dec-2016

 ---------------------------------------
 #p wb97xd/cc-pvdz sp scf=(maxcycles=20)
 ---------------------------------------

 ------------------
 Base pair stacking
 ------------------
 Symbolic Z-matrix:
 Charge =  0 Multiplicity = 1

                         Standard orientation:
 ---------------------------------------------------------------------
 Center     Atomic      Atomic             Coordinates (Angstroms)
 Number     Number       Type             X           Y           Z
 ---------------------------------------------------------------------
      1          7           0        5.161326   -1.488223   -1.311088
      2          6           0        6.479382   -0.937171   -1.681349
      3          6           0        2.996665   -1.776765   -1.049736
      4          7           0        3.608347   -2.873836   -0.460660
      5          6           0        4.887988   -2.656092   -0.641696
      6          1           0        5.683815   -3.320736   -0.304279
      7          7           0        1.377272   -0.251569   -1.833481
      8          6           0        2.398455    0.479803   -2.291586
      9          1           0        2.119101    1.402763   -2.797923
     10          7           0        3.706756    0.243359   -2.218469
     11          6           0        3.941093   -0.914040   -1.578201
     12          6           0        1.646043   -1.410730   -1.193808
     13          7           0        0.628021   -2.142182   -0.735799
     14          1           0        0.780262   -3.007115   -0.256283
     15          1           0       -0.321018   -1.850718   -0.856306
     16          1           0        6.957036   -1.583360   -2.276710
     17          1           0        6.355604   -0.070262   -2.163286
     18          1           0        7.022400   -0.783116   -0.855879
     19          7           0        4.955416    1.472624    0.912708
     20          6           0        3.592168    1.638300    0.866445
     21          6           0        5.949819    2.426546    0.381744
     22          7           0        0.820473    3.523877   -0.041354
     23          1           0       -0.174329    3.452556    0.025886
     24          1           0        1.187838    4.343000   -0.482727
     25          7           0        2.937280    2.691890    0.332458
     26          6           0        1.626480    2.564710    0.438494
     27          7           0        1.002744    1.488853    1.022440
     28          1           0       -0.004955    1.476130    1.059268
     29          6           0        1.656552    0.393675    1.578300
     30          8           0        0.999100   -0.525919    2.081152
     31          6           0        3.065312    0.515963    1.471901
     32          7           0        4.077436   -0.337145    1.889867
     33          6           0        5.178175    0.270057    1.537894
     34          1           0        6.183150   -0.116436    1.710899
     35          1           0        6.500903    1.979074   -0.321730
     36          1           0        5.476391    3.211173   -0.016349
     37          1           0        6.544114    2.737893    1.122484
     38          1           0       -5.034606    1.712410    0.352545
     39          1           0       -5.033462    2.275765    2.022062
     40          1           0       -3.666046    2.639094    0.968716
     41          1           0       -4.480052   -2.456651    2.688779
     42          6           0       -3.887417   -1.589919    2.395904
     43          8           0       -1.802728   -2.662834    2.756525
     44          6           0       -2.459280   -1.676325    2.424089
     45          1           0       -0.796046   -0.546785    2.041795
     46          7           0       -1.806083   -0.524310    2.034902
     47          8           0       -1.715462    1.625697    1.309341
     48          6           0       -2.378945    0.657499    1.636509
     49          1           0       -5.557389   -0.333630    1.973124
     50          6           0       -4.475203   -0.450771    2.011910
     51          6           0       -4.416897    1.903870    1.217322
     52          7           0       -3.759947    0.662474    1.635769
     53          1           0       -5.913640    2.489867   -3.251054
     54          1           0       -4.582323    2.933941   -2.418902
     55          1           0       -6.049004    2.995880   -1.705405
     56          1           0       -2.751543   -3.469129   -0.159598
     57          1           0       -4.439173   -3.316888   -0.356674
     58          7           0       -3.532127   -2.898426   -0.414801
     59          6           0       -3.371739   -1.635376   -0.814990
     60          6           0       -4.111261    0.493751   -1.577646
     61          7           0       -2.881318    1.029444   -1.646066
     62          1           0       -0.933515    0.493486   -1.300477
     63          6           0       -1.963244    0.139622   -1.274227
     64          7           0       -2.121887   -1.125878   -0.873083
     65          1           0       -7.332994    0.375118   -1.819660
     66          6           0       -6.276859    0.158507   -1.656544
     67          7           0       -5.807959   -0.991726   -1.238478
     68          6           0       -4.436029   -0.792777   -1.184093
     69          6           0       -5.476203    2.491665   -2.351810
     70          7           0       -5.305481    1.103220   -1.881636
 ---------------------------------------------------------------------

 SCF Done:  E(RwB97XD) =  -2048.75162441     A.U. after   15 cycles

 The electronic state is 1-A.
 Alpha  occ. eigenvalues --  -19.25333 -19.21725 -19.20605 -14.52607 -14.51913
 Alpha  occ. eigenvalues --  -14.48988 -14.48856 -14.47999 -14.47342 -14.46759
 Alpha  occ. eigenvalues --  -14.46620 -14.45539 -14.44448 -14.44432 -14.42617
 Alpha  occ. eigenvalues --  -14.41944 -14.41271 -14.41231 -14.41135 -14.40701
 Alpha  occ. eigenvalues --  -10.44936 -10.41163 -10.39946 -10.39774 -10.38235
 Alpha  occ. eigenvalues --  -10.38074 -10.37276 -10.37133 -10.35954 -10.35753
 Alpha  occ. eigenvalues --  -10.34648 -10.34442 -10.34143 -10.34041 -10.33644
 Alpha  occ. eigenvalues --  -10.33531 -10.33399 -10.32729 -10.31454 -10.31132
 Alpha  occ. eigenvalues --  -10.30625 -10.28667 -10.28222  -1.18962  -1.15395
 Alpha  occ. eigenvalues --   -1.13193  -1.12704  -1.11410  -1.10711  -1.09379
 Alpha  occ. eigenvalues --   -1.08820  -1.08525  -1.05366  -1.04834  -1.02045
 Alpha  occ. eigenvalues --   -1.01091  -1.00720  -0.99689  -0.98537  -0.97139
 Alpha  occ. eigenvalues --   -0.96881  -0.96716  -0.93047  -0.90535  -0.87759
 Alpha  occ. eigenvalues --   -0.86064  -0.84297  -0.84100  -0.83212  -0.82722
 Alpha  occ. eigenvalues --   -0.82532  -0.78372  -0.77113  -0.74930  -0.74711
 Alpha  occ. eigenvalues --   -0.73600  -0.73128  -0.72907  -0.71290  -0.70452
 Alpha  occ. eigenvalues --   -0.67406  -0.66839  -0.66542  -0.66092  -0.64357
 Alpha  occ. eigenvalues --   -0.64276  -0.63616  -0.62973  -0.62601  -0.61802
 Alpha  occ. eigenvalues --   -0.61357  -0.60690  -0.60487  -0.59594  -0.59029
 Alpha  occ. eigenvalues --   -0.58652  -0.58358  -0.57582  -0.56827  -0.56006
 Alpha  occ. eigenvalues --   -0.55817  -0.55673  -0.55374  -0.54163  -0.53936
 Alpha  occ. eigenvalues --   -0.53882  -0.53701  -0.53491  -0.53355  -0.52976
 Alpha  occ. eigenvalues --   -0.52918  -0.52055  -0.51977  -0.50836  -0.50528
 Alpha  occ. eigenvalues --   -0.50217  -0.50076  -0.49231  -0.49146  -0.48868
 Alpha  occ. eigenvalues --   -0.48645  -0.48388  -0.48323  -0.47840  -0.47217
 Alpha  occ. eigenvalues --   -0.47171  -0.46056  -0.45203  -0.44906  -0.42931
 Alpha  occ. eigenvalues --   -0.41265  -0.40817  -0.39013  -0.37936  -0.37639
 Alpha  occ. eigenvalues --   -0.37331  -0.37244  -0.37126  -0.36031  -0.34670
 Alpha  occ. eigenvalues --   -0.34411  -0.34116  -0.33722  -0.33475  -0.33014
 Alpha  occ. eigenvalues --   -0.32675  -0.32436  -0.31866  -0.31557  -0.31078
 Alpha  occ. eigenvalues --   -0.30701  -0.29898  -0.26377  -0.25147
 Alpha virt. eigenvalues --    0.03483   0.03928   0.07107   0.07607   0.08632
 Alpha virt. eigenvalues --    0.09018   0.09743   0.10327   0.10870   0.12467
 Alpha virt. eigenvalues --    0.13125   0.13388   0.14255   0.14309   0.14771

 Mulliken charges:
               1
     1  N   -0.301611
     2  C    0.176875
     3  C    0.066644
     4  N   -0.249131
     5  C    0.139108
     6  H    0.025308
     7  N   -0.288398
     8  C    0.130968
     9  H    0.010510
    10  N   -0.280514
    11  C    0.227164
    12  C    0.077609
    13  N   -0.045551
    14  H    0.113830
    15  H    0.084454
    16  H    0.028007
    17  H    0.036961
    18  H    0.014026
    19  N   -0.301146
    20  C    0.255561
    21  C    0.186219
    22  N   -0.122987
    23  H    0.119400
    24  H    0.118117
    25  N   -0.303544
    26  C    0.239127
    27  N   -0.135130
    28  H    0.117414
    29  C    0.179904
    30  O   -0.322079
    31  C   -0.013064
    32  N   -0.214715
    33  C    0.108668
    34  H    0.020765
    35  H    0.015343
    36  H    0.032788
    37  H    0.024014
    38  H    0.046352
    39  H    0.056689
    40  H    0.076279
    41  H    0.020750
    42  C   -0.099316
    43  O   -0.271913
    44  C    0.164525
    45  H    0.128709
    46  N   -0.108748
    47  O   -0.346305
    48  C    0.332947
    49  H    0.045025
    50  C    0.165861
    51  C    0.047861
    52  N   -0.276087
    53  H    0.036041
    54  H    0.042135
    55  H    0.025484
    56  H    0.126260
    57  H    0.117256
    58  N   -0.053532
    59  C    0.087853
    60  C    0.200348
    61  N   -0.259643
    62  H    0.024229
    63  C    0.162644
    64  N   -0.301096
    65  H    0.035754
    66  C    0.123148
    67  N   -0.252083
    68  C    0.051217
    69  C    0.178770
    70  N   -0.298334
 Sum of Mulliken charges =  -0.00000

 Dipole moment (field-independent basis, Debye):
    X=             -5.7880    Y=              6.6741    Z=             -3.7675  Tot=              9.6041
 Quadrupole moment (field-independent basis, Debye-Ang):
   XX=           -148.3165   YY=           -224.5371   ZZ=           -260.4600
   XY=             -8.2660   XZ=             -2.9495   YZ=              5.6116

 Normal termination of Gaussian 16 at Fri Jan 19 12:04:42 2018.
