 Gaussian 16, Revision A.03,
 Gaussian 16:  EM64L-G16RevA.03 25-Dec-2016

 ---------------------------------------
 #p wb97xd/cc-pvdz sp scf=(maxcycles=20)
 ---------------------------------------

 ------------------
 Base pair stacking
 ------------------
 Symbolic Z-matrix:
 Charge =  0 Multiplicity = 1

                         Standard orientation:
 ---------------------------------------------------------------------
 Center     Atomic      Atomic             Coordinates (Angstroms)
 Number     Number       Type             X           Y           Z
 ---------------------------------------------------------------------
      1          7           0        4.523677   -2.372987   -0.759016
      2          6           0        5.807464   -2.293219   -1.482581
      3          6           0        2.393520   -2.242196   -0.227388
      4          7           0        3.037069   -2.779688    0.877907
      5          6           0        4.294660   -2.836966    0.513376
      6          1           0        5.105011   -3.212365    1.138945
      7          7           0        0.738439   -1.404962   -1.684330
      8          6           0        1.722318   -1.213875   -2.569228
      9          1           0        1.413515   -0.789227   -3.523463
     10          7           0        3.024278   -1.467402   -2.452890
     11          6           0        3.296869   -1.986343   -1.244252
     12          6           0        1.045131   -1.928692   -0.477379
     13          7           0        0.064374   -2.120185    0.407279
     14          1           0        0.245457   -2.505315    1.312872
     15          1           0       -0.884296   -1.885345    0.195113
     16          1           0        6.200755   -3.208725   -1.568341
     17          1           0        5.654454   -1.910581   -2.393230
     18          1           0        6.440764   -1.706169   -0.978303
     19          7           0        5.543734    1.589305    0.001127
     20          6           0        4.189304    1.818794   -0.029168
     21          6           0        6.540790    2.247959   -0.866483
     22          7           0        1.448680    3.475697   -1.372811
     23          1           0        0.458685    3.495415   -1.235793
     24          1           0        1.820970    4.077725   -2.079683
     25          7           0        3.546913    2.677625   -0.850003
     26          6           0        2.242166    2.678098   -0.641972
     27          7           0        1.612716    1.897951    0.297535
     28          1           0        0.610401    1.963688    0.387044
     29          6           0        2.253689    1.007233    1.152882
     30          8           0        1.592044    0.349717    1.965672
     31          6           0        3.655815    0.995663    0.941227
     32          7           0        4.655212    0.264136    1.568115
     33          6           0        5.755093    0.648345    0.979176
     34          1           0        6.751316    0.275993    1.220345
     35          1           0        7.021482    1.558697   -1.407465
     36          1           0        6.076581    2.886483   -1.478913
     37          1           0        7.198081    2.746776   -0.302598
     38          1           0       -4.440408    2.280433   -0.104501
     39          1           0       -4.298945    3.361443    1.279708
     40          1           0       -2.992564    3.267341    0.098248
     41          1           0       -3.912984   -0.911847    3.456078
     42          6           0       -3.303798   -0.230668    2.861844
     43          8           0       -1.249266   -1.257904    3.454094
     44          6           0       -1.882410   -0.395674    2.845441
     45          1           0       -0.200680    0.433893    2.025721
     46          7           0       -1.206777    0.518497    2.062460
     47          8           0       -1.070383    2.298301    0.658578
     48          6           0       -1.752336    1.537465    1.322451
     49          1           0       -4.941121    0.921791    2.129152
     50          6           0       -3.865154    0.753850    2.150347
     51          6           0       -3.756590    2.705712    0.614940
     52          7           0       -3.128501    1.631758    1.389454
     53          1           0       -6.590152    0.481809   -4.011161
     54          1           0       -5.165278    1.228359   -3.738264
     55          1           0       -6.543645    1.851757   -3.125449
     56          1           0       -3.265671   -2.491059    1.919725
     57          1           0       -4.960225   -2.346739    1.786475
     58          7           0       -4.054375   -2.138559    1.415905
     59          6           0       -3.905879   -1.422612    0.299431
     60          6           0       -4.668716   -0.181393   -1.581848
     61          7           0       -3.440075    0.082767   -2.056279
     62          1           0       -1.480737   -0.289559   -1.584073
     63          6           0       -2.510302   -0.456678   -1.270505
     64          7           0       -2.657014   -1.174085   -0.151860
     65          1           0       -7.899641   -0.139644   -1.474500
     66          6           0       -6.837983   -0.299261   -1.283871
     67          7           0       -6.356271   -0.972171   -0.267582
     68          6           0       -4.981885   -0.905172   -0.444486
     69          6           0       -6.057687    1.006133   -3.346668
     70          7           0       -5.872760    0.207306   -2.119609
 ---------------------------------------------------------------------

 SCF Done:  E(RwB97XD) =  -2048.73462412     A.U. after   15 cycles

 The electronic state is 1-A.
 Alpha  occ. eigenvalues --  -19.25400 -19.22295 -19.20867 -14.52568 -14.51898
 Alpha  occ. eigenvalues --  -14.49436 -14.48196 -14.47781 -14.47543 -14.47134
 Alpha  occ. eigenvalues --  -14.46949 -14.45488 -14.44604 -14.44526 -14.42331
 Alpha  occ. eigenvalues --  -14.42131 -14.41620 -14.40806 -14.40507 -14.40292
 Alpha  occ. eigenvalues --  -10.44979 -10.41565 -10.40142 -10.39905 -10.38554
 Alpha  occ. eigenvalues --  -10.38087 -10.37423 -10.36810 -10.36037 -10.35287
 Alpha  occ. eigenvalues --  -10.34865 -10.34756 -10.34017 -10.33902 -10.33393
 Alpha  occ. eigenvalues --  -10.33030 -10.32978 -10.32922 -10.31541 -10.30733
 Alpha  occ. eigenvalues --  -10.30703 -10.28632 -10.28175  -1.18982  -1.15336
 Alpha  occ. eigenvalues --   -1.13547  -1.13176  -1.11120  -1.10787  -1.09570
 Alpha  occ. eigenvalues --   -1.08909  -1.08717  -1.05029  -1.04899  -1.02214
 Alpha  occ. eigenvalues --   -1.01063  -1.00248  -1.00046  -0.98940  -0.97158
 Alpha  occ. eigenvalues --   -0.97093  -0.96386  -0.92591  -0.90644  -0.87778
 Alpha  occ. eigenvalues --   -0.85966  -0.84667  -0.83548  -0.83242  -0.83019
 Alpha  occ. eigenvalues --   -0.81985  -0.78543  -0.77132  -0.75097  -0.74982
 Alpha  occ. eigenvalues --   -0.73967  -0.73079  -0.72571  -0.70803  -0.70531
 Alpha  occ. eigenvalues --   -0.67769  -0.66981  -0.66217  -0.65978  -0.64810
 Alpha  occ. eigenvalues --   -0.64446  -0.63602  -0.62927  -0.62425  -0.62157
 Alpha  occ. eigenvalues --   -0.60648  -0.60444  -0.60175  -0.59434  -0.59088
 Alpha  occ. eigenvalues --   -0.59041  -0.58657  -0.57373  -0.56303  -0.55936
 Alpha  occ. eigenvalues --   -0.55916  -0.55429  -0.55165  -0.54530  -0.54295
 Alpha  occ. eigenvalues --   -0.53901  -0.53766  -0.53669  -0.53343  -0.53177
 Alpha  occ. eigenvalues --   -0.52819  -0.52162  -0.51435  -0.50610  -0.50498
 Alpha  occ. eigenvalues --   -0.50191  -0.49930  -0.49792  -0.49371  -0.49067
 Alpha  occ. eigenvalues --   -0.48727  -0.48627  -0.48312  -0.47920  -0.47484
 Alpha  occ. eigenvalues --   -0.46669  -0.45910  -0.45654  -0.44756  -0.42395
 Alpha  occ. eigenvalues --   -0.40932  -0.40820  -0.39197  -0.38209  -0.37732
 Alpha  occ. eigenvalues --   -0.37653  -0.37570  -0.36757  -0.35817  -0.34861
 Alpha  occ. eigenvalues --   -0.34489  -0.34278  -0.33526  -0.33254  -0.33099
 Alpha  occ. eigenvalues --   -0.33073  -0.32870  -0.32072  -0.31443  -0.30607
 Alpha  occ. eigenvalues --   -0.30229  -0.29586  -0.26239  -0.25242
 Alpha virt. eigenvalues --    0.02381   0.04556   0.07148   0.08208   0.08568
 Alpha virt. eigenvalues --    0.08933   0.09502   0.10379   0.11150   0.12021
 Alpha virt. eigenvalues --    0.12915   0.13224   0.14187   0.14566   0.15187

 Mulliken charges:
               1
     1  N   -0.305697
     2  C    0.184267
     3  C    0.043775
     4  N   -0.243646
     5  C    0.151676
     6  H    0.024367
     7  N   -0.297652
     8  C    0.129775
     9  H    0.009292
    10  N   -0.285932
    11  C    0.238558
    12  C    0.083726
    13  N   -0.057166
    14  H    0.120500
    15  H    0.089964
    16  H    0.024699
    17  H    0.032058
    18  H    0.012813
    19  N   -0.311580
    20  C    0.260013
    21  C    0.181974
    22  N   -0.123976
    23  H    0.118597
    24  H    0.119633
    25  N   -0.312526
    26  C    0.251863
    27  N   -0.147816
    28  H    0.120657
    29  C    0.194737
    30  O   -0.319027
    31  C   -0.015346
    32  N   -0.218264
    33  C    0.111606
    34  H    0.023993
    35  H    0.023056
    36  H    0.032572
    37  H    0.026422
    38  H    0.056461
    39  H    0.056970
    40  H    0.074370
    41  H    0.013164
    42  C   -0.105333
    43  O   -0.279672
    44  C    0.173378
    45  H    0.130713
    46  N   -0.118774
    47  O   -0.354239
    48  C    0.345068
    49  H    0.044403
    50  C    0.162513
    51  C    0.045467
    52  N   -0.276626
    53  H    0.034850
    54  H    0.042780
    55  H    0.028554
    56  H    0.125325
    57  H    0.116080
    58  N   -0.047365
    59  C    0.078073
    60  C    0.234843
    61  N   -0.265380
    62  H    0.034158
    63  C    0.168080
    64  N   -0.306955
    65  H    0.039174
    66  C    0.138217
    67  N   -0.261084
    68  C    0.033018
    69  C    0.179433
    70  N   -0.311632
 Sum of Mulliken charges =  -0.00000

 Dipole moment (field-independent basis, Debye):
    X=             -5.8862    Y=              6.1435    Z=             -5.2387  Tot=              9.9917
 Quadrupole moment (field-independent basis, Debye-Ang):
   XX=           -148.0945   YY=           -227.9104   ZZ=           -253.0006
   XY=             -9.5200   XZ=             -4.8085   YZ=             -9.0498

 Normal termination of Gaussian 16 at Sat Jan 20 01:52:01 2018.
