 Gaussian 16, Revision A.03,
 Gaussian 16:  EM64L-G16RevA.03 25-Dec-2016

 ---------------------------------------
 #p wb97xd/cc-pvdz sp scf=(maxcycles=20)
 ---------------------------------------

 ------------------
 Base pair stacking
 ------------------
 Symbolic Z-matrix:
 Charge =  0 Multiplicity = 1

                         Standard orientation:
 ---------------------------------------------------------------------
 Center     Atomic      Atomic             Coordinates (Angstroms)
 Number     Number       Type             X           Y           Z
 ---------------------------------------------------------------------
      1          7           0        4.317090    0.715270    1.884552
      2          6           0        5.638820    0.059705    1.920509
      3          6           0        2.152960    1.087609    1.761214
      4          7           0        2.751961    2.328990    1.918997
      5          6           0        4.031795    2.054987    1.986983
      6          1           0        4.819228    2.798679    2.112714
      7          7           0        0.552470   -0.623054    1.487355
      8          6           0        1.579733   -1.478791    1.483453
      9          1           0        1.310663   -2.527795    1.367391
     10          7           0        2.883342   -1.234437    1.600847
     11          6           0        3.104989    0.083298    1.738173
     12          6           0        0.808476    0.696018    1.627305
     13          7           0       -0.215639    1.551792    1.631432
     14          1           0       -0.072842    2.536998    1.732440
     15          1           0       -1.159994    1.237487    1.533761
     16          1           0        6.086515    0.256728    2.792820
     17          1           0        5.524466   -0.928324    1.821313
     18          1           0        6.204871    0.404857    1.171875
     19          7           0        5.769917   -0.879309   -0.773922
     20          6           0        4.408329   -1.044102   -0.857347
     21          6           0        6.740119   -1.943297   -0.446321
     22          7           0        1.606910   -3.085597   -0.642616
     23          1           0        0.617426   -2.994066   -0.751195
     24          1           0        1.955348   -3.992904   -0.405755
     25          7           0        3.733418   -2.196446   -0.655699
     26          6           0        2.430341   -2.039260   -0.807025
     27          7           0        1.831983   -0.845728   -1.131023
     28          1           0        0.828411   -0.818604   -1.226245
     29          6           0        2.506705    0.352452   -1.343098
     30          8           0        1.871431    1.374237   -1.631386
     31          6           0        3.907476    0.199367   -1.184036
     32          7           0        4.933974    1.126179   -1.303293
     33          6           0        6.017534    0.442809   -1.052031
     34          1           0        7.026927    0.855574   -1.056134
     35          1           0        7.241723   -1.695815    0.381911
     36          1           0        6.251725   -2.801661   -0.294840
     37          1           0        7.382437   -2.055702   -1.203687
     38          1           0       -4.232373   -1.202965   -0.920435
     39          1           0       -4.121883   -1.315572   -2.675359
     40          1           0       -2.818193   -1.946076   -1.668281
     41          1           0       -3.580773    3.425343   -2.060951
     42          6           0       -2.997797    2.509239   -1.965470
     43          8           0       -0.906821    3.627882   -1.905610
     44          6           0       -1.571687    2.592438   -1.881021
     45          1           0        0.077158    1.393702   -1.700299
     46          7           0       -0.931070    1.375547   -1.762612
     47          8           0       -0.861624   -0.889389   -1.612903
     48          6           0       -1.514313    0.133962   -1.719661
     49          1           0       -4.676677    1.195201   -1.986846
     50          6           0       -3.595532    1.312666   -1.926320
     51          6           0       -3.560348   -1.167620   -1.764955
     52          7           0       -2.892588    0.136269   -1.806580
     53          1           0       -6.702164   -3.730322    0.856844
     54          1           0       -5.341136   -3.615193   -0.035600
     55          1           0       -6.788523   -3.270369   -0.706612
     56          1           0       -3.611425    2.950098    1.797571
     57          1           0       -5.299128    2.702326    1.817338
     58          7           0       -4.383936    2.330505    1.657970
     59          6           0       -4.202823    1.064538    1.276269
     60          6           0       -4.908941   -1.125822    0.671750
     61          7           0       -3.668450   -1.597959    0.465091
     62          1           0       -1.726408   -0.948354    0.549376
     63          6           0       -2.763434   -0.648580    0.694265
     64          7           0       -2.942829    0.619960    1.076632
     65          1           0       -8.137432   -1.185727    0.831159
     66          6           0       -7.083223   -0.908186    0.854867
     67          7           0       -6.632273    0.278997    1.178775
     68          6           0       -5.255051    0.154690    1.066766
     69          6           0       -6.243529   -3.218617    0.130334
     70          7           0       -6.095057   -1.807608    0.536564
 ---------------------------------------------------------------------

 SCF Done:  E(RwB97XD) =  -2048.63731561     A.U. after   15 cycles

 The electronic state is 1-A.
 Alpha  occ. eigenvalues --  -19.24838 -19.21107 -19.20617 -14.53345 -14.51213
 Alpha  occ. eigenvalues --  -14.49441 -14.48750 -14.48737 -14.46945 -14.46634
 Alpha  occ. eigenvalues --  -14.46610 -14.45979 -14.45041 -14.44894 -14.43272
 Alpha  occ. eigenvalues --  -14.41864 -14.41650 -14.41377 -14.41094 -14.40950
 Alpha  occ. eigenvalues --  -10.44409 -10.41079 -10.40620 -10.39195 -10.38500
 Alpha  occ. eigenvalues --  -10.38342 -10.37794 -10.36678 -10.36149 -10.36130
 Alpha  occ. eigenvalues --  -10.34682 -10.34558 -10.34188 -10.34144 -10.33705
 Alpha  occ. eigenvalues --  -10.33530 -10.33179 -10.31850 -10.31243 -10.30734
 Alpha  occ. eigenvalues --  -10.30184 -10.28934 -10.28561  -1.18511  -1.16146
 Alpha  occ. eigenvalues --   -1.13549  -1.12112  -1.11447  -1.11210  -1.10366
 Alpha  occ. eigenvalues --   -1.08850  -1.08143  -1.06235  -1.05674  -1.01641
 Alpha  occ. eigenvalues --   -1.01457  -1.01198  -0.99974  -0.98812  -0.98235
 Alpha  occ. eigenvalues --   -0.97210  -0.97122  -0.93420  -0.89942  -0.88455
 Alpha  occ. eigenvalues --   -0.86585  -0.84943  -0.84169  -0.83202  -0.82621
 Alpha  occ. eigenvalues --   -0.82031  -0.77912  -0.77676  -0.76040  -0.75109
 Alpha  occ. eigenvalues --   -0.73855  -0.73400  -0.72359  -0.71701  -0.71187
 Alpha  occ. eigenvalues --   -0.67727  -0.67665  -0.66866  -0.65645  -0.64939
 Alpha  occ. eigenvalues --   -0.64698  -0.63571  -0.63362  -0.62769  -0.62126
 Alpha  occ. eigenvalues --   -0.61764  -0.61359  -0.61114  -0.60320  -0.59239
 Alpha  occ. eigenvalues --   -0.59143  -0.58721  -0.58429  -0.57346  -0.56295
 Alpha  occ. eigenvalues --   -0.56085  -0.55681  -0.55570  -0.55167  -0.54688
 Alpha  occ. eigenvalues --   -0.54357  -0.54192  -0.53647  -0.53209  -0.52761
 Alpha  occ. eigenvalues --   -0.52354  -0.51873  -0.51197  -0.50973  -0.50772
 Alpha  occ. eigenvalues --   -0.50450  -0.50030  -0.49697  -0.49468  -0.49284
 Alpha  occ. eigenvalues --   -0.48494  -0.48478  -0.47883  -0.47275  -0.47137
 Alpha  occ. eigenvalues --   -0.46919  -0.45605  -0.45356  -0.44220  -0.42031
 Alpha  occ. eigenvalues --   -0.40799  -0.40582  -0.39410  -0.38757  -0.38219
 Alpha  occ. eigenvalues --   -0.38102  -0.37228  -0.36408  -0.35523  -0.35100
 Alpha  occ. eigenvalues --   -0.34375  -0.34302  -0.34191  -0.33506  -0.33129
 Alpha  occ. eigenvalues --   -0.32410  -0.32315  -0.31931  -0.31198  -0.30732
 Alpha  occ. eigenvalues --   -0.30467  -0.29904  -0.27023  -0.24769
 Alpha virt. eigenvalues --    0.02601   0.04667   0.06000   0.07070   0.08309
 Alpha virt. eigenvalues --    0.08725   0.09273   0.09742   0.11079   0.12668
 Alpha virt. eigenvalues --    0.13079   0.13402   0.14135   0.14462   0.14623

 Mulliken charges:
               1
     1  N   -0.294711
     2  C    0.207543
     3  C    0.065957
     4  N   -0.256148
     5  C    0.148953
     6  H    0.028827
     7  N   -0.272012
     8  C    0.119073
     9  H    0.001164
    10  N   -0.264709
    11  C    0.213135
    12  C    0.072297
    13  N   -0.061534
    14  H    0.112013
    15  H    0.083111
    16  H    0.022280
    17  H    0.026706
    18  H    0.001800
    19  N   -0.294843
    20  C    0.205207
    21  C    0.179888
    22  N   -0.086603
    23  H    0.124189
    24  H    0.120456
    25  N   -0.244360
    26  C    0.127154
    27  N   -0.092787
    28  H    0.123404
    29  C    0.169336
    30  O   -0.317853
    31  C    0.016995
    32  N   -0.209238
    33  C    0.083433
    34  H    0.027499
    35  H    0.014224
    36  H    0.035909
    37  H    0.030407
    38  H    0.036371
    39  H    0.022391
    40  H    0.066319
    41  H    0.022945
    42  C   -0.101954
    43  O   -0.268401
    44  C    0.175824
    45  H    0.132340
    46  N   -0.124119
    47  O   -0.341080
    48  C    0.325064
    49  H    0.046625
    50  C    0.161246
    51  C    0.097681
    52  N   -0.275039
    53  H    0.036979
    54  H    0.041826
    55  H    0.033481
    56  H    0.121251
    57  H    0.121050
    58  N   -0.063158
    59  C    0.102972
    60  C    0.226126
    61  N   -0.278045
    62  H    0.045601
    63  C    0.130826
    64  N   -0.300742
    65  H    0.041256
    66  C    0.141517
    67  N   -0.255303
    68  C    0.040773
    69  C    0.179864
    70  N   -0.308651
 Sum of Mulliken charges =  -0.00000

 Dipole moment (field-independent basis, Debye):
    X=             -6.2176    Y=             -7.9239    Z=              2.1571  Tot=             10.3005
 Quadrupole moment (field-independent basis, Debye-Ang):
   XX=           -148.9522   YY=           -236.0419   ZZ=           -253.1014
   XY=             -2.2728   XZ=             13.9570   YZ=             18.6989

 Normal termination of Gaussian 16 at Sat Jan 20 02:17:05 2018.
