 Gaussian 16, Revision A.03,
 Gaussian 16:  EM64L-G16RevA.03 25-Dec-2016

 ---------------------------------------
 #p wb97xd/cc-pvdz sp scf=(maxcycles=20)
 ---------------------------------------

 ------------------
 Base pair stacking
 ------------------
 Symbolic Z-matrix:
 Charge =  0 Multiplicity = 1

                         Standard orientation:
 ---------------------------------------------------------------------
 Center     Atomic      Atomic             Coordinates (Angstroms)
 Number     Number       Type             X           Y           Z
 ---------------------------------------------------------------------
      1          7           0        4.868693   -1.124682   -1.637956
      2          6           0        6.189027   -0.493008   -1.826972
      3          6           0        2.703219   -1.468237   -1.464675
      4          7           0        3.309519   -2.697731   -1.251418
      5          6           0        4.589866   -2.441538   -1.364346
      6          1           0        5.382328   -3.182717   -1.256572
      7          7           0        1.091509    0.234371   -1.722410
      8          6           0        2.115901    1.066426   -1.936581
      9          1           0        1.841019    2.102821   -2.127849
     10          7           0        3.422735    0.811662   -1.949905
     11          6           0        3.651507   -0.489003   -1.704214
     12          6           0        1.354695   -1.067974   -1.478058
     13          7           0        0.333453   -1.900102   -1.264017
     14          1           0        0.481546   -2.872290   -1.079260
     15          1           0       -0.613951   -1.580276   -1.281040
     16          1           0        6.658955   -0.923896   -2.597468
     17          1           0        6.069399    0.481660   -2.013610
     18          1           0        6.737152   -0.607176   -0.998413
     19          7           0        5.243769    1.134538    0.968828
     20          6           0        3.881103    1.310946    0.977515
     21          6           0        6.233634    2.151368    0.560262
     22          7           0        1.104700    3.320305    0.415551
     23          1           0        0.111065    3.244172    0.493826
     24          1           0        1.468601    4.193397    0.089940
     25          7           0        3.222780    2.433807    0.617161
     26          6           0        1.913646    2.298097    0.732726
     27          7           0        1.294572    1.151346    1.167719
     28          1           0        0.287834    1.137672    1.224732
     29          6           0        1.951985   -0.015834    1.543693
     30          8           0        1.298638   -0.996044    1.921944
     31          6           0        3.359010    0.114675    1.424872
     32          7           0        4.373490   -0.794478    1.691680
     33          6           0        5.470915   -0.147162    1.407345
     34          1           0        6.476471   -0.558972    1.499887
     35          1           0        6.766189    1.808743   -0.212912
     36          1           0        5.757627    2.987595    0.291151
     37          1           0        6.845939    2.349053    1.324984
     38          1           0       -4.753904    1.495587    0.672026
     39          1           0       -4.712842    1.809893    2.405280
     40          1           0       -3.365622    2.316900    1.385805
     41          1           0       -4.180445   -2.971464    2.364118
     42          6           0       -3.587788   -2.073846    2.187299
     43          8           0       -1.503883   -3.196642    2.341537
     44          6           0       -2.160058   -2.169466    2.170816
     45          1           0       -0.497050   -1.003369    1.919955
     46          7           0       -1.506812   -0.975851    1.938882
     47          8           0       -1.415767    1.256470    1.531916
     48          6           0       -2.079270    0.253774    1.729467
     49          1           0       -5.257055   -0.762335    1.989015
     50          6           0       -4.175189   -0.888454    1.986247
     51          6           0       -4.116419    1.556501    1.541486
     52          7           0       -3.459898    0.264646    1.760198
     53          1           0       -6.185470    3.321957   -2.163774
     54          1           0       -4.846873    3.476830   -1.243845
     55          1           0       -6.309597    3.321310   -0.536502
     56          1           0       -3.053113   -3.321635   -1.107093
     57          1           0       -4.740491   -3.106083   -1.235177
     58          7           0       -3.830637   -2.695444   -1.166163
     59          6           0       -3.662741   -1.371508   -1.153529
     60          6           0       -4.390006    0.893390   -1.208932
     61          7           0       -3.156435    1.416809   -1.115354
     62          1           0       -1.211053    0.788902   -0.967649
     63          6           0       -2.243257    0.450271   -1.045965
     64          7           0       -2.409409   -0.876315   -1.058452
     65          1           0       -7.613661    0.874199   -1.453601
     66          6           0       -6.558399    0.611610   -1.373486
     67          7           0       -6.096100   -0.614240   -1.338289
     68          6           0       -4.722479   -0.449874   -1.234054
     69          6           0       -5.743699    3.040709   -1.311873
     70          7           0       -5.581088    1.573940   -1.299396
 ---------------------------------------------------------------------

 SCF Done:  E(RwB97XD) =  -2048.73491373     A.U. after   15 cycles

 The electronic state is 1-A.
 Alpha  occ. eigenvalues --  -19.25116 -19.21399 -19.20616 -14.52899 -14.51660
 Alpha  occ. eigenvalues --  -14.49169 -14.48893 -14.48432 -14.47151 -14.46597
 Alpha  occ. eigenvalues --  -14.46594 -14.45780 -14.44703 -14.44611 -14.42925
 Alpha  occ. eigenvalues --  -14.41759 -14.41349 -14.41340 -14.41290 -14.40869
 Alpha  occ. eigenvalues --  -10.44743 -10.41007 -10.40361 -10.39485 -10.38331
 Alpha  occ. eigenvalues --  -10.38222 -10.37573 -10.37031 -10.36260 -10.35941
 Alpha  occ. eigenvalues --  -10.34445 -10.34384 -10.34114 -10.33792 -10.33738
 Alpha  occ. eigenvalues --  -10.33623 -10.33492 -10.33065 -10.31458 -10.31331
 Alpha  occ. eigenvalues --  -10.30390 -10.28752 -10.28285  -1.18803  -1.15774
 Alpha  occ. eigenvalues --   -1.13212  -1.12405  -1.11477  -1.10813  -1.09729
 Alpha  occ. eigenvalues --   -1.08607  -1.08468  -1.05560  -1.05228  -1.01792
 Alpha  occ. eigenvalues --   -1.01409  -1.00940  -0.99645  -0.98529  -0.97379
 Alpha  occ. eigenvalues --   -0.97114  -0.96807  -0.93250  -0.90292  -0.88125
 Alpha  occ. eigenvalues --   -0.86355  -0.84533  -0.84074  -0.82963  -0.82759
 Alpha  occ. eigenvalues --   -0.82606  -0.78162  -0.77461  -0.75313  -0.74768
 Alpha  occ. eigenvalues --   -0.73612  -0.73239  -0.72670  -0.71452  -0.70804
 Alpha  occ. eigenvalues --   -0.67421  -0.67192  -0.66678  -0.65919  -0.64644
 Alpha  occ. eigenvalues --   -0.64398  -0.63493  -0.63147  -0.62578  -0.61855
 Alpha  occ. eigenvalues --   -0.61741  -0.60957  -0.60783  -0.59914  -0.58934
 Alpha  occ. eigenvalues --   -0.58691  -0.58404  -0.58149  -0.56985  -0.56092
 Alpha  occ. eigenvalues --   -0.55697  -0.55646  -0.55535  -0.54432  -0.54291
 Alpha  occ. eigenvalues --   -0.54121  -0.53954  -0.53323  -0.53206  -0.52972
 Alpha  occ. eigenvalues --   -0.52725  -0.52073  -0.51585  -0.50855  -0.50472
 Alpha  occ. eigenvalues --   -0.50292  -0.50128  -0.49343  -0.49254  -0.48981
 Alpha  occ. eigenvalues --   -0.48587  -0.48286  -0.48135  -0.47915  -0.47316
 Alpha  occ. eigenvalues --   -0.47061  -0.45914  -0.45415  -0.44965  -0.42429
 Alpha  occ. eigenvalues --   -0.41376  -0.41071  -0.38856  -0.38051  -0.37881
 Alpha  occ. eigenvalues --   -0.37777  -0.37178  -0.36857  -0.35822  -0.35031
 Alpha  occ. eigenvalues --   -0.34609  -0.34295  -0.33818  -0.33479  -0.32950
 Alpha  occ. eigenvalues --   -0.32829  -0.32481  -0.31897  -0.31173  -0.31022
 Alpha  occ. eigenvalues --   -0.30643  -0.30419  -0.26688  -0.24988
 Alpha virt. eigenvalues --    0.03471   0.03825   0.06712   0.07079   0.08410
 Alpha virt. eigenvalues --    0.09072   0.09774   0.10019   0.11139   0.12712
 Alpha virt. eigenvalues --    0.12993   0.13459   0.14095   0.14427   0.14669

 Mulliken charges:
               1
     1  N   -0.297441
     2  C    0.179292
     3  C    0.068786
     4  N   -0.252977
     5  C    0.145161
     6  H    0.026344
     7  N   -0.283107
     8  C    0.131608
     9  H    0.004972
    10  N   -0.269729
    11  C    0.224448
    12  C    0.069976
    13  N   -0.050815
    14  H    0.113023
    15  H    0.084335
    16  H    0.027629
    17  H    0.037140
    18  H    0.007820
    19  N   -0.297446
    20  C    0.246882
    21  C    0.188787
    22  N   -0.109167
    23  H    0.120696
    24  H    0.118364
    25  N   -0.279819
    26  C    0.188426
    27  N   -0.113806
    28  H    0.119239
    29  C    0.170399
    30  O   -0.319874
    31  C   -0.002628
    32  N   -0.212218
    33  C    0.097331
    34  H    0.026384
    35  H    0.005270
    36  H    0.034481
    37  H    0.025371
    38  H    0.041592
    39  H    0.048025
    40  H    0.077570
    41  H    0.022230
    42  C   -0.099647
    43  O   -0.270476
    44  C    0.171792
    45  H    0.129289
    46  N   -0.113509
    47  O   -0.344759
    48  C    0.322905
    49  H    0.045135
    50  C    0.159049
    51  C    0.061624
    52  N   -0.274401
    53  H    0.037584
    54  H    0.042067
    55  H    0.029902
    56  H    0.124160
    57  H    0.119287
    58  N   -0.058595
    59  C    0.103573
    60  C    0.184533
    61  N   -0.258796
    62  H    0.018186
    63  C    0.177809
    64  N   -0.307530
    65  H    0.037575
    66  C    0.130679
    67  N   -0.251680
    68  C    0.046842
    69  C    0.177955
    70  N   -0.303104
 Sum of Mulliken charges =  -0.00000

 Dipole moment (field-independent basis, Debye):
    X=             -5.9129    Y=              7.2664    Z=             -3.0071  Tot=              9.8390
 Quadrupole moment (field-independent basis, Debye-Ang):
   XX=           -149.1091   YY=           -229.1358   ZZ=           -258.0261
   XY=             -5.1919   XZ=             -8.1333   YZ=             13.8688

 Normal termination of Gaussian 16 at Fri Jan 19 15:45:09 2018.
