 Gaussian 16, Revision A.03,
 Gaussian 16:  EM64L-G16RevA.03 25-Dec-2016

 ---------------------------------------
 #p wb97xd/cc-pvdz sp scf=(maxcycles=20)
 ---------------------------------------

 ------------------
 Base pair stacking
 ------------------
 Symbolic Z-matrix:
 Charge =  0 Multiplicity = 1

                         Standard orientation:
 ---------------------------------------------------------------------
 Center     Atomic      Atomic             Coordinates (Angstroms)
 Number     Number       Type             X           Y           Z
 ---------------------------------------------------------------------
      1          7           0       -6.328334   -1.117818    0.620713
      2          6           0       -7.636847   -0.455437    0.785163
      3          6           0       -4.174386   -1.562022    0.643755
      4          7           0       -4.792498   -2.667110    0.076792
      5          6           0       -6.065425   -2.355266    0.085601
      6          1           0       -6.863501   -2.996697   -0.289366
      7          7           0       -2.549030   -0.076459    1.488892
      8          6           0       -3.560383    0.754600    1.761073
      9          1           0       -3.274702    1.699827    2.220628
     10          7           0       -4.865506    0.594110    1.551785
     11          6           0       -5.108231   -0.598874    0.984077
     12          6           0       -2.826065   -1.269015    0.917799
     13          7           0       -1.817863   -2.099962    0.645345
     14          1           0       -1.976462   -2.993000    0.222789
     15          1           0       -0.870173   -1.858298    0.854205
     16          1           0       -8.224261   -1.015294    1.369685
     17          1           0       -7.506587    0.441549    1.206554
     18          1           0       -8.070091   -0.342042   -0.108950
     19          7           0       -3.729302    1.723442   -1.328286
     20          6           0       -2.372219    1.805839   -1.129310
     21          6           0       -4.716821    2.737976   -0.908516
     22          7           0        0.390334    3.521952    0.089284
     23          1           0        1.380210    3.389886    0.133453
     24          1           0        0.026555    4.363418    0.489669
     25          7           0       -1.718150    2.819322   -0.521770
     26          6           0       -0.413919    2.612104   -0.481023
     27          7           0        0.204444    1.498268   -0.995320
     28          1           0        1.207282    1.424008   -0.919286
     29          6           0       -0.448645    0.443138   -1.624620
     30          8           0        0.203612   -0.516512   -2.054008
     31          6           0       -1.850377    0.651439   -1.675973
     32          7           0       -2.859533   -0.139778   -2.207462
     33          6           0       -3.953647    0.534600   -1.978660
     34          1           0       -4.954657    0.209518   -2.264294
     35          1           0       -5.369352    2.327305   -0.272633
     36          1           0       -4.243932    3.493623   -0.457243
     37          1           0       -5.204469    3.082494   -1.709968
     38          1           0        6.131357    1.355554    0.346214
     39          1           0        6.351249    1.912328   -1.310989
     40          1           0        4.899333    2.361877   -0.415882
     41          1           0        5.588395   -2.779752   -2.051927
     42          6           0        5.020675   -1.877514   -1.824123
     43          8           0        2.927880   -2.822540   -2.419318
     44          6           0        3.602044   -1.876784   -2.012110
     45          1           0        1.978475   -0.646658   -1.814250
     46          7           0        2.980884   -0.685787   -1.694392
     47          8           0        2.940938    1.468166   -0.976015
     48          6           0        3.576570    0.460218   -1.230309
     49          1           0        6.706361   -0.723978   -1.212882
     50          6           0        5.630183   -0.775046   -1.372834
     51          6           0        5.627049    1.581418   -0.581537
     52          7           0        4.946556    0.380985   -1.075151
     53          1           0        4.711827    2.323133    3.539338
     54          1           0        3.519057    2.773091    2.521037
     55          1           0        5.057926    2.680350    1.984976
     56          1           0        1.501042   -3.679704    0.585975
     57          1           0        3.161905   -3.615412    0.970002
     58          7           0        2.286597   -3.138035    0.885382
     59          6           0        2.173030   -1.836917    1.159863
     60          6           0        2.972339    0.301661    1.830182
     61          7           0        1.784305    0.916485    1.707713
     62          1           0       -0.145104    0.473648    1.176776
     63          6           0        0.852812    0.055727    1.302353
     64          7           0        0.964575   -1.247819    1.026915
     65          1           0        6.128789    0.005634    2.463690
     66          6           0        5.085194   -0.158769    2.193829
     67          7           0        4.585329   -1.310341    1.817429
     68          6           0        3.246333   -1.032406    1.583792
     69          6           0        4.380628    2.272078    2.597159
     70          7           0        4.165009    0.860574    2.224078
 ---------------------------------------------------------------------

 SCF Done:  E(RwB97XD) =  -2048.75126995     A.U. after   15 cycles

 The electronic state is 1-A.
 Alpha  occ. eigenvalues --  -19.25708 -19.21841 -19.20506 -14.52401 -14.52015
 Alpha  occ. eigenvalues --  -14.49608 -14.48391 -14.47685 -14.47214 -14.46636
 Alpha  occ. eigenvalues --  -14.46312 -14.44944 -14.43593 -14.43509 -14.42918
 Alpha  occ. eigenvalues --  -14.42139 -14.41782 -14.41778 -14.40917 -14.40559
 Alpha  occ. eigenvalues --  -10.45364 -10.40937 -10.39943 -10.39185 -10.38021
 Alpha  occ. eigenvalues --  -10.37545 -10.37492 -10.36603 -10.36161 -10.35695
 Alpha  occ. eigenvalues --  -10.35156 -10.34811 -10.34132 -10.34010 -10.33864
 Alpha  occ. eigenvalues --  -10.33787 -10.33082 -10.31973 -10.31826 -10.30776
 Alpha  occ. eigenvalues --  -10.29955 -10.29278 -10.27792  -1.19369  -1.14690
 Alpha  occ. eigenvalues --   -1.13021  -1.12862  -1.12153  -1.10313  -1.09250
 Alpha  occ. eigenvalues --   -1.08492  -1.08332  -1.05763  -1.04030  -1.02389
 Alpha  occ. eigenvalues --   -1.01205  -1.00457  -0.99443  -0.98306  -0.97730
 Alpha  occ. eigenvalues --   -0.96198  -0.96090  -0.93423  -0.90850  -0.87166
 Alpha  occ. eigenvalues --   -0.85587  -0.84734  -0.83888  -0.83705  -0.83098
 Alpha  occ. eigenvalues --   -0.81927  -0.78724  -0.76450  -0.74381  -0.74184
 Alpha  occ. eigenvalues --   -0.73639  -0.73411  -0.73219  -0.71812  -0.69828
 Alpha  occ. eigenvalues --   -0.67119  -0.67041  -0.66411  -0.66149  -0.64347
 Alpha  occ. eigenvalues --   -0.63729  -0.63476  -0.63394  -0.62475  -0.61468
 Alpha  occ. eigenvalues --   -0.61242  -0.60937  -0.60024  -0.59358  -0.59048
 Alpha  occ. eigenvalues --   -0.58115  -0.58035  -0.57460  -0.57268  -0.56315
 Alpha  occ. eigenvalues --   -0.56055  -0.55810  -0.54944  -0.54887  -0.54238
 Alpha  occ. eigenvalues --   -0.53859  -0.53326  -0.52998  -0.52745  -0.52569
 Alpha  occ. eigenvalues --   -0.52439  -0.52380  -0.52210  -0.51413  -0.50936
 Alpha  occ. eigenvalues --   -0.49865  -0.49831  -0.49326  -0.49117  -0.48905
 Alpha  occ. eigenvalues --   -0.48506  -0.48261  -0.47996  -0.47674  -0.47332
 Alpha  occ. eigenvalues --   -0.47209  -0.45571  -0.45366  -0.44246  -0.43410
 Alpha  occ. eigenvalues --   -0.41915  -0.40207  -0.39333  -0.37953  -0.37235
 Alpha  occ. eigenvalues --   -0.37169  -0.37029  -0.36943  -0.35748  -0.34442
 Alpha  occ. eigenvalues --   -0.34261  -0.33999  -0.33724  -0.33602  -0.33041
 Alpha  occ. eigenvalues --   -0.32496  -0.32026  -0.31733  -0.31665  -0.31606
 Alpha  occ. eigenvalues --   -0.31162  -0.29139  -0.26540  -0.25079
 Alpha virt. eigenvalues --    0.03155   0.04679   0.07158   0.07779   0.08333
 Alpha virt. eigenvalues --    0.08963   0.09995   0.10327   0.10975   0.11835
 Alpha virt. eigenvalues --    0.13165   0.13414   0.14371   0.14520   0.14912

 Mulliken charges:
               1
     1  N   -0.310084
     2  C    0.178445
     3  C    0.059899
     4  N   -0.252087
     5  C    0.128189
     6  H    0.028477
     7  N   -0.279741
     8  C    0.134040
     9  H    0.015927
    10  N   -0.290475
    11  C    0.229016
    12  C    0.096854
    13  N   -0.042736
    14  H    0.110127
    15  H    0.090167
    16  H    0.029049
    17  H    0.036025
    18  H    0.024156
    19  N   -0.292409
    20  C    0.243148
    21  C    0.183300
    22  N   -0.108730
    23  H    0.113409
    24  H    0.115096
    25  N   -0.299964
    26  C    0.220463
    27  N   -0.141571
    28  H    0.128537
    29  C    0.161646
    30  O   -0.324279
    31  C   -0.000283
    32  N   -0.221740
    33  C    0.123014
    34  H    0.020789
    35  H    0.018591
    36  H    0.026200
    37  H    0.019107
    38  H    0.037074
    39  H    0.063756
    40  H    0.077286
    41  H    0.027622
    42  C   -0.098901
    43  O   -0.269897
    44  C    0.169656
    45  H    0.133955
    46  N   -0.124660
    47  O   -0.340064
    48  C    0.337784
    49  H    0.043724
    50  C    0.177325
    51  C    0.041040
    52  N   -0.277656
    53  H    0.034625
    54  H    0.037747
    55  H    0.010163
    56  H    0.122887
    57  H    0.119473
    58  N   -0.052914
    59  C    0.114791
    60  C    0.228422
    61  N   -0.273560
    62  H    0.037575
    63  C    0.155235
    64  N   -0.304242
    65  H    0.036148
    66  C    0.108451
    67  N   -0.243942
    68  C    0.014074
    69  C    0.183852
    70  N   -0.296398
 Sum of Mulliken charges =  -0.00000

 Dipole moment (field-independent basis, Debye):
    X=              5.4256    Y=              5.8194    Z=              4.3272  Tot=              9.0569
 Quadrupole moment (field-independent basis, Debye-Ang):
   XX=           -144.0482   YY=           -225.6640   ZZ=           -259.8094
   XY=             12.8763   XZ=             10.9820   YZ=             -5.5509

 Normal termination of Gaussian 16 at Sat Jan 20 04:05:45 2018.
