 Gaussian 16, Revision A.03,
 Gaussian 16:  EM64L-G16RevA.03 25-Dec-2016

 ---------------------------------------
 #p wb97xd/cc-pvdz sp scf=(maxcycles=20)
 ---------------------------------------

 ------------------
 Base pair stacking
 ------------------
 Symbolic Z-matrix:
 Charge =  0 Multiplicity = 1

                         Standard orientation:
 ---------------------------------------------------------------------
 Center     Atomic      Atomic             Coordinates (Angstroms)
 Number     Number       Type             X           Y           Z
 ---------------------------------------------------------------------
      1          7           0       -7.146678   -0.874897    0.163000
      2          6           0       -8.444830   -0.194039    0.333934
      3          6           0       -5.008583   -1.384379    0.242373
      4          7           0       -5.624421   -2.404233   -0.468530
      5          6           0       -6.887895   -2.056471   -0.487888
      6          1           0       -7.681584   -2.630214   -0.967292
      7          7           0       -3.391811   -0.046332    1.318778
      8          6           0       -4.394572    0.781792    1.629034
      9          1           0       -4.109139    1.664183    2.200170
     10          7           0       -5.690890    0.684042    1.341083
     11          6           0       -5.934129   -0.434515    0.638161
     12          6           0       -3.669124   -1.163049    0.610880
     13          7           0       -2.669492   -1.990940    0.300201
     14          1           0       -2.828637   -2.829216   -0.222471
     15          1           0       -1.727963   -1.801582    0.579157
     16          1           0       -9.075298   -0.794272    0.826296
     17          1           0       -8.313826    0.649142    0.854501
     18          1           0       -8.828738    0.026111   -0.562816
     19          7           0       -2.786074    1.955301   -1.475104
     20          6           0       -1.437786    1.978299   -1.211198
     21          6           0       -3.734297    3.045610   -1.170490
     22          7           0        1.354277    3.620387    0.041678
     23          1           0        2.331850    3.439168    0.145350
     24          1           0        1.019278    4.503933    0.370080
     25          7           0       -0.758145    2.992638   -0.633923
     26          6           0        0.528868    2.719668   -0.512682
     27          7           0        1.107981    1.543893   -0.924612
     28          1           0        2.100182    1.421649   -0.792072
     29          6           0        0.428031    0.486590   -1.520974
     30          8           0        1.045477   -0.531866   -1.856006
     31          6           0       -0.955631    0.765140   -1.657940
     32          7           0       -1.980595   -0.004013   -2.191569
     33          6           0       -3.044940    0.740685   -2.061925
     34          1           0       -4.047548    0.451418   -2.378737
     35          1           0       -4.439005    2.711780   -0.545383
     36          1           0       -3.242221    3.802561   -0.742538
     37          1           0       -4.162292    3.363271   -2.015904
     38          1           0        6.945295    1.173856    0.729812
     39          1           0        7.276402    1.610576   -0.944780
     40          1           0        5.810230    2.192998   -0.155813
     41          1           0        6.288198   -3.072398   -1.434465
     42          6           0        5.761635   -2.128588   -1.292447
     43          8           0        3.650484   -2.997691   -1.936515
     44          6           0        4.356104   -2.064767   -1.553701
     45          1           0        2.796470   -0.740192   -1.516644
     46          7           0        3.788090   -0.824594   -1.342585
     47          8           0        3.834277    1.370155   -0.761087
     48          6           0        4.423930    0.315693   -0.919493
     49          1           0        7.477726   -1.029089   -0.666389
     50          6           0        6.409432   -1.033244   -0.878699
     51          6           0        6.500160    1.366042   -0.235060
     52          7           0        5.778144    0.174124   -0.688656
     53          1           0        3.812513    1.901720    3.961695
     54          1           0        2.685131    2.492600    2.940922
     55          1           0        4.246622    2.410120    2.472899
     56          1           0        0.607357   -3.655855    0.232653
     57          1           0        2.247470   -3.682967    0.701042
     58          7           0        1.389902   -3.172921    0.625753
     59          6           0        1.295164   -1.905130    1.031822
     60          6           0        2.112581    0.125551    1.964500
     61          7           0        0.948209    0.785725    1.851212
     62          1           0       -0.961998    0.460221    1.183552
     63          6           0        0.017369    0.001230    1.311773
     64          7           0        0.110288   -1.268814    0.904403
     65          1           0        5.224028   -0.331500    2.714320
     66          6           0        4.191814   -0.434704    2.378405
     67          7           0        3.683086   -1.524449    1.857492
     68          6           0        2.365230   -1.182818    1.590539
     69          6           0        3.528827    1.960371    3.004576
     70          7           0        3.297190    0.603285    2.472908
 ---------------------------------------------------------------------

 SCF Done:  E(RwB97XD) =  -2048.74905912     A.U. after   15 cycles

 The electronic state is 1-A.
 Alpha  occ. eigenvalues --  -19.26091 -19.22032 -19.20645 -14.52578 -14.51114
 Alpha  occ. eigenvalues --  -14.49811 -14.48511 -14.47835 -14.46768 -14.46745
 Alpha  occ. eigenvalues --  -14.46011 -14.44058 -14.42866 -14.42544 -14.42541
 Alpha  occ. eigenvalues --  -14.42493 -14.42011 -14.41989 -14.41096 -14.40720
 Alpha  occ. eigenvalues --  -10.45629 -10.41172 -10.40113 -10.38244 -10.38095
 Alpha  occ. eigenvalues --  -10.37684 -10.36689 -10.36337 -10.35857 -10.35641
 Alpha  occ. eigenvalues --  -10.35125 -10.34452 -10.34269 -10.34185 -10.34064
 Alpha  occ. eigenvalues --  -10.33162 -10.33120 -10.31809 -10.31028 -10.31013
 Alpha  occ. eigenvalues --  -10.30312 -10.29621 -10.28068  -1.19614  -1.13784
 Alpha  occ. eigenvalues --   -1.13195  -1.13037  -1.12420  -1.10470  -1.09455
 Alpha  occ. eigenvalues --   -1.08563  -1.07432  -1.05964  -1.02983  -1.02517
 Alpha  occ. eigenvalues --   -1.01351  -0.99786  -0.99523  -0.98471  -0.97937
 Alpha  occ. eigenvalues --   -0.96380  -0.95076  -0.93571  -0.91031  -0.86243
 Alpha  occ. eigenvalues --   -0.84953  -0.84726  -0.84030  -0.83924  -0.83267
 Alpha  occ. eigenvalues --   -0.82186  -0.78906  -0.75483  -0.74519  -0.73844
 Alpha  occ. eigenvalues --   -0.73643  -0.73389  -0.73184  -0.72051  -0.68847
 Alpha  occ. eigenvalues --   -0.67351  -0.67228  -0.66594  -0.65155  -0.64474
 Alpha  occ. eigenvalues --   -0.63689  -0.63635  -0.62703  -0.62612  -0.61704
 Alpha  occ. eigenvalues --   -0.61028  -0.60194  -0.59546  -0.59047  -0.58521
 Alpha  occ. eigenvalues --   -0.58344  -0.58180  -0.57374  -0.57284  -0.56473
 Alpha  occ. eigenvalues --   -0.56145  -0.56069  -0.54520  -0.54434  -0.54101
 Alpha  occ. eigenvalues --   -0.53602  -0.53552  -0.52867  -0.52760  -0.52747
 Alpha  occ. eigenvalues --   -0.52357  -0.52011  -0.51704  -0.51427  -0.51067
 Alpha  occ. eigenvalues --   -0.50067  -0.49945  -0.49496  -0.48744  -0.48584
 Alpha  occ. eigenvalues --   -0.48469  -0.48194  -0.47899  -0.47749  -0.47637
 Alpha  occ. eigenvalues --   -0.47366  -0.45944  -0.45097  -0.44061  -0.43082
 Alpha  occ. eigenvalues --   -0.42133  -0.39624  -0.39315  -0.38177  -0.37246
 Alpha  occ. eigenvalues --   -0.37175  -0.36713  -0.35971  -0.35283  -0.34560
 Alpha  occ. eigenvalues --   -0.34493  -0.34461  -0.33245  -0.32970  -0.32847
 Alpha  occ. eigenvalues --   -0.32608  -0.32266  -0.31911  -0.31877  -0.31776
 Alpha  occ. eigenvalues --   -0.31258  -0.28149  -0.26696  -0.25424
 Alpha virt. eigenvalues --    0.03181   0.05289   0.06920   0.08266   0.08681
 Alpha virt. eigenvalues --    0.09137   0.09719   0.10050   0.10739   0.12151
 Alpha virt. eigenvalues --    0.12858   0.13130   0.14587   0.14724   0.15582

 Mulliken charges:
               1
     1  N   -0.310295
     2  C    0.180526
     3  C    0.034092
     4  N   -0.256155
     5  C    0.131948
     6  H    0.029744
     7  N   -0.275828
     8  C    0.126589
     9  H    0.019094
    10  N   -0.290436
    11  C    0.232945
    12  C    0.095716
    13  N   -0.037432
    14  H    0.107770
    15  H    0.089731
    16  H    0.028300
    17  H    0.035839
    18  H    0.026065
    19  N   -0.299742
    20  C    0.240517
    21  C    0.181766
    22  N   -0.114848
    23  H    0.110291
    24  H    0.117177
    25  N   -0.299940
    26  C    0.234754
    27  N   -0.121100
    28  H    0.119717
    29  C    0.146301
    30  O   -0.323470
    31  C    0.002040
    32  N   -0.225417
    33  C    0.122395
    34  H    0.029575
    35  H    0.026847
    36  H    0.026508
    37  H    0.021847
    38  H    0.052140
    39  H    0.064540
    40  H    0.075760
    41  H    0.030662
    42  C   -0.094952
    43  O   -0.274323
    44  C    0.184297
    45  H    0.134945
    46  N   -0.129487
    47  O   -0.351375
    48  C    0.349250
    49  H    0.045837
    50  C    0.169138
    51  C    0.035974
    52  N   -0.290384
    53  H    0.031685
    54  H    0.035607
    55  H    0.016894
    56  H    0.117665
    57  H    0.120455
    58  N   -0.051696
    59  C    0.129288
    60  C    0.232417
    61  N   -0.266564
    62  H    0.045999
    63  C    0.149676
    64  N   -0.302530
    65  H    0.024004
    66  C    0.115927
    67  N   -0.252009
    68  C    0.010867
    69  C    0.178012
    70  N   -0.301149
 Sum of Mulliken charges =  -0.00000

 Dipole moment (field-independent basis, Debye):
    X=              5.3777    Y=              5.8410    Z=              3.6738  Tot=              8.7483
 Quadrupole moment (field-independent basis, Debye-Ang):
   XX=           -138.1262   YY=           -226.8604   ZZ=           -254.8132
   XY=             15.0290   XZ=             21.0398   YZ=             -3.3079

 Normal termination of Gaussian 16 at Sat Jan 20 06:54:28 2018.
