 Gaussian 16, Revision A.03,
 Gaussian 16:  EM64L-G16RevA.03 25-Dec-2016

 ---------------------------------------
 #p wb97xd/cc-pvdz sp scf=(maxcycles=20)
 ---------------------------------------

 ------------------
 Base pair stacking
 ------------------
 Symbolic Z-matrix:
 Charge =  0 Multiplicity = 1

                         Standard orientation:
 ---------------------------------------------------------------------
 Center     Atomic      Atomic             Coordinates (Angstroms)
 Number     Number       Type             X           Y           Z
 ---------------------------------------------------------------------
      1          7           0       -6.863267   -0.928236    0.322803
      2          6           0       -8.158325   -0.225523    0.406589
      3          6           0       -4.725217   -1.427510    0.452327
      4          7           0       -5.350693   -2.538349   -0.094982
      5          6           0       -6.613755   -2.193101   -0.151107
      6          1           0       -7.413734   -2.828209   -0.532695
      7          7           0       -3.094231    0.048330    1.303638
      8          6           0       -4.092101    0.916137    1.500472
      9          1           0       -3.798822    1.871625    1.933246
     10          7           0       -5.391749    0.781510    1.244164
     11          6           0       -5.644709   -0.427011    0.715101
     12          6           0       -3.381321   -1.158993    0.769756
     13          7           0       -2.386584   -2.026617    0.572515
     14          1           0       -2.552968   -2.931790    0.179829
     15          1           0       -1.441658   -1.801541    0.810414
     16          1           0       -8.784111   -0.745275    0.988339
     17          1           0       -8.020100    0.684290    0.796796
     18          1           0       -8.552040   -0.137618   -0.508433
     19          7           0       -3.124283    1.768212   -1.465693
     20          6           0       -1.774497    1.823062   -1.214422
     21          6           0       -4.099140    2.824726   -1.127872
     22          7           0        0.983779    3.514673    0.047357
     23          1           0        1.967014    3.358585    0.137526
     24          1           0        0.627858    4.381136    0.398457
     25          7           0       -1.117289    2.843133   -0.621467
     26          6           0        0.177967    2.603592   -0.518766
     27          7           0        0.785133    1.453710   -0.962193
     28          1           0        1.781652    1.356333   -0.841998
     29          6           0        0.128613    0.391120   -1.575179
     30          8           0        0.770536   -0.602149   -1.938610
     31          6           0       -1.263567    0.633879   -1.692534
     32          7           0       -2.272292   -0.151734   -2.233088
     33          6           0       -3.355449    0.559961   -2.076698
     34          1           0       -4.352881    0.249812   -2.390107
     35          1           0       -4.787852    2.457801   -0.503503
     36          1           0       -3.623829    3.585595   -0.688065
     37          1           0       -4.544454    3.148704   -1.961861
     38          1           0        6.647189    1.210673    0.627022
     39          1           0        6.948812    1.692920   -1.040641
     40          1           0        5.475280    2.216836   -0.224815
     41          1           0        6.085649   -3.003992   -1.624179
     42          6           0        5.534644   -2.078569   -1.456221
     43          8           0        3.441852   -2.991966   -2.098879
     44          6           0        4.125272   -2.048305   -1.702381
     45          1           0        2.530034   -0.768884   -1.620926
     46          7           0        3.525346   -0.829366   -1.458391
     47          8           0        3.516745    1.352589   -0.828969
     48          6           0        4.133691    0.318707   -1.016362
     49          1           0        7.226000   -0.945538   -0.822663
     50          6           0        6.156096   -0.974862   -1.024649
     51          6           0        6.186987    1.411384   -0.329012
     52          7           0        5.493607    0.209973   -0.801847
     53          1           0        4.142675    2.338670    3.553908
     54          1           0        3.004726    2.777581    2.470157
     55          1           0        4.560667    2.622521    2.002092
     56          1           0        0.886652   -3.694067    0.713146
     57          1           0        2.531938   -3.657677    1.162403
     58          7           0        1.674377   -3.161366    1.022767
     59          6           0        1.586252   -1.847524    1.240088
     60          6           0        2.417401    0.295060    1.856734
     61          7           0        1.252855    0.935317    1.660927
     62          1           0       -0.665308    0.521842    1.069086
     63          6           0        0.314718    0.083377    1.252281
     64          7           0        0.401009   -1.232865    1.034024
     65          1           0        5.536424   -0.057466    2.631083
     66          6           0        4.500311   -0.205357    2.325234
     67          7           0        3.983993   -1.357899    1.974913
     68          6           0        2.663723   -1.054733    1.675372
     69          6           0        3.848244    2.257665    2.601683
     70          7           0        3.608448    0.838181    2.276763
 ---------------------------------------------------------------------

 SCF Done:  E(RwB97XD) =  -2048.74353097     A.U. after   15 cycles

 The electronic state is 1-A.
 Alpha  occ. eigenvalues --  -19.26063 -19.21965 -19.20517 -14.52581 -14.51432
 Alpha  occ. eigenvalues --  -14.49871 -14.48316 -14.47876 -14.46644 -14.46513
 Alpha  occ. eigenvalues --  -14.46380 -14.44372 -14.43035 -14.43023 -14.42810
 Alpha  occ. eigenvalues --  -14.42502 -14.42141 -14.41896 -14.41161 -14.40598
 Alpha  occ. eigenvalues --  -10.45617 -10.40914 -10.40057 -10.38585 -10.38059
 Alpha  occ. eigenvalues --  -10.37661 -10.37040 -10.36431 -10.36016 -10.35981
 Alpha  occ. eigenvalues --  -10.35142 -10.34704 -10.34513 -10.34156 -10.34111
 Alpha  occ. eigenvalues --  -10.33566 -10.33029 -10.31900 -10.31374 -10.30989
 Alpha  occ. eigenvalues --  -10.29814 -10.29661 -10.27919  -1.19628  -1.14132
 Alpha  occ. eigenvalues --   -1.13077  -1.12994  -1.12471  -1.10322  -1.09448
 Alpha  occ. eigenvalues --   -1.08376  -1.07930  -1.06055  -1.03488  -1.02540
 Alpha  occ. eigenvalues --   -1.01480  -0.99929  -0.99504  -0.98343  -0.97998
 Alpha  occ. eigenvalues --   -0.96205  -0.95552  -0.93686  -0.91030  -0.86650
 Alpha  occ. eigenvalues --   -0.85153  -0.85015  -0.84082  -0.83756  -0.83335
 Alpha  occ. eigenvalues --   -0.81904  -0.78900  -0.75943  -0.74387  -0.73910
 Alpha  occ. eigenvalues --   -0.73677  -0.73481  -0.73357  -0.72147  -0.69323
 Alpha  occ. eigenvalues --   -0.67325  -0.67169  -0.66580  -0.65653  -0.64467
 Alpha  occ. eigenvalues --   -0.63772  -0.63497  -0.63148  -0.62551  -0.61493
 Alpha  occ. eigenvalues --   -0.61135  -0.60694  -0.59544  -0.59534  -0.58667
 Alpha  occ. eigenvalues --   -0.58357  -0.58121  -0.57534  -0.57446  -0.56502
 Alpha  occ. eigenvalues --   -0.56208  -0.55998  -0.54842  -0.54526  -0.54391
 Alpha  occ. eigenvalues --   -0.53856  -0.53379  -0.52980  -0.52832  -0.52600
 Alpha  occ. eigenvalues --   -0.52475  -0.52176  -0.51752  -0.51601  -0.51141
 Alpha  occ. eigenvalues --   -0.50037  -0.49902  -0.49460  -0.48873  -0.48564
 Alpha  occ. eigenvalues --   -0.48561  -0.48100  -0.47991  -0.47833  -0.47579
 Alpha  occ. eigenvalues --   -0.47276  -0.45825  -0.45375  -0.44086  -0.43275
 Alpha  occ. eigenvalues --   -0.42088  -0.39867  -0.39575  -0.38304  -0.37165
 Alpha  occ. eigenvalues --   -0.37109  -0.36939  -0.36269  -0.35433  -0.34638
 Alpha  occ. eigenvalues --   -0.34524  -0.34237  -0.33347  -0.33167  -0.33038
 Alpha  occ. eigenvalues --   -0.32558  -0.32353  -0.31865  -0.31741  -0.31670
 Alpha  occ. eigenvalues --   -0.31397  -0.28351  -0.26820  -0.25232
 Alpha virt. eigenvalues --    0.03168   0.04926   0.06816   0.08243   0.08548
 Alpha virt. eigenvalues --    0.09150   0.09757   0.09996   0.10918   0.11796
 Alpha virt. eigenvalues --    0.12972   0.13034   0.14548   0.14810   0.15005

 Mulliken charges:
               1
     1  N   -0.311289
     2  C    0.180148
     3  C    0.047178
     4  N   -0.255236
     5  C    0.131620
     6  H    0.029906
     7  N   -0.270629
     8  C    0.127209
     9  H    0.020532
    10  N   -0.292063
    11  C    0.232975
    12  C    0.097512
    13  N   -0.041868
    14  H    0.108336
    15  H    0.088475
    16  H    0.028685
    17  H    0.035075
    18  H    0.026266
    19  N   -0.295167
    20  C    0.245950
    21  C    0.179767
    22  N   -0.100740
    23  H    0.109794
    24  H    0.114247
    25  N   -0.295128
    26  C    0.219160
    27  N   -0.119711
    28  H    0.119259
    29  C    0.139824
    30  O   -0.322826
    31  C    0.008379
    32  N   -0.224261
    33  C    0.116498
    34  H    0.025730
    35  H    0.019850
    36  H    0.024683
    37  H    0.019672
    38  H    0.046804
    39  H    0.066030
    40  H    0.079659
    41  H    0.030470
    42  C   -0.096024
    43  O   -0.269671
    44  C    0.180108
    45  H    0.134974
    46  N   -0.128617
    47  O   -0.346524
    48  C    0.343913
    49  H    0.045250
    50  C    0.172114
    51  C    0.032180
    52  N   -0.283354
    53  H    0.033064
    54  H    0.032482
    55  H    0.008832
    56  H    0.119590
    57  H    0.120217
    58  N   -0.059072
    59  C    0.126848
    60  C    0.226667
    61  N   -0.277249
    62  H    0.041781
    63  C    0.165785
    64  N   -0.302924
    65  H    0.028045
    66  C    0.112286
    67  N   -0.248861
    68  C    0.010349
    69  C    0.183047
    70  N   -0.296007
 Sum of Mulliken charges =  -0.00000

 Dipole moment (field-independent basis, Debye):
    X=              5.1948    Y=              5.7389    Z=              4.1152  Tot=              8.7667
 Quadrupole moment (field-independent basis, Debye-Ang):
   XX=           -139.9809   YY=           -227.0443   ZZ=           -257.6965
   XY=             15.6468   XZ=             16.6581   YZ=             -5.8141

 Normal termination of Gaussian 16 at Sat Jan 20 05:42:58 2018.
