 Gaussian 16, Revision A.03,
 Gaussian 16:  EM64L-G16RevA.03 25-Dec-2016

 ---------------------------------------
 #p wb97xd/cc-pvdz sp scf=(maxcycles=20)
 ---------------------------------------

 ------------------
 Base pair stacking
 ------------------
 Symbolic Z-matrix:
 Charge =  0 Multiplicity = 1

                         Standard orientation:
 ---------------------------------------------------------------------
 Center     Atomic      Atomic             Coordinates (Angstroms)
 Number     Number       Type             X           Y           Z
 ---------------------------------------------------------------------
      1          7           0       -6.065007   -1.366928    0.665550
      2          6           0       -7.382445   -0.809457    1.028310
      3          6           0       -3.901391   -1.731449    0.513191
      4          7           0       -4.512704   -2.681963   -0.291503
      5          6           0       -5.791735   -2.424312   -0.167497
      6          1           0       -6.587130   -2.979226   -0.665861
      7          7           0       -2.282876   -0.447871    1.651521
      8          6           0       -3.303603    0.256176    2.151543
      9          1           0       -3.024445    1.067415    2.822529
     10          7           0       -4.611248    0.109242    1.948124
     11          6           0       -4.845406   -0.913773    1.109661
     12          6           0       -2.551448   -1.470770    0.810906
     13          7           0       -1.533883   -2.174725    0.310739
     14          1           0       -1.685997   -2.940366   -0.315265
     15          1           0       -0.585333   -1.960932    0.544578
     16          1           0       -7.933722   -1.515560    1.472934
     17          1           0       -7.258777   -0.040643    1.655014
     18          1           0       -7.851308   -0.493003    0.203673
     19          7           0       -4.014231    1.921761   -1.078550
     20          6           0       -2.652460    2.001882   -0.913538
     21          6           0       -4.996597    2.889348   -0.549946
     22          7           0        0.131968    3.643280    0.357083
     23          1           0        1.123730    3.518245    0.361433
     24          1           0       -0.226201    4.446288    0.834177
     25          7           0       -1.988375    2.970202   -0.246165
     26          6           0       -0.681923    2.773753   -0.260482
     27          7           0       -0.070596    1.710965   -0.880390
     28          1           0        0.934626    1.641134   -0.840043
     29          6           0       -0.734020    0.702881   -1.572830
     30          8           0       -0.087471   -0.212659   -2.096766
     31          6           0       -2.138259    0.900273   -1.566120
     32          7           0       -3.156714    0.143782   -2.129482
     33          6           0       -4.248704    0.786477   -1.815293
     34          1           0       -5.255268    0.475043   -2.096551
     35          1           0       -5.626456    2.422509    0.069836
     36          1           0       -4.516282    3.611307   -0.053614
     37          1           0       -5.510831    3.291812   -1.306517
     38          1           0        5.894951    1.522140    0.270719
     39          1           0        6.060492    2.211812   -1.342229
     40          1           0        4.632680    2.573499   -0.371699
     41          1           0        5.312531   -2.413602   -2.434342
     42          6           0        4.744855   -1.538310   -2.118346
     43          8           0        2.642574   -2.454102   -2.725686
     44          6           0        3.321254   -1.537075   -2.263921
     45          1           0        1.694770   -0.343379   -1.920447
     46          7           0        2.700612   -0.381701   -1.833606
     47          8           0        2.665394    1.707425   -0.943938
     48          6           0        3.300979    0.729586   -1.296807
     49          1           0        6.439068   -0.420122   -1.466339
     50          6           0        5.359000   -0.469258   -1.598191
     51          6           0        5.361185    1.816263   -0.620714
     52          7           0        4.675592    0.652223   -1.188806
     53          1           0        4.987788    1.609631    4.015085
     54          1           0        3.747232    2.257552    3.176455
     55          1           0        5.266920    2.351210    2.588348
     56          1           0        1.818487   -3.579954   -0.238067
     57          1           0        3.490401   -3.557592    0.100041
     58          7           0        2.601028   -3.103387    0.162749
     59          6           0        2.465684   -1.914961    0.754789
     60          6           0        3.236354    0.016844    1.910608
     61          7           0        2.029778    0.603163    1.980132
     62          1           0        0.093477    0.241633    1.413895
     63          6           0        1.105376   -0.161066    1.401914
     64          7           0        1.238945   -1.351645    0.808405
     65          1           0        6.420526   -0.321858    2.356101
     66          6           0        5.371994   -0.448931    2.085232
     67          7           0        4.887035   -1.487652    1.449979
     68          6           0        3.533831   -1.205102    1.332782
     69          6           0        4.623145    1.782092    3.100051
     70          7           0        4.428690    0.500259    2.395000
 ---------------------------------------------------------------------

 SCF Done:  E(RwB97XD) =  -2048.75424804     A.U. after   15 cycles

 The electronic state is 1-A.
 Alpha  occ. eigenvalues --  -19.25730 -19.21805 -19.20628 -14.52363 -14.52063
 Alpha  occ. eigenvalues --  -14.49250 -14.48635 -14.47677 -14.46998 -14.46882
 Alpha  occ. eigenvalues --  -14.46570 -14.45008 -14.43643 -14.43498 -14.42546
 Alpha  occ. eigenvalues --  -14.41928 -14.41739 -14.41396 -14.40745 -14.40602
 Alpha  occ. eigenvalues --  -10.45359 -10.41157 -10.39977 -10.39131 -10.38207
 Alpha  occ. eigenvalues --  -10.37551 -10.37542 -10.36666 -10.35790 -10.35503
 Alpha  occ. eigenvalues --  -10.35189 -10.34448 -10.34225 -10.33790 -10.33769
 Alpha  occ. eigenvalues --  -10.33465 -10.33235 -10.32037 -10.31593 -10.30711
 Alpha  occ. eigenvalues --  -10.30550 -10.28885 -10.27997  -1.19333  -1.14743
 Alpha  occ. eigenvalues --   -1.13154  -1.12910  -1.11778  -1.10488  -1.09211
 Alpha  occ. eigenvalues --   -1.08510  -1.08475  -1.05405  -1.03993  -1.02391
 Alpha  occ. eigenvalues --   -1.00811  -1.00469  -0.99658  -0.98462  -0.97370
 Alpha  occ. eigenvalues --   -0.96438  -0.96069  -0.93056  -0.90805  -0.87149
 Alpha  occ. eigenvalues --   -0.85548  -0.84391  -0.83967  -0.83735  -0.82780
 Alpha  occ. eigenvalues --   -0.82288  -0.78690  -0.76418  -0.74542  -0.74183
 Alpha  occ. eigenvalues --   -0.73560  -0.73288  -0.73231  -0.71443  -0.69769
 Alpha  occ. eigenvalues --   -0.67295  -0.66695  -0.66398  -0.66099  -0.64348
 Alpha  occ. eigenvalues --   -0.63663  -0.63598  -0.63075  -0.62573  -0.61666
 Alpha  occ. eigenvalues --   -0.60988  -0.60631  -0.59902  -0.59315  -0.58946
 Alpha  occ. eigenvalues --   -0.58372  -0.58276  -0.57195  -0.56941  -0.56279
 Alpha  occ. eigenvalues --   -0.55849  -0.55767  -0.54893  -0.54789  -0.54243
 Alpha  occ. eigenvalues --   -0.53624  -0.53507  -0.53034  -0.52818  -0.52657
 Alpha  occ. eigenvalues --   -0.52487  -0.52285  -0.52233  -0.51228  -0.50634
 Alpha  occ. eigenvalues --   -0.50045  -0.49676  -0.49383  -0.49170  -0.49064
 Alpha  occ. eigenvalues --   -0.48690  -0.48294  -0.47992  -0.47425  -0.47346
 Alpha  occ. eigenvalues --   -0.47316  -0.45693  -0.45280  -0.44053  -0.43404
 Alpha  occ. eigenvalues --   -0.41560  -0.40158  -0.39329  -0.37541  -0.37265
 Alpha  occ. eigenvalues --   -0.37200  -0.37165  -0.36945  -0.35953  -0.34318
 Alpha  occ. eigenvalues --   -0.34133  -0.33884  -0.33690  -0.33582  -0.33098
 Alpha  occ. eigenvalues --   -0.32591  -0.32252  -0.31818  -0.31698  -0.31303
 Alpha  occ. eigenvalues --   -0.30819  -0.29088  -0.26100  -0.25353
 Alpha virt. eigenvalues --    0.03290   0.04572   0.07501   0.07685   0.08336
 Alpha virt. eigenvalues --    0.08928   0.09846   0.10666   0.10865   0.11936
 Alpha virt. eigenvalues --    0.13316   0.13674   0.13952   0.14549   0.15037

 Mulliken charges:
               1
     1  N   -0.309108
     2  C    0.178712
     3  C    0.059662
     4  N   -0.248672
     5  C    0.125749
     6  H    0.026903
     7  N   -0.287928
     8  C    0.135310
     9  H    0.013697
    10  N   -0.290726
    11  C    0.228586
    12  C    0.094897
    13  N   -0.042937
    14  H    0.111897
    15  H    0.090507
    16  H    0.028408
    17  H    0.035239
    18  H    0.021700
    19  N   -0.300484
    20  C    0.254076
    21  C    0.183532
    22  N   -0.118542
    23  H    0.115630
    24  H    0.117419
    25  N   -0.307019
    26  C    0.236578
    27  N   -0.145315
    28  H    0.123723
    29  C    0.179711
    30  O   -0.325339
    31  C   -0.017154
    32  N   -0.218756
    33  C    0.127061
    34  H    0.019833
    35  H    0.023153
    36  H    0.028721
    37  H    0.020940
    38  H    0.042512
    39  H    0.062530
    40  H    0.075392
    41  H    0.024516
    42  C   -0.099018
    43  O   -0.275804
    44  C    0.158688
    45  H    0.134793
    46  N   -0.118988
    47  O   -0.342645
    48  C    0.340407
    49  H    0.043115
    50  C    0.181219
    51  C    0.043208
    52  N   -0.277917
    53  H    0.034573
    54  H    0.040564
    55  H    0.016214
    56  H    0.125426
    57  H    0.117552
    58  N   -0.042698
    59  C    0.097510
    60  C    0.234293
    61  N   -0.268629
    62  H    0.035912
    63  C    0.152689
    64  N   -0.301599
    65  H    0.033642
    66  C    0.110787
    67  N   -0.247814
    68  C    0.019330
    69  C    0.183029
    70  N   -0.302453
 Sum of Mulliken charges =  -0.00000

 Dipole moment (field-independent basis, Debye):
    X=              5.7289    Y=              5.8569    Z=              4.3484  Tot=              9.2754
 Quadrupole moment (field-independent basis, Debye-Ang):
   XX=           -145.0693   YY=           -224.4386   ZZ=           -259.1489
   XY=             10.0214   XZ=              9.8482   YZ=             -0.2318

 Normal termination of Gaussian 16 at Sat Jan 20 03:41:19 2018.
