 Gaussian 16, Revision A.03,
 Gaussian 16:  EM64L-G16RevA.03 25-Dec-2016

 ---------------------------------------
 #p wb97xd/cc-pvdz sp scf=(maxcycles=20)
 ---------------------------------------

 ------------------
 Base pair stacking
 ------------------
 Symbolic Z-matrix:
 Charge =  0 Multiplicity = 1

                         Standard orientation:
 ---------------------------------------------------------------------
 Center     Atomic      Atomic             Coordinates (Angstroms)
 Number     Number       Type             X           Y           Z
 ---------------------------------------------------------------------
      1          7           0       -6.633527   -1.140314    0.348283
      2          6           0       -7.946120   -0.556557    0.686412
      3          6           0       -4.478266   -1.570215    0.262614
      4          7           0       -5.086469   -2.459836   -0.611094
      5          6           0       -6.360598   -2.165236   -0.524516
      6          1           0       -7.152439   -2.668375   -1.080207
      7          7           0       -2.867096   -0.398214    1.524961
      8          6           0       -3.884259    0.315240    2.018863
      9          1           0       -3.606788    1.083487    2.739325
     10          7           0       -5.186596    0.222613    1.757643
     11          6           0       -5.419102   -0.750541    0.861358
     12          6           0       -3.133883   -1.369983    0.625192
     13          7           0       -2.119861   -2.083246    0.131030
     14          1           0       -2.270840   -2.812418   -0.537351
     15          1           0       -1.175235   -1.913148    0.411903
     16          1           0       -8.537261   -1.264063    1.073919
     17          1           0       -7.823486    0.176721    1.354540
     18          1           0       -8.370790   -0.185253   -0.139290
     19          7           0       -3.369327    2.114710   -1.215996
     20          6           0       -2.012794    2.141529   -0.998843
     21          6           0       -4.326923    3.143466   -0.762818
     22          7           0        0.791189    3.706675    0.323952
     23          1           0        1.775381    3.538750    0.373040
     24          1           0        0.451273    4.541943    0.756949
     25          7           0       -1.332234    3.104441   -0.340288
     26          6           0       -0.036398    2.850797   -0.294502
     27          7           0        0.550086    1.739745   -0.850481
     28          1           0        1.548791    1.627718   -0.766884
     29          6           0       -0.130646    0.736167   -1.532612
     30          8           0        0.493900   -0.225796   -1.996634
     31          6           0       -1.523745    0.994723   -1.590001
     32          7           0       -2.552550    0.262672   -2.166683
     33          6           0       -3.625865    0.963768   -1.920383
     34          1           0       -4.633727    0.686142   -2.230894
     35          1           0       -5.000855    2.728242   -0.152729
     36          1           0       -3.834258    3.861984   -0.273660
     37          1           0       -4.792631    3.539164   -1.553611
     38          1           0        6.451671    1.334457    0.547852
     39          1           0        6.710840    1.954954   -1.080784
     40          1           0        5.264076    2.414901   -0.182639
     41          1           0        5.798244   -2.671314   -2.035446
     42          6           0        5.258721   -1.760813   -1.774405
     43          8           0        3.142554   -2.606295   -2.433277
     44          6           0        3.843378   -1.702977   -1.977596
     45          1           0        2.260218   -0.427383   -1.743543
     46          7           0        3.259152   -0.506238   -1.614620
     47          8           0        3.283520    1.614490   -0.802762
     48          6           0        3.887641    0.597254   -1.094180
     49          1           0        6.974936   -0.693795   -1.094775
     50          6           0        5.899707   -0.700713   -1.268514
     51          6           0        5.966840    1.617768   -0.374505
     52          7           0        5.252125    0.464147   -0.927760
     53          1           0        4.363684    1.296181    4.268520
     54          1           0        3.179515    2.025195    3.415075
     55          1           0        4.724028    2.095379    2.891975
     56          1           0        1.205414   -3.573333   -0.355186
     57          1           0        2.862087   -3.623854    0.048518
     58          7           0        1.985874   -3.143303    0.098791
     59          6           0        1.864648   -1.980700    0.742876
     60          6           0        2.649099   -0.133699    2.021532
     61          7           0        1.460049    0.489161    2.072748
     62          1           0       -0.462249    0.220974    1.414356
     63          6           0        0.535933   -0.214738    1.422023
     64          7           0        0.655364   -1.379365    0.776302
     65          1           0        5.800124   -0.601042    2.573593
     66          6           0        4.759930   -0.679394    2.256132
     67          7           0        4.268212   -1.669471    1.552097
     68          6           0        2.930587   -1.335939    1.396302
     69          6           0        4.042167    1.524535    3.349567
     70          7           0        3.835632    0.285271    2.575235
 ---------------------------------------------------------------------

 SCF Done:  E(RwB97XD) =  -2048.75139531     A.U. after   15 cycles

 The electronic state is 1-A.
 Alpha  occ. eigenvalues --  -19.26005 -19.22142 -19.20685 -14.52517 -14.51416
 Alpha  occ. eigenvalues --  -14.49467 -14.48616 -14.47921 -14.46924 -14.46659
 Alpha  occ. eigenvalues --  -14.46135 -14.44343 -14.42901 -14.42751 -14.42514
 Alpha  occ. eigenvalues --  -14.42069 -14.42004 -14.41597 -14.40756 -14.40716
 Alpha  occ. eigenvalues --  -10.45588 -10.41201 -10.40169 -10.38316 -10.38244
 Alpha  occ. eigenvalues --  -10.37590 -10.36930 -10.35923 -10.35905 -10.35749
 Alpha  occ. eigenvalues --  -10.34730 -10.34531 -10.34292 -10.34015 -10.33661
 Alpha  occ. eigenvalues --  -10.33317 -10.33224 -10.31628 -10.31277 -10.30895
 Alpha  occ. eigenvalues --  -10.30459 -10.29158 -10.28062  -1.19558  -1.14052
 Alpha  occ. eigenvalues --   -1.13222  -1.13188  -1.12036  -1.10519  -1.09390
 Alpha  occ. eigenvalues --   -1.08572  -1.07695  -1.05551  -1.03216  -1.02619
 Alpha  occ. eigenvalues --   -1.00944  -0.99797  -0.99731  -0.98514  -0.97573
 Alpha  occ. eigenvalues --   -0.96443  -0.95316  -0.93175  -0.90940  -0.86478
 Alpha  occ. eigenvalues --   -0.84946  -0.84584  -0.84013  -0.83906  -0.82938
 Alpha  occ. eigenvalues --   -0.82266  -0.78866  -0.75716  -0.74550  -0.73651
 Alpha  occ. eigenvalues --   -0.73481  -0.73449  -0.73412  -0.71639  -0.69062
 Alpha  occ. eigenvalues --   -0.67351  -0.66852  -0.66585  -0.65397  -0.64476
 Alpha  occ. eigenvalues --   -0.63713  -0.63295  -0.62846  -0.62641  -0.61701
 Alpha  occ. eigenvalues --   -0.60699  -0.60419  -0.59506  -0.59253  -0.58387
 Alpha  occ. eigenvalues --   -0.58340  -0.58305  -0.57162  -0.57019  -0.56383
 Alpha  occ. eigenvalues --   -0.56040  -0.55817  -0.54621  -0.54418  -0.54296
 Alpha  occ. eigenvalues --   -0.53601  -0.53507  -0.52864  -0.52716  -0.52619
 Alpha  occ. eigenvalues --   -0.52291  -0.52269  -0.51643  -0.51408  -0.50755
 Alpha  occ. eigenvalues --   -0.50127  -0.49635  -0.49525  -0.49024  -0.48791
 Alpha  occ. eigenvalues --   -0.48625  -0.48278  -0.47817  -0.47603  -0.47517
 Alpha  occ. eigenvalues --   -0.47418  -0.45541  -0.45349  -0.43895  -0.43303
 Alpha  occ. eigenvalues --   -0.41773  -0.39583  -0.39516  -0.37773  -0.37255
 Alpha  occ. eigenvalues --   -0.37187  -0.36946  -0.36340  -0.35602  -0.34280
 Alpha  occ. eigenvalues --   -0.34101  -0.34080  -0.33406  -0.33352  -0.32930
 Alpha  occ. eigenvalues --   -0.32705  -0.32189  -0.31879  -0.31795  -0.31565
 Alpha  occ. eigenvalues --   -0.30926  -0.28245  -0.26399  -0.25328
 Alpha virt. eigenvalues --    0.03067   0.05158   0.07384   0.08218   0.08702
 Alpha virt. eigenvalues --    0.09073   0.09756   0.10404   0.10675   0.11935
 Alpha virt. eigenvalues --    0.13152   0.13521   0.14473   0.14758   0.15308

 Mulliken charges:
               1
     1  N   -0.310216
     2  C    0.180227
     3  C    0.044939
     4  N   -0.252300
     5  C    0.127611
     6  H    0.027965
     7  N   -0.283086
     8  C    0.132371
     9  H    0.015966
    10  N   -0.292785
    11  C    0.231409
    12  C    0.101299
    13  N   -0.040462
    14  H    0.109854
    15  H    0.089985
    16  H    0.028036
    17  H    0.034861
    18  H    0.023974
    19  N   -0.304039
    20  C    0.257180
    21  C    0.181449
    22  N   -0.117921
    23  H    0.112918
    24  H    0.117381
    25  N   -0.307031
    26  C    0.240486
    27  N   -0.137571
    28  H    0.118145
    29  C    0.166887
    30  O   -0.324634
    31  C   -0.005521
    32  N   -0.226711
    33  C    0.125557
    34  H    0.025719
    35  H    0.027148
    36  H    0.027508
    37  H    0.021370
    38  H    0.047265
    39  H    0.063919
    40  H    0.075409
    41  H    0.027292
    42  C   -0.080872
    43  O   -0.278278
    44  C    0.165732
    45  H    0.136387
    46  N   -0.126487
    47  O   -0.347246
    48  C    0.345026
    49  H    0.044231
    50  C    0.174549
    51  C    0.039088
    52  N   -0.282767
    53  H    0.032270
    54  H    0.039452
    55  H    0.017258
    56  H    0.121334
    57  H    0.117793
    58  N   -0.035620
    59  C    0.103890
    60  C    0.236500
    61  N   -0.276223
    62  H    0.034023
    63  C    0.162624
    64  N   -0.303302
    65  H    0.028542
    66  C    0.117243
    67  N   -0.248034
    68  C    0.004155
    69  C    0.181783
    70  N   -0.304905
 Sum of Mulliken charges =  -0.00000

 Dipole moment (field-independent basis, Debye):
    X=              5.7079    Y=              5.7295    Z=              3.9377  Tot=              8.9952
 Quadrupole moment (field-independent basis, Debye-Ang):
   XX=           -141.9823   YY=           -225.4380   ZZ=           -256.1261
   XY=             10.4275   XZ=             16.6570   YZ=              0.5646

 Normal termination of Gaussian 16 at Fri Jan 19 15:56:54 2018.
