 Gaussian 16, Revision A.03,
 Gaussian 16:  EM64L-G16RevA.03 25-Dec-2016

 ---------------------------------------
 #p wb97xd/cc-pvdz sp scf=(maxcycles=20)
 ---------------------------------------

 ------------------
 Base pair stacking
 ------------------
 Symbolic Z-matrix:
 Charge =  0 Multiplicity = 1

                         Standard orientation:
 ---------------------------------------------------------------------
 Center     Atomic      Atomic             Coordinates (Angstroms)
 Number     Number       Type             X           Y           Z
 ---------------------------------------------------------------------
      1          7           0       -4.298188    0.788693   -1.930760
      2          6           0       -5.616564    0.133859   -2.035974
      3          6           0       -2.137476    1.156941   -1.749010
      4          7           0       -2.739451    2.404999   -1.817471
      5          6           0       -4.017109    2.133196   -1.924231
      6          1           0       -4.805870    2.882003   -2.002233
      7          7           0       -0.533694   -0.564941   -1.587783
      8          6           0       -1.557354   -1.421534   -1.664885
      9          1           0       -1.285503   -2.475564   -1.627490
     10          7           0       -2.860276   -1.172790   -1.780688
     11          6           0       -3.085541    0.150965   -1.817612
     12          6           0       -0.793281    0.760238   -1.627693
     13          7           0        0.227225    1.616887   -1.550868
     14          1           0        0.081699    2.606524   -1.576495
     15          1           0        1.171485    1.298833   -1.465119
     16          1           0       -6.053317    0.397123   -2.896275
     17          1           0       -5.499448   -0.858542   -2.012765
     18          1           0       -6.194057    0.417636   -1.270480
     19          7           0       -5.784333   -0.909594    0.779788
     20          6           0       -4.424086   -1.080340    0.872727
     21          6           0       -6.757623   -1.971069    0.453217
     22          7           0       -1.631283   -3.136592    0.688803
     23          1           0       -0.642062   -3.049074    0.802904
     24          1           0       -1.982641   -4.043775    0.455779
     25          7           0       -3.753517   -2.237210    0.682860
     26          6           0       -2.450658   -2.085256    0.841202
     27          7           0       -1.848553   -0.892485    1.161024
     28          1           0       -0.845464   -0.869528    1.262274
     29          6           0       -2.518785    0.310291    1.361007
     30          8           0       -1.880374    1.330910    1.646487
     31          6           0       -3.919266    0.162858    1.194296
     32          7           0       -4.942003    1.095330    1.301088
     33          6           0       -6.027273    0.415506    1.047629
     34          1           0       -7.034676    0.833114    1.042766
     35          1           0       -7.252916   -1.726687   -0.379714
     36          1           0       -6.272456   -2.832744    0.310421
     37          1           0       -7.405131   -2.075383    1.207315
     38          1           0        4.215182   -1.280124    0.990335
     39          1           0        4.093359   -1.380571    2.745242
     40          1           0        2.792859   -2.011480    1.734288
     41          1           0        3.578919    3.358710    2.096252
     42          6           0        2.992124    2.444788    2.003203
     43          8           0        0.906986    3.573000    1.923024
     44          6           0        1.566980    2.534254    1.909384
     45          1           0       -0.086489    1.342246    1.726375
     46          7           0        0.921233    1.319681    1.795036
     47          8           0        0.841796   -0.945842    1.659841
     48          6           0        1.498741    0.075065    1.763887
     49          1           0        4.664488    1.122902    2.043632
     50          6           0        3.584306    1.245132    1.975638
     51          6           0        3.538154   -1.235964    1.830420
     52          7           0        2.876453    0.071352    1.859319
     53          1           0        6.724666   -3.689516   -1.102647
     54          1           0        5.351315   -3.648771   -0.222685
     55          1           0        6.788102   -3.353008    0.493017
     56          1           0        3.619093    3.034412   -1.560588
     57          1           0        5.307915    2.794174   -1.576515
     58          7           0        4.392223    2.408190   -1.459269
     59          6           0        4.211263    1.115696   -1.180216
     60          6           0        4.918299   -1.113048   -0.739136
     61          7           0        3.677132   -1.603737   -0.587053
     62          1           0        1.733713   -0.955554   -0.646938
     63          6           0        2.771329   -0.642155   -0.753709
     64          7           0        2.950566    0.652952   -1.033248
     65          1           0        8.148868   -1.150303   -0.858442
     66          6           0        7.093927   -0.875026   -0.874835
     67          7           0        6.642433    0.332450   -1.111116
     68          6           0        5.264366    0.195503   -1.028057
     69          6           0        6.254196   -3.237636   -0.344720
     70          7           0        6.105329   -1.799639   -0.641406
 ---------------------------------------------------------------------

 SCF Done:  E(RwB97XD) =  -2048.69588957     A.U. after   15 cycles

 The electronic state is 1-A.
 Alpha  occ. eigenvalues --  -19.24890 -19.21146 -19.20626 -14.53178 -14.51243
 Alpha  occ. eigenvalues --  -14.49473 -14.48753 -14.48738 -14.46964 -14.46697
 Alpha  occ. eigenvalues --  -14.46655 -14.45884 -14.44937 -14.44895 -14.43266
 Alpha  occ. eigenvalues --  -14.41816 -14.41791 -14.41334 -14.41326 -14.41041
 Alpha  occ. eigenvalues --  -10.44455 -10.41118 -10.40637 -10.39235 -10.38432
 Alpha  occ. eigenvalues --  -10.38350 -10.37749 -10.36733 -10.36321 -10.36160
 Alpha  occ. eigenvalues --  -10.34734 -10.34425 -10.34144 -10.34117 -10.33710
 Alpha  occ. eigenvalues --  -10.33491 -10.33441 -10.32010 -10.31776 -10.30803
 Alpha  occ. eigenvalues --  -10.30197 -10.28945 -10.28554  -1.18502  -1.15945
 Alpha  occ. eigenvalues --   -1.13434  -1.12149  -1.11438  -1.11155  -1.10182
 Alpha  occ. eigenvalues --   -1.08680  -1.08164  -1.05888  -1.05717  -1.01546
 Alpha  occ. eigenvalues --   -1.01490  -1.01170  -0.99815  -0.98775  -0.97943
 Alpha  occ. eigenvalues --   -0.97144  -0.97093  -0.93432  -0.89976  -0.88340
 Alpha  occ. eigenvalues --   -0.86475  -0.84805  -0.84156  -0.83155  -0.82571
 Alpha  occ. eigenvalues --   -0.82097  -0.77926  -0.77621  -0.75775  -0.75039
 Alpha  occ. eigenvalues --   -0.73753  -0.73368  -0.72369  -0.71621  -0.71082
 Alpha  occ. eigenvalues --   -0.67593  -0.67537  -0.66798  -0.65629  -0.64856
 Alpha  occ. eigenvalues --   -0.64660  -0.63296  -0.63281  -0.62719  -0.61996
 Alpha  occ. eigenvalues --   -0.61515  -0.61215  -0.60982  -0.60177  -0.59071
 Alpha  occ. eigenvalues --   -0.58860  -0.58673  -0.58367  -0.57131  -0.56235
 Alpha  occ. eigenvalues --   -0.55920  -0.55589  -0.55490  -0.55037  -0.54504
 Alpha  occ. eigenvalues --   -0.54310  -0.54137  -0.53518  -0.53185  -0.52811
 Alpha  occ. eigenvalues --   -0.52269  -0.51927  -0.51044  -0.50970  -0.50729
 Alpha  occ. eigenvalues --   -0.50429  -0.50180  -0.49719  -0.49428  -0.49251
 Alpha  occ. eigenvalues --   -0.48529  -0.48373  -0.47922  -0.47322  -0.47199
 Alpha  occ. eigenvalues --   -0.46946  -0.45662  -0.45462  -0.44511  -0.42137
 Alpha  occ. eigenvalues --   -0.41231  -0.41091  -0.38750  -0.38728  -0.38205
 Alpha  occ. eigenvalues --   -0.38127  -0.37258  -0.36715  -0.35423  -0.35158
 Alpha  occ. eigenvalues --   -0.34621  -0.34181  -0.34138  -0.33744  -0.33122
 Alpha  occ. eigenvalues --   -0.32548  -0.32349  -0.31947  -0.31220  -0.30783
 Alpha  occ. eigenvalues --   -0.30729  -0.30443  -0.26904  -0.25140
 Alpha virt. eigenvalues --    0.02621   0.04777   0.06011   0.07319   0.08403
 Alpha virt. eigenvalues --    0.08872   0.09419   0.09792   0.10786   0.12590
 Alpha virt. eigenvalues --    0.13143   0.13514   0.14131   0.14438   0.14631

 Mulliken charges:
               1
     1  N   -0.295276
     2  C    0.198347
     3  C    0.061828
     4  N   -0.254437
     5  C    0.150131
     6  H    0.028993
     7  N   -0.277555
     8  C    0.123320
     9  H   -0.001899
    10  N   -0.267560
    11  C    0.218252
    12  C    0.075539
    13  N   -0.061080
    14  H    0.113515
    15  H    0.083953
    16  H    0.024067
    17  H    0.030308
    18  H    0.004315
    19  N   -0.296079
    20  C    0.220410
    21  C    0.181558
    22  N   -0.095565
    23  H    0.122387
    24  H    0.119274
    25  N   -0.267416
    26  C    0.169093
    27  N   -0.105974
    28  H    0.120583
    29  C    0.175610
    30  O   -0.318030
    31  C    0.005899
    32  N   -0.211509
    33  C    0.085862
    34  H    0.027033
    35  H    0.014153
    36  H    0.035237
    37  H    0.029458
    38  H    0.049971
    39  H    0.032423
    40  H    0.068477
    41  H    0.021812
    42  C   -0.102703
    43  O   -0.269238
    44  C    0.174463
    45  H    0.132284
    46  N   -0.123986
    47  O   -0.342267
    48  C    0.326447
    49  H    0.046313
    50  C    0.160326
    51  C    0.080659
    52  N   -0.273963
    53  H    0.036783
    54  H    0.041456
    55  H    0.032592
    56  H    0.121734
    57  H    0.120828
    58  N   -0.061289
    59  C    0.100379
    60  C    0.217624
    61  N   -0.277792
    62  H    0.041171
    63  C    0.142936
    64  N   -0.301898
    65  H    0.040970
    66  C    0.141924
    67  N   -0.256330
    68  C    0.040743
    69  C    0.179457
    70  N   -0.309049
 Sum of Mulliken charges =  -0.00000

 Dipole moment (field-independent basis, Debye):
    X=              6.2049    Y=             -7.8083    Z=             -1.9719  Tot=             10.1665
 Quadrupole moment (field-independent basis, Debye-Ang):
   XX=           -149.1265   YY=           -234.8582   ZZ=           -252.9357
   XY=              1.7221   XZ=             14.1835   YZ=            -17.9700

 Normal termination of Gaussian 16 at Fri Jan 19 21:48:30 2018.
