 Gaussian 16, Revision A.03,
 Gaussian 16:  EM64L-G16RevA.03 25-Dec-2016

 ---------------------------------------
 #p wb97xd/cc-pvdz sp scf=(maxcycles=20)
 ---------------------------------------

 ------------------
 Base pair stacking
 ------------------
 Symbolic Z-matrix:
 Charge =  0 Multiplicity = 1

                         Standard orientation:
 ---------------------------------------------------------------------
 Center     Atomic      Atomic             Coordinates (Angstroms)
 Number     Number       Type             X           Y           Z
 ---------------------------------------------------------------------
      1          7           0        4.212778   -2.383570   -0.994529
      2          6           0        5.484949   -2.285406   -1.736122
      3          6           0        2.096043   -2.240764   -0.414592
      4          7           0        2.746635   -2.862415    0.641338
      5          6           0        3.995855   -2.923580    0.249685
      6          1           0        4.808372   -3.356211    0.834148
      7          7           0        0.434989   -1.275221   -1.782643
      8          6           0        1.407066   -1.049010   -2.672283
      9          1           0        1.091159   -0.557004   -3.591203
     10          7           0        2.704689   -1.337953   -2.597601
     11          6           0        2.986758   -1.939653   -1.430209
     12          6           0        0.751000   -1.882327   -0.617901
     13          7           0       -0.217964   -2.109002    0.271426
     14          1           0       -0.029683   -2.555641    1.146800
     15          1           0       -1.164598   -1.840238    0.093100
     16          1           0        5.855399   -3.201850   -1.887980
     17          1           0        5.324577   -1.841534   -2.617254
     18          1           0        6.140532   -1.746119   -1.207563
     19          7           0        5.825049    1.429326   -0.006273
     20          6           0        4.475958    1.689880    0.004358
     21          6           0        6.821399    2.120610   -0.848950
     22          7           0        1.750771    3.489641   -1.177143
     23          1           0        0.764096    3.522154   -1.020064
     24          1           0        2.124180    4.127744   -1.851018
     25          7           0        3.839012    2.613759   -0.747176
     26          6           0        2.538555    2.629373   -0.514403
     27          7           0        1.908123    1.804188    0.385129
     28          1           0        0.909354    1.885930    0.497999
     29          6           0        2.543530    0.846301    1.169081
     30          8           0        1.881496    0.152348    1.950660
     31          6           0        3.941010    0.817729    0.930094
     32          7           0        4.934282    0.025567    1.489385
     33          6           0        6.032052    0.422809    0.905173
     34          1           0        7.023558    0.013950    1.102700
     35          1           0        7.276314    1.457337   -1.442187
     36          1           0        6.361198    2.807334   -1.410107
     37          1           0        7.499994    2.567487   -0.267035
     38          1           0       -4.140768    2.344246    0.125346
     39          1           0       -3.949694    3.330319    1.573028
     40          1           0       -2.667134    3.284079    0.362972
     41          1           0       -3.623709   -1.081942    3.463087
     42          6           0       -3.009667   -0.377328    2.902099
     43          8           0       -0.969155   -1.485375    3.387507
     44          6           0       -1.592987   -0.572010    2.847720
     45          1           0        0.092550    0.271700    2.050572
     46          7           0       -0.910512    0.375772    2.112069
     47          8           0       -0.758143    2.239050    0.822816
     48          6           0       -1.445522    1.452070    1.449580
     49          1           0       -4.632763    0.855581    2.276543
     50          6           0       -3.560754    0.663107    2.266156
     51          6           0       -3.434579    2.707139    0.857242
     52          7           0       -2.817728    1.571949    1.549039
     53          1           0       -6.888454    0.917766   -3.841837
     54          1           0       -5.442081    1.613784   -3.549191
     55          1           0       -6.794528    2.226363   -2.871179
     56          1           0       -3.528157   -2.503703    1.820969
     57          1           0       -5.221032   -2.314029    1.729980
     58          7           0       -4.317376   -2.102251    1.356105
     59          6           0       -4.172348   -1.319160    0.285171
     60          6           0       -4.939782    0.057269   -1.497581
     61          7           0       -3.714032    0.324536   -1.977715
     62          1           0       -1.755701   -0.120288   -1.568269
     63          6           0       -2.783088   -0.284713   -1.246247
     64          7           0       -2.926330   -1.069439   -0.173275
     65          1           0       -8.166453    0.162737   -1.325441
     66          6           0       -7.105527   -0.032062   -1.165962
     67          7           0       -6.621418   -0.779529   -0.204396
     68          6           0       -5.249225   -0.731368   -0.403132
     69          6           0       -6.332251    1.386341   -3.155498
     70          7           0       -6.143938    0.506127   -1.985975
 ---------------------------------------------------------------------

 SCF Done:  E(RwB97XD) =  -2048.73875162     A.U. after   15 cycles

 The electronic state is 1-A.
 Alpha  occ. eigenvalues --  -19.25423 -19.22020 -19.20884 -14.52535 -14.51947
 Alpha  occ. eigenvalues --  -14.49594 -14.48091 -14.48046 -14.47486 -14.47195
 Alpha  occ. eigenvalues --  -14.47010 -14.45445 -14.44676 -14.44644 -14.42422
 Alpha  occ. eigenvalues --  -14.42233 -14.41824 -14.40832 -14.40429 -14.40341
 Alpha  occ. eigenvalues --  -10.45009 -10.41655 -10.40056 -10.39985 -10.38613
 Alpha  occ. eigenvalues --  -10.38056 -10.37445 -10.37097 -10.36108 -10.35339
 Alpha  occ. eigenvalues --  -10.35009 -10.34692 -10.34183 -10.33869 -10.33301
 Alpha  occ. eigenvalues --  -10.33008 -10.32997 -10.32958 -10.31662 -10.30570
 Alpha  occ. eigenvalues --  -10.30545 -10.28762 -10.28172  -1.18988  -1.15321
 Alpha  occ. eigenvalues --   -1.13630  -1.12973  -1.11241  -1.10728  -1.09652
 Alpha  occ. eigenvalues --   -1.08960  -1.08749  -1.05101  -1.04940  -1.02139
 Alpha  occ. eigenvalues --   -1.01048  -1.00309  -1.00118  -0.99049  -0.97296
 Alpha  occ. eigenvalues --   -0.97166  -0.96329  -0.92639  -0.90641  -0.87801
 Alpha  occ. eigenvalues --   -0.85955  -0.84798  -0.83488  -0.83265  -0.83080
 Alpha  occ. eigenvalues --   -0.81902  -0.78543  -0.77174  -0.75201  -0.75043
 Alpha  occ. eigenvalues --   -0.74051  -0.73042  -0.72553  -0.70811  -0.70571
 Alpha  occ. eigenvalues --   -0.67856  -0.67002  -0.66240  -0.65986  -0.64862
 Alpha  occ. eigenvalues --   -0.64511  -0.63619  -0.63018  -0.62427  -0.62239
 Alpha  occ. eigenvalues --   -0.60665  -0.60452  -0.60074  -0.59461  -0.59162
 Alpha  occ. eigenvalues --   -0.59063  -0.58722  -0.57494  -0.56274  -0.55978
 Alpha  occ. eigenvalues --   -0.55805  -0.55443  -0.55200  -0.54651  -0.54360
 Alpha  occ. eigenvalues --   -0.53949  -0.53791  -0.53656  -0.53407  -0.53021
 Alpha  occ. eigenvalues --   -0.52824  -0.52074  -0.51343  -0.50661  -0.50496
 Alpha  occ. eigenvalues --   -0.50180  -0.49885  -0.49793  -0.49449  -0.49137
 Alpha  occ. eigenvalues --   -0.48687  -0.48551  -0.48436  -0.47825  -0.47472
 Alpha  occ. eigenvalues --   -0.46627  -0.45832  -0.45649  -0.44830  -0.42617
 Alpha  occ. eigenvalues --   -0.40988  -0.40841  -0.39234  -0.38092  -0.37875
 Alpha  occ. eigenvalues --   -0.37721  -0.37666  -0.36742  -0.35609  -0.35007
 Alpha  occ. eigenvalues --   -0.34612  -0.34368  -0.33439  -0.33246  -0.33220
 Alpha  occ. eigenvalues --   -0.33052  -0.32875  -0.32150  -0.31334  -0.30548
 Alpha  occ. eigenvalues --   -0.30240  -0.30055  -0.26233  -0.25404
 Alpha virt. eigenvalues --    0.02228   0.04743   0.06829   0.08217   0.08494
 Alpha virt. eigenvalues --    0.08925   0.09397   0.10367   0.11120   0.12078
 Alpha virt. eigenvalues --    0.13149   0.13311   0.14154   0.14541   0.15102

 Mulliken charges:
               1
     1  N   -0.305616
     2  C    0.185054
     3  C    0.040095
     4  N   -0.242540
     5  C    0.153732
     6  H    0.026063
     7  N   -0.298740
     8  C    0.128680
     9  H    0.008912
    10  N   -0.284791
    11  C    0.239694
    12  C    0.082628
    13  N   -0.063250
    14  H    0.120760
    15  H    0.091305
    16  H    0.023696
    17  H    0.031441
    18  H    0.014699
    19  N   -0.311466
    20  C    0.258080
    21  C    0.181957
    22  N   -0.123528
    23  H    0.118974
    24  H    0.119849
    25  N   -0.312650
    26  C    0.252924
    27  N   -0.147924
    28  H    0.120452
    29  C    0.197264
    30  O   -0.316771
    31  C   -0.015424
    32  N   -0.222196
    33  C    0.110232
    34  H    0.025392
    35  H    0.023159
    36  H    0.032783
    37  H    0.027028
    38  H    0.058704
    39  H    0.056724
    40  H    0.074514
    41  H    0.013486
    42  C   -0.111174
    43  O   -0.278757
    44  C    0.172094
    45  H    0.131643
    46  N   -0.123127
    47  O   -0.354208
    48  C    0.350117
    49  H    0.044851
    50  C    0.171075
    51  C    0.043744
    52  N   -0.277733
    53  H    0.034673
    54  H    0.042490
    55  H    0.029270
    56  H    0.128814
    57  H    0.116454
    58  N   -0.047913
    59  C    0.070022
    60  C    0.235045
    61  N   -0.265866
    62  H    0.034996
    63  C    0.166375
    64  N   -0.306331
    65  H    0.039487
    66  C    0.140526
    67  N   -0.261681
    68  C    0.034697
    69  C    0.179404
    70  N   -0.312377
 Sum of Mulliken charges =  -0.00000

 Dipole moment (field-independent basis, Debye):
    X=             -5.8485    Y=              6.7404    Z=             -4.7034  Tot=             10.0876
 Quadrupole moment (field-independent basis, Debye-Ang):
   XX=           -148.6412   YY=           -226.5924   ZZ=           -253.7735
   XY=             -9.5490   XZ=             -9.3330   YZ=             -6.5961

 Normal termination of Gaussian 16 at Sat Jan 20 02:39:35 2018.
