 Gaussian 16, Revision A.03,
 Gaussian 16:  EM64L-G16RevA.03 25-Dec-2016

 ---------------------------------------
 #p wb97xd/cc-pvdz sp scf=(maxcycles=20)
 ---------------------------------------

 ------------------
 Base pair stacking
 ------------------
 Symbolic Z-matrix:
 Charge =  0 Multiplicity = 1

                         Standard orientation:
 ---------------------------------------------------------------------
 Center     Atomic      Atomic             Coordinates (Angstroms)
 Number     Number       Type             X           Y           Z
 ---------------------------------------------------------------------
      1          7           0       -6.373918   -1.406906    0.248825
      2          6           0       -7.694006   -1.014508    0.779300
      3          6           0       -4.209576   -1.702604   -0.007085
      4          7           0       -4.814176   -2.285833   -1.111183
      5          6           0       -6.093921   -2.084334   -0.912812
      6          1           0       -6.885054   -2.411650   -1.588026
      7          7           0       -2.600726   -0.938846    1.539269
      8          6           0       -3.625283   -0.462595    2.254134
      9          1           0       -3.351669    0.042453    3.179514
     10          7           0       -4.930969   -0.516304    1.998740
     11          6           0       -5.158230   -1.156742    0.840031
     12          6           0       -2.862379   -1.578182    0.378290
     13          7           0       -1.840974   -2.054286   -0.336714
     14          1           0       -1.987958   -2.534294   -1.202287
     15          1           0       -0.894556   -1.947471   -0.031719
     16          1           0       -8.251607   -1.831451    0.927123
     17          1           0       -7.575472   -0.531642    1.646436
     18          1           0       -8.153199   -0.413518    0.125123
     19          7           0       -3.654954    2.382463   -0.738114
     20          6           0       -2.292873    2.391531   -0.557286
     21          6           0       -4.606928    3.314509   -0.101133
     22          7           0        0.536344    3.762575    0.918354
     23          1           0        1.522852    3.601312    0.912804
     24          1           0        0.202711    4.514512    1.487564
     25          7           0       -1.600877    3.246535    0.226392
     26          6           0       -0.302286    3.005056    0.195320
     27          7           0        0.276364    2.003385   -0.545848
     28          1           0        1.277963    1.892032   -0.508890
     29          6           0       -0.416176    1.111949   -1.359229
     30          8           0        0.202042    0.243398   -1.987056
     31          6           0       -1.812373    1.358905   -1.336128
     32          7           0       -2.851867    0.714522   -1.992713
     33          6           0       -3.923000    1.354350   -1.608623
     34          1           0       -4.937331    1.116785   -1.931055
     35          1           0       -5.259280    2.799589    0.453937
     36          1           0       -4.105778    3.952679    0.481836
     37          1           0       -5.098838    3.824490   -0.805937
     38          1           0        6.219597    1.455739    0.605826
     39          1           0        6.425759    2.329285   -0.910431
     40          1           0        5.002473    2.623220    0.089164
     41          1           0        5.522165   -2.098700   -2.560589
     42          6           0        4.983364   -1.247782   -2.143613
     43          8           0        2.855485   -2.004745   -2.869051
     44          6           0        3.562232   -1.176209   -2.295609
     45          1           0        1.976586    0.026393   -1.818365
     46          7           0        2.979482   -0.059377   -1.731416
     47          8           0        3.010929    1.906322   -0.594648
     48          6           0        3.614255    0.955637   -1.060325
     49          1           0        6.710333   -0.280375   -1.351446
     50          6           0        5.630543   -0.273155   -1.494105
     51          6           0        5.705589    1.875329   -0.246116
     52          7           0        4.984058    0.814937   -0.955135
     53          1           0        4.648301    0.058569    4.562340
     54          1           0        3.418340    0.977481    4.010187
     55          1           0        4.944516    1.272190    3.512194
     56          1           0        1.514094   -3.178391   -1.333789
     57          1           0        3.182275   -3.292322   -0.995737
     58          7           0        2.293263   -2.887871   -0.778251
     59          6           0        2.154087   -2.000616    0.208961
     60          6           0        2.916360   -0.635632    2.002704
     61          7           0        1.710382   -0.108978    2.272287
     62          1           0       -0.220442   -0.224638    1.594679
     63          6           0        0.790653   -0.600651    1.444481
     64          7           0        0.928067   -1.489355    0.455095
     65          1           0        6.094765   -1.133886    2.321495
     66          6           0        5.048962   -1.145832    2.013132
     67          7           0        4.568672   -1.874270    1.035177
     68          6           0        3.217438   -1.560276    1.017855
     69          6           0        4.293995    0.558403    3.772011
     70          7           0        4.104419   -0.372032    2.642256
 ---------------------------------------------------------------------

 SCF Done:  E(RwB97XD) =  -2048.73218125     A.U. after   15 cycles

 The electronic state is 1-A.
 Alpha  occ. eigenvalues --  -19.26099 -19.22238 -19.20870 -14.52670 -14.51321
 Alpha  occ. eigenvalues --  -14.49117 -14.48811 -14.48130 -14.47130 -14.46830
 Alpha  occ. eigenvalues --  -14.45662 -14.44291 -14.42691 -14.42500 -14.42145
 Alpha  occ. eigenvalues --  -14.42130 -14.41673 -14.41154 -14.40894 -14.40348
 Alpha  occ. eigenvalues --  -10.45723 -10.41376 -10.40303 -10.38419 -10.38047
 Alpha  occ. eigenvalues --  -10.37727 -10.36790 -10.35795 -10.35685 -10.35522
 Alpha  occ. eigenvalues --  -10.34434 -10.34396 -10.34365 -10.33619 -10.33371
 Alpha  occ. eigenvalues --  -10.33272 -10.33153 -10.31400 -10.31141 -10.30952
 Alpha  occ. eigenvalues --  -10.30796 -10.28743 -10.28206  -1.19677  -1.13998
 Alpha  occ. eigenvalues --   -1.13691  -1.13374  -1.11664  -1.10686  -1.09542
 Alpha  occ. eigenvalues --   -1.08743  -1.07508  -1.05166  -1.03114  -1.02836
 Alpha  occ. eigenvalues --   -1.00540  -0.99910  -0.99684  -0.98671  -0.97210
 Alpha  occ. eigenvalues --   -0.96632  -0.95145  -0.92787  -0.91044  -0.86351
 Alpha  occ. eigenvalues --   -0.84815  -0.84244  -0.84167  -0.83974  -0.82608
 Alpha  occ. eigenvalues --   -0.82506  -0.79014  -0.75598  -0.74723  -0.73810
 Alpha  occ. eigenvalues --   -0.73613  -0.73335  -0.73095  -0.71251  -0.68930
 Alpha  occ. eigenvalues --   -0.67517  -0.66746  -0.66479  -0.65315  -0.64637
 Alpha  occ. eigenvalues --   -0.63905  -0.62963  -0.62809  -0.62648  -0.61864
 Alpha  occ. eigenvalues --   -0.60429  -0.60355  -0.59608  -0.59110  -0.58521
 Alpha  occ. eigenvalues --   -0.58366  -0.58210  -0.56935  -0.56691  -0.56495
 Alpha  occ. eigenvalues --   -0.56168  -0.55456  -0.54911  -0.54615  -0.54153
 Alpha  occ. eigenvalues --   -0.53793  -0.53564  -0.53044  -0.52732  -0.52510
 Alpha  occ. eigenvalues --   -0.52203  -0.52014  -0.51532  -0.51113  -0.50428
 Alpha  occ. eigenvalues --   -0.50366  -0.49876  -0.49573  -0.49310  -0.49097
 Alpha  occ. eigenvalues --   -0.48488  -0.48455  -0.47768  -0.47676  -0.47354
 Alpha  occ. eigenvalues --   -0.47160  -0.45593  -0.45250  -0.43934  -0.42585
 Alpha  occ. eigenvalues --   -0.41383  -0.39662  -0.39424  -0.37457  -0.37390
 Alpha  occ. eigenvalues --   -0.37333  -0.37302  -0.36214  -0.35556  -0.34316
 Alpha  occ. eigenvalues --   -0.33797  -0.33760  -0.33664  -0.33429  -0.32899
 Alpha  occ. eigenvalues --   -0.32764  -0.32363  -0.32001  -0.31696  -0.31180
 Alpha  occ. eigenvalues --   -0.30545  -0.27507  -0.26010  -0.25455
 Alpha virt. eigenvalues --    0.02811   0.05301   0.07760   0.07985   0.08741
 Alpha virt. eigenvalues --    0.08993   0.09655   0.10683   0.10881   0.12300
 Alpha virt. eigenvalues --    0.13413   0.13670   0.14483   0.14581   0.15155

 Mulliken charges:
               1
     1  N   -0.309992
     2  C    0.180448
     3  C    0.045278
     4  N   -0.248424
     5  C    0.123593
     6  H    0.026186
     7  N   -0.288724
     8  C    0.133693
     9  H    0.014058
    10  N   -0.292416
    11  C    0.232102
    12  C    0.099156
    13  N   -0.039973
    14  H    0.111526
    15  H    0.093019
    16  H    0.027420
    17  H    0.034671
    18  H    0.021876
    19  N   -0.308307
    20  C    0.259129
    21  C    0.180884
    22  N   -0.122493
    23  H    0.115187
    24  H    0.118712
    25  N   -0.310161
    26  C    0.246917
    27  N   -0.147156
    28  H    0.119950
    29  C    0.183515
    30  O   -0.327277
    31  C   -0.014416
    32  N   -0.224930
    33  C    0.131574
    34  H    0.024850
    35  H    0.030312
    36  H    0.028985
    37  H    0.022567
    38  H    0.049949
    39  H    0.062626
    40  H    0.075062
    41  H    0.024872
    42  C   -0.073737
    43  O   -0.287357
    44  C    0.142503
    45  H    0.137506
    46  N   -0.118388
    47  O   -0.346602
    48  C    0.349697
    49  H    0.044145
    50  C    0.183267
    51  C    0.042473
    52  N   -0.282196
    53  H    0.031912
    54  H    0.040988
    55  H    0.019160
    56  H    0.125010
    57  H    0.115052
    58  N   -0.012169
    59  C    0.086894
    60  C    0.243009
    61  N   -0.278622
    62  H    0.031463
    63  C    0.160267
    64  N   -0.305129
    65  H    0.027760
    66  C    0.116474
    67  N   -0.250795
    68  C   -0.000592
    69  C    0.181650
    70  N   -0.307491
 Sum of Mulliken charges =  -0.00000

 Dipole moment (field-independent basis, Debye):
    X=              6.0363    Y=              5.5221    Z=              4.2814  Tot=              9.2336
 Quadrupole moment (field-independent basis, Debye-Ang):
   XX=           -143.2284   YY=           -226.9706   ZZ=           -253.2464
   XY=              5.7899   XZ=             14.6907   YZ=              7.0709

 Normal termination of Gaussian 16 at Sat Jan 20 00:03:04 2018.
