 Gaussian 16, Revision A.03,
 Gaussian 16:  EM64L-G16RevA.03 25-Dec-2016

 ---------------------------------------
 #p wb97xd/cc-pvdz sp scf=(maxcycles=20)
 ---------------------------------------

 ------------------
 Base pair stacking
 ------------------
 Symbolic Z-matrix:
 Charge =  0 Multiplicity = 1

                         Standard orientation:
 ---------------------------------------------------------------------
 Center     Atomic      Atomic             Coordinates (Angstroms)
 Number     Number       Type             X           Y           Z
 ---------------------------------------------------------------------
      1          7           0        4.528180   -2.150864   -1.119014
      2          6           0        5.819396   -1.909454   -1.791686
      3          6           0        2.391268   -2.149055   -0.598505
      4          7           0        3.026315   -2.911082    0.371429
      5          6           0        4.288302   -2.881672    0.019022
      6          1           0        5.094333   -3.380320    0.558102
      7          7           0        0.746528   -1.022778   -1.859164
      8          6           0        1.738856   -0.639027   -2.668850
      9          1           0        1.437662   -0.018403   -3.511684
     10          7           0        3.041271   -0.905576   -2.594077
     11          6           0        3.304085   -1.673766   -1.523921
     12          6           0        1.043497   -1.795096   -0.791262
     13          7           0        0.054304   -2.179169    0.018146
     14          1           0        0.228037   -2.751251    0.820494
     15          1           0       -0.893635   -1.908314   -0.149777
     16          1           0        6.220388   -2.782472   -2.069568
     17          1           0        5.673810   -1.338562   -2.599154
     18          1           0        6.442629   -1.443170   -1.163859
     19          7           0        5.545133    1.526237    0.252772
     20          6           0        4.189561    1.750831    0.250172
     21          6           0        6.540158    2.300149   -0.516443
     22          7           0        1.442437    3.558766   -0.866277
     23          1           0        0.452116    3.554948   -0.730268
     24          1           0        1.812726    4.251878   -1.485296
     25          7           0        3.543992    2.708549   -0.449890
     26          6           0        2.238913    2.674553   -0.246851
     27          7           0        1.612023    1.772477    0.578239
     28          1           0        0.609218    1.820554    0.673312
     29          6           0        2.256273    0.778533    1.308234
     30          8           0        1.596741    0.014782    2.024089
     31          6           0        3.658796    0.802514    1.100343
     32          7           0        4.661008   -0.001265    1.626105
     33          6           0        5.759841    0.463901    1.096575
     34          1           0        6.757616    0.067675    1.288162
     35          1           0        7.025482    1.691960   -1.143641
     36          1           0        6.073607    3.012549   -1.039018
     37          1           0        7.193785    2.722317    0.110737
     38          1           0       -4.442357    2.174618    0.216278
     39          1           0       -4.309095    3.061306    1.733068
     40          1           0       -3.000173    3.132834    0.552825
     41          1           0       -3.904029   -1.462852    3.318786
     42          6           0       -3.297473   -0.705168    2.822566
     43          8           0       -1.238490   -1.792007    3.277001
     44          6           0       -1.875195   -0.859280    2.787693
     45          1           0       -0.196512    0.081067    2.090484
     46          7           0       -1.203099    0.154891    2.135768
     47          8           0       -1.073799    2.107274    0.983091
     48          6           0       -1.752831    1.260968    1.537491
     49          1           0       -4.939671    0.526680    2.246743
     50          6           0       -3.862862    0.362865    2.247895
     51          6           0       -3.762077    2.503230    0.987826
     52          7           0       -3.129594    1.338465    1.613151
     53          1           0       -6.569197    1.290094   -3.811895
     54          1           0       -5.153033    1.966170   -3.365252
     55          1           0       -6.542774    2.434711   -2.648896
     56          1           0       -3.289702   -2.886123    1.371707
     57          1           0       -4.983672   -2.724363    1.251724
     58          7           0       -4.075278   -2.436218    0.946737
     59          6           0       -3.919537   -1.493780    0.014670
     60          6           0       -4.670339    0.123367   -1.561025
     61          7           0       -3.438421    0.490298   -1.951142
     62          1           0       -1.481817    0.033492   -1.546618
     63          6           0       -2.513581   -0.202756   -1.289886
     64          7           0       -2.667551   -1.147069   -0.356000
     65          1           0       -7.902487    0.125348   -1.487821
     66          6           0       -6.841888   -0.066858   -1.323130
     67          7           0       -6.366672   -0.942464   -0.471573
     68          6           0       -4.990909   -0.832027   -0.612358
     69          6           0       -6.048118    1.659810   -3.042622
     70          7           0       -5.871103    0.614023   -2.016468
 ---------------------------------------------------------------------

 SCF Done:  E(RwB97XD) =  -2048.74325555     A.U. after   15 cycles

 The electronic state is 1-A.
 Alpha  occ. eigenvalues --  -19.25376 -19.22040 -19.20820 -14.52619 -14.51868
 Alpha  occ. eigenvalues --  -14.49421 -14.48299 -14.47921 -14.47435 -14.47074
 Alpha  occ. eigenvalues --  -14.46887 -14.45513 -14.44647 -14.44557 -14.42306
 Alpha  occ. eigenvalues --  -14.42268 -14.41610 -14.40924 -14.40645 -14.40418
 Alpha  occ. eigenvalues --  -10.44954 -10.41504 -10.39998 -10.39963 -10.38510
 Alpha  occ. eigenvalues --  -10.38112 -10.37460 -10.36926 -10.36089 -10.35427
 Alpha  occ. eigenvalues --  -10.34831 -10.34666 -10.34003 -10.33957 -10.33515
 Alpha  occ. eigenvalues --  -10.33144 -10.33096 -10.32948 -10.31534 -10.30813
 Alpha  occ. eigenvalues --  -10.30589 -10.28599 -10.28295  -1.18941  -1.15378
 Alpha  occ. eigenvalues --   -1.13500  -1.12952  -1.11095  -1.10896  -1.09568
 Alpha  occ. eigenvalues --   -1.08857  -1.08684  -1.05055  -1.04992  -1.02103
 Alpha  occ. eigenvalues --   -1.01082  -1.00385  -0.99987  -0.98894  -0.97131
 Alpha  occ. eigenvalues --   -0.97113  -0.96505  -0.92722  -0.90559  -0.87816
 Alpha  occ. eigenvalues --   -0.86007  -0.84640  -0.83657  -0.83181  -0.82982
 Alpha  occ. eigenvalues --   -0.82092  -0.78441  -0.77162  -0.75065  -0.75017
 Alpha  occ. eigenvalues --   -0.73913  -0.72968  -0.72694  -0.70920  -0.70542
 Alpha  occ. eigenvalues --   -0.67720  -0.66961  -0.66170  -0.66079  -0.64709
 Alpha  occ. eigenvalues --   -0.64387  -0.63616  -0.62882  -0.62555  -0.62108
 Alpha  occ. eigenvalues --   -0.60679  -0.60511  -0.60262  -0.59506  -0.59054
 Alpha  occ. eigenvalues --   -0.59002  -0.58606  -0.57440  -0.56415  -0.55932
 Alpha  occ. eigenvalues --   -0.55871  -0.55505  -0.55259  -0.54488  -0.54251
 Alpha  occ. eigenvalues --   -0.53889  -0.53745  -0.53629  -0.53287  -0.53116
 Alpha  occ. eigenvalues --   -0.52867  -0.52022  -0.51534  -0.50618  -0.50505
 Alpha  occ. eigenvalues --   -0.50267  -0.49936  -0.49729  -0.49318  -0.49014
 Alpha  occ. eigenvalues --   -0.48754  -0.48575  -0.48296  -0.47912  -0.47403
 Alpha  occ. eigenvalues --   -0.46782  -0.45877  -0.45629  -0.44850  -0.42495
 Alpha  occ. eigenvalues --   -0.41054  -0.40860  -0.39147  -0.38172  -0.37718
 Alpha  occ. eigenvalues --   -0.37672  -0.37527  -0.36875  -0.35761  -0.34893
 Alpha  occ. eigenvalues --   -0.34524  -0.34242  -0.33377  -0.33259  -0.33189
 Alpha  occ. eigenvalues --   -0.33018  -0.32890  -0.32079  -0.31330  -0.30710
 Alpha  occ. eigenvalues --   -0.30352  -0.29950  -0.26261  -0.25313
 Alpha virt. eigenvalues --    0.02524   0.04532   0.07012   0.08084   0.08579
 Alpha virt. eigenvalues --    0.08952   0.09552   0.10347   0.11030   0.12125
 Alpha virt. eigenvalues --    0.12945   0.13283   0.14180   0.14549   0.15083

 Mulliken charges:
               1
     1  N   -0.304273
     2  C    0.184426
     3  C    0.045602
     4  N   -0.245079
     5  C    0.151371
     6  H    0.025030
     7  N   -0.296450
     8  C    0.129391
     9  H    0.009310
    10  N   -0.284951
    11  C    0.238419
    12  C    0.082659
    13  N   -0.057063
    14  H    0.119555
    15  H    0.089212
    16  H    0.024971
    17  H    0.032138
    18  H    0.011882
    19  N   -0.310831
    20  C    0.260485
    21  C    0.182331
    22  N   -0.123885
    23  H    0.118793
    24  H    0.119509
    25  N   -0.311821
    26  C    0.251307
    27  N   -0.145915
    28  H    0.120874
    29  C    0.192503
    30  O   -0.318929
    31  C   -0.015449
    32  N   -0.217736
    33  C    0.108946
    34  H    0.024410
    35  H    0.021997
    36  H    0.032884
    37  H    0.026416
    38  H    0.055247
    39  H    0.056356
    40  H    0.074875
    41  H    0.013819
    42  C   -0.102674
    43  O   -0.278149
    44  C    0.172083
    45  H    0.130761
    46  N   -0.119429
    47  O   -0.352953
    48  C    0.342899
    49  H    0.045488
    50  C    0.160943
    51  C    0.046086
    52  N   -0.275566
    53  H    0.035159
    54  H    0.042431
    55  H    0.028723
    56  H    0.126143
    57  H    0.116125
    58  N   -0.049480
    59  C    0.081409
    60  C    0.227953
    61  N   -0.263667
    62  H    0.033674
    63  C    0.167165
    64  N   -0.307036
    65  H    0.039204
    66  C    0.137977
    67  N   -0.259886
    68  C    0.033456
    69  C    0.179204
    70  N   -0.310380
 Sum of Mulliken charges =  -0.00000

 Dipole moment (field-independent basis, Debye):
    X=             -5.9117    Y=              6.6380    Z=             -4.4609  Tot=              9.9453
 Quadrupole moment (field-independent basis, Debye-Ang):
   XX=           -148.3454   YY=           -225.2435   ZZ=           -256.5094
   XY=             -8.7043   XZ=             -6.8400   YZ=             -4.5174

 Normal termination of Gaussian 16 at Fri Jan 19 21:23:57 2018.
