 Gaussian 16, Revision A.03,
 Gaussian 16:  EM64L-G16RevA.03 25-Dec-2016

 ---------------------------------------
 #p wb97xd/cc-pvdz sp scf=(maxcycles=20)
 ---------------------------------------

 ------------------
 Base pair stacking
 ------------------
 Symbolic Z-matrix:
 Charge =  0 Multiplicity = 1

                         Standard orientation:
 ---------------------------------------------------------------------
 Center     Atomic      Atomic             Coordinates (Angstroms)
 Number     Number       Type             X           Y           Z
 ---------------------------------------------------------------------
      1          7           0        4.280816   -0.878763   -1.969516
      2          6           0        5.595082   -0.231493   -2.147753
      3          6           0        2.124248   -1.236334   -1.727372
      4          7           0        2.730095   -2.484084   -1.699070
      5          6           0        4.005103   -2.218720   -1.846082
      6          1           0        4.795644   -2.969265   -1.871851
      7          7           0        0.516118    0.488609   -1.689117
      8          6           0        1.535271    1.338491   -1.852189
      9          1           0        1.259851    2.391174   -1.899743
     10          7           0        2.837457    1.084444   -1.964819
     11          6           0        3.067353   -0.237105   -1.893488
     12          6           0        0.780298   -0.834516   -1.621112
     13          7           0       -0.235716   -1.684461   -1.458341
     14          1           0       -0.086694   -2.672346   -1.402728
     15          1           0       -1.179951   -1.362913   -1.386489
     16          1           0        6.021062   -0.564973   -2.988879
     17          1           0        5.474411    0.759022   -2.206407
     18          1           0        6.184064   -0.448302   -1.369242
     19          7           0        5.796427    0.947762    0.779905
     20          6           0        4.437573    1.124748    0.881193
     21          6           0        6.772689    2.005077    0.448738
     22          7           0        1.653355    3.194205    0.716387
     23          1           0        0.664429    3.111164    0.836305
     24          1           0        2.007530    4.100014    0.482312
     25          7           0        3.771290    2.284947    0.696691
     26          6           0        2.468707    2.138880    0.862658
     27          7           0        1.862962    0.948552    1.184686
     28          1           0        0.860396    0.930149    1.291920
     29          6           0        2.528752   -0.257566    1.379259
     30          8           0        1.887299   -1.275541    1.667376
     31          6           0        3.928883   -0.116471    1.204337
     32          7           0        4.947882   -1.053836    1.303910
     33          6           0        6.034773   -0.378774    1.044750
     34          1           0        7.040162   -0.801064    1.033361
     35          1           0        7.261843    1.759385   -0.387420
     36          1           0        6.290704    2.869184    0.309859
     37          1           0        7.425177    2.105482    1.199072
     38          1           0       -4.199809    1.364649    1.050772
     39          1           0       -4.067021    1.462447    2.805045
     40          1           0       -2.769669    2.088487    1.787053
     41          1           0       -3.578604   -3.278405    2.147463
     42          6           0       -2.988115   -2.367123    2.051972
     43          8           0       -0.908785   -3.504949    1.957999
     44          6           0       -1.563995   -2.463114    1.949513
     45          1           0        0.093890   -1.278611    1.757981
     46          7           0       -0.913286   -1.251429    1.832714
     47          8           0       -0.824075    1.013861    1.699674
     48          6           0       -1.485147   -0.004104    1.806466
     49          1           0       -4.654020   -1.037505    2.103949
     50          6           0       -3.574851   -1.164690    2.029350
     51          6           0       -3.517979    1.316338    1.886743
     52          7           0       -2.862235    0.005921    1.910154
     53          1           0       -6.747082    3.623030   -1.367245
     54          1           0       -5.361691    3.660185   -0.506196
     55          1           0       -6.787416    3.421734    0.251786
     56          1           0       -3.621843   -3.107060   -1.301635
     57          1           0       -5.311657   -2.873637   -1.314158
     58          7           0       -4.395958   -2.476661   -1.242546
     59          6           0       -4.216244   -1.164777   -1.075662
     60          6           0       -4.925887    1.091216   -0.813665
     61          7           0       -3.684673    1.596356   -0.720667
     62          1           0       -1.739747    0.950745   -0.752933
     63          6           0       -2.777487    0.626643   -0.818523
     64          7           0       -2.955476   -0.687871   -0.985685
     65          1           0       -8.157897    1.109452   -0.890667
     66          6           0       -7.102224    0.836670   -0.898556
     67          7           0       -6.649280   -0.385160   -1.038769
     68          6           0       -5.270754   -0.237941   -0.986739
     69          6           0       -6.264552    3.237780   -0.580652
     70          7           0       -6.114143    1.780343   -0.757459
 ---------------------------------------------------------------------

 SCF Done:  E(RwB97XD) =  -2048.72670599     A.U. after   15 cycles

 The electronic state is 1-A.
 Alpha  occ. eigenvalues --  -19.24959 -19.21212 -19.20648 -14.53036 -14.51321
 Alpha  occ. eigenvalues --  -14.49501 -14.48702 -14.48698 -14.47006 -14.46771
 Alpha  occ. eigenvalues --  -14.46696 -14.45792 -14.44922 -14.44867 -14.43198
 Alpha  occ. eigenvalues --  -14.41921 -14.41789 -14.41419 -14.41251 -14.41037
 Alpha  occ. eigenvalues --  -10.44526 -10.41207 -10.40588 -10.39299 -10.38374
 Alpha  occ. eigenvalues --  -10.38360 -10.37714 -10.36802 -10.36379 -10.36120
 Alpha  occ. eigenvalues --  -10.34784 -10.34310 -10.34109 -10.34064 -10.33665
 Alpha  occ. eigenvalues --  -10.33593 -10.33351 -10.32704 -10.31725 -10.30825
 Alpha  occ. eigenvalues --  -10.30232 -10.28899 -10.28567  -1.18536  -1.15793
 Alpha  occ. eigenvalues --   -1.13407  -1.12213  -1.11388  -1.11136  -1.10047
 Alpha  occ. eigenvalues --   -1.08650  -1.08228  -1.05691  -1.05633  -1.01571
 Alpha  occ. eigenvalues --   -1.01427  -1.01103  -0.99789  -0.98785  -0.97726
 Alpha  occ. eigenvalues --   -0.97134  -0.97025  -0.93384  -0.90044  -0.88232
 Alpha  occ. eigenvalues --   -0.86371  -0.84736  -0.84114  -0.83134  -0.82503
 Alpha  occ. eigenvalues --   -0.82240  -0.77973  -0.77552  -0.75583  -0.75023
 Alpha  occ. eigenvalues --   -0.73744  -0.73300  -0.72424  -0.71533  -0.70977
 Alpha  occ. eigenvalues --   -0.67582  -0.67402  -0.66717  -0.65670  -0.64764
 Alpha  occ. eigenvalues --   -0.64652  -0.63233  -0.63192  -0.62723  -0.61970
 Alpha  occ. eigenvalues --   -0.61245  -0.61077  -0.60851  -0.60054  -0.58966
 Alpha  occ. eigenvalues --   -0.58751  -0.58529  -0.58348  -0.56996  -0.56149
 Alpha  occ. eigenvalues --   -0.55780  -0.55600  -0.55524  -0.54902  -0.54296
 Alpha  occ. eigenvalues --   -0.54271  -0.54073  -0.53406  -0.53200  -0.52901
 Alpha  occ. eigenvalues --   -0.52254  -0.51902  -0.51169  -0.50842  -0.50681
 Alpha  occ. eigenvalues --   -0.50435  -0.50269  -0.49713  -0.49383  -0.49219
 Alpha  occ. eigenvalues --   -0.48616  -0.48301  -0.47996  -0.47364  -0.47216
 Alpha  occ. eigenvalues --   -0.47008  -0.45664  -0.45505  -0.44858  -0.42339
 Alpha  occ. eigenvalues --   -0.41448  -0.41205  -0.38784  -0.38275  -0.38186
 Alpha  occ. eigenvalues --   -0.38091  -0.37311  -0.36963  -0.35368  -0.35174
 Alpha  occ. eigenvalues --   -0.34752  -0.34090  -0.34034  -0.33804  -0.33140
 Alpha  occ. eigenvalues --   -0.32686  -0.32398  -0.31978  -0.31189  -0.30890
 Alpha  occ. eigenvalues --   -0.30761  -0.30654  -0.26754  -0.25356
 Alpha virt. eigenvalues --    0.02637   0.04832   0.06074   0.07456   0.08461
 Alpha virt. eigenvalues --    0.08997   0.09505   0.09880   0.10629   0.12525
 Alpha virt. eigenvalues --    0.13189   0.13610   0.14138   0.14379   0.14661

 Mulliken charges:
               1
     1  N   -0.296026
     2  C    0.192353
     3  C    0.058384
     4  N   -0.252694
     5  C    0.151136
     6  H    0.028934
     7  N   -0.282383
     8  C    0.122800
     9  H    0.000158
    10  N   -0.269957
    11  C    0.222595
    12  C    0.077490
    13  N   -0.060900
    14  H    0.114903
    15  H    0.084864
    16  H    0.024877
    17  H    0.032078
    18  H    0.006704
    19  N   -0.298772
    20  C    0.232594
    21  C    0.182832
    22  N   -0.104178
    23  H    0.121002
    24  H    0.118882
    25  N   -0.284269
    26  C    0.201250
    27  N   -0.117017
    28  H    0.119124
    29  C    0.179494
    30  O   -0.317931
    31  C   -0.000936
    32  N   -0.213769
    33  C    0.088925
    34  H    0.026705
    35  H    0.014992
    36  H    0.034754
    37  H    0.028604
    38  H    0.055844
    39  H    0.040256
    40  H    0.070775
    41  H    0.020641
    42  C   -0.103106
    43  O   -0.270067
    44  C    0.173190
    45  H    0.132266
    46  N   -0.123904
    47  O   -0.344098
    48  C    0.329525
    49  H    0.046172
    50  C    0.160113
    51  C    0.066810
    52  N   -0.273645
    53  H    0.036575
    54  H    0.041275
    55  H    0.031840
    56  H    0.122264
    57  H    0.120328
    58  N   -0.059676
    59  C    0.096914
    60  C    0.212382
    61  N   -0.272390
    62  H    0.038107
    63  C    0.151489
    64  N   -0.302915
    65  H    0.040672
    66  C    0.142002
    67  N   -0.257152
    68  C    0.040099
    69  C    0.179141
    70  N   -0.309329
 Sum of Mulliken charges =  -0.00000

 Dipole moment (field-independent basis, Debye):
    X=             -6.1713    Y=              7.7511    Z=             -1.7710  Tot=             10.0648
 Quadrupole moment (field-independent basis, Debye-Ang):
   XX=           -149.2381   YY=           -233.4613   ZZ=           -253.0285
   XY=              1.0468   XZ=            -14.3676   YZ=             16.9498

 Normal termination of Gaussian 16 at Fri Jan 19 17:21:17 2018.
