 Gaussian 16, Revision A.03,
 Gaussian 16:  EM64L-G16RevA.03 25-Dec-2016

 ---------------------------------------
 #p wb97xd/cc-pvdz sp scf=(maxcycles=20)
 ---------------------------------------

 ------------------
 Base pair stacking
 ------------------
 Symbolic Z-matrix:
 Charge =  0 Multiplicity = 1

                         Standard orientation:
 ---------------------------------------------------------------------
 Center     Atomic      Atomic             Coordinates (Angstroms)
 Number     Number       Type             X           Y           Z
 ---------------------------------------------------------------------
      1          7           0       -7.120147   -0.844597    0.191468
      2          6           0       -8.408256   -0.125867    0.238410
      3          6           0       -4.990201   -1.364261    0.366351
      4          7           0       -5.619705   -2.480649   -0.164833
      5          6           0       -6.877727   -2.122880   -0.248932
      6          1           0       -7.678864   -2.757883   -0.628260
      7          7           0       -3.355935    0.113015    1.208840
      8          6           0       -4.346788    0.996150    1.369651
      9          1           0       -4.049404    1.958212    1.784696
     10          7           0       -5.643744    0.869906    1.096023
     11          6           0       -5.902203   -0.347799    0.591234
     12          6           0       -3.648431   -1.103233    0.698676
     13          7           0       -2.660702   -1.986159    0.537404
     14          1           0       -2.831266   -2.898386    0.163269
     15          1           0       -1.717078   -1.766023    0.784927
     16          1           0       -9.048900   -0.624918    0.822097
     17          1           0       -8.265744    0.791250    0.609504
     18          1           0       -8.786652   -0.055070   -0.684521
     19          7           0       -2.831802    1.767748   -1.510238
     20          6           0       -1.485560    1.813571   -1.238989
     21          6           0       -3.799697    2.842578   -1.212515
     22          7           0        1.271869    3.503708    0.026625
     23          1           0        2.251732    3.338942    0.135930
     24          1           0        0.920423    4.382036    0.351818
     25          7           0       -0.826074    2.839920   -0.659574
     26          6           0        0.464613    2.588570   -0.530859
     27          7           0        1.065468    1.421997   -0.937789
     28          1           0        2.058815    1.316478   -0.799624
     29          6           0        0.406492    0.352659   -1.536233
     30          8           0        1.042621   -0.655875   -1.866296
     31          6           0       -0.980845    0.607957   -1.681203
     32          7           0       -1.989920   -0.178919   -2.219249
     33          6           0       -3.067208    0.548147   -2.096593
     34          1           0       -4.063101    0.241775   -2.418446
     35          1           0       -4.502182    2.497983   -0.590767
     36          1           0       -3.322635    3.608233   -0.783053
     37          1           0       -4.228258    3.151844   -2.060754
     38          1           0        6.898935    1.151546    0.749168
     39          1           0        7.231948    1.591275   -0.924263
     40          1           0        5.751963    2.150377   -0.144239
     41          1           0        6.324466   -3.108193   -1.412108
     42          6           0        5.781502   -2.173069   -1.274432
     43          8           0        3.688678   -3.078117   -1.928726
     44          6           0        4.376575   -2.133029   -1.543492
     45          1           0        2.794949   -0.834535   -1.517030
     46          7           0        3.786862   -0.902167   -1.337406
     47          8           0        3.793338    1.293890   -0.759059
     48          6           0        4.401306    0.249155   -0.912600
     49          1           0        7.475600   -1.044259   -0.640696
     50          6           0        6.408703   -1.066495   -0.858845
     51          6           0        6.455975    1.334902   -0.218426
     52          7           0        5.756392    0.130472   -0.674131
     53          1           0        3.870729    2.375403    3.519491
     54          1           0        2.754851    2.801348    2.407966
     55          1           0        4.316021    2.618222    1.968306
     56          1           0        0.590727   -3.685880    0.768495
     57          1           0        2.229133   -3.657141    1.242755
     58          7           0        1.379561   -3.154802    1.078078
     59          6           0        1.303050   -1.835345    1.263406
     60          6           0        2.148877    0.311784    1.843180
     61          7           0        0.994903    0.960090    1.614155
     62          1           0       -0.918417    0.554075    1.001802
     63          6           0        0.053578    0.109230    1.210614
     64          7           0        0.128242   -1.212631    1.024386
     65          1           0        5.251257   -0.056912    2.674743
     66          6           0        4.218407   -0.200483    2.356070
     67          7           0        3.694492   -1.355145    2.024482
     68          6           0        2.382595   -1.044525    1.697144
     69          6           0        3.590243    2.275384    2.564866
     70          7           0        3.339361    0.851413    2.269267
 ---------------------------------------------------------------------

 SCF Done:  E(RwB97XD) =  -2048.73688100     A.U. after   15 cycles

 The electronic state is 1-A.
 Alpha  occ. eigenvalues --  -19.26122 -19.21945 -19.20528 -14.52623 -14.51248
 Alpha  occ. eigenvalues --  -14.49979 -14.48341 -14.47845 -14.46537 -14.46426
 Alpha  occ. eigenvalues --  -14.46414 -14.44212 -14.43146 -14.42841 -14.42650
 Alpha  occ. eigenvalues --  -14.42528 -14.42249 -14.41938 -14.41321 -14.40627
 Alpha  occ. eigenvalues --  -10.45659 -10.40985 -10.40045 -10.38366 -10.38095
 Alpha  occ. eigenvalues --  -10.37708 -10.36859 -10.36585 -10.35986 -10.35801
 Alpha  occ. eigenvalues --  -10.35283 -10.34666 -10.34338 -10.34306 -10.34139
 Alpha  occ. eigenvalues --  -10.33418 -10.33022 -10.31940 -10.31230 -10.31038
 Alpha  occ. eigenvalues --  -10.29947 -10.29821 -10.27966  -1.19666  -1.13969
 Alpha  occ. eigenvalues --   -1.13096  -1.12976  -1.12598  -1.10347  -1.09490
 Alpha  occ. eigenvalues --   -1.08437  -1.07710  -1.06212  -1.03289  -1.02520
 Alpha  occ. eigenvalues --   -1.01612  -0.99798  -0.99574  -0.98362  -0.98119
 Alpha  occ. eigenvalues --   -0.96255  -0.95340  -0.93826  -0.91071  -0.86479
 Alpha  occ. eigenvalues --   -0.85161  -0.84975  -0.84092  -0.83826  -0.83443
 Alpha  occ. eigenvalues --   -0.81995  -0.78930  -0.75739  -0.74460  -0.74050
 Alpha  occ. eigenvalues --   -0.73583  -0.73435  -0.73320  -0.72300  -0.69138
 Alpha  occ. eigenvalues --   -0.67452  -0.67245  -0.66603  -0.65463  -0.64479
 Alpha  occ. eigenvalues --   -0.63891  -0.63551  -0.62983  -0.62582  -0.61576
 Alpha  occ. eigenvalues --   -0.61253  -0.60456  -0.59556  -0.59344  -0.58678
 Alpha  occ. eigenvalues --   -0.58424  -0.58207  -0.57578  -0.57511  -0.56669
 Alpha  occ. eigenvalues --   -0.56299  -0.56019  -0.54863  -0.54424  -0.54360
 Alpha  occ. eigenvalues --   -0.53777  -0.53430  -0.53004  -0.52878  -0.52667
 Alpha  occ. eigenvalues --   -0.52491  -0.52038  -0.51743  -0.51600  -0.51232
 Alpha  occ. eigenvalues --   -0.50143  -0.49948  -0.49471  -0.48816  -0.48589
 Alpha  occ. eigenvalues --   -0.48505  -0.48140  -0.48096  -0.47719  -0.47592
 Alpha  occ. eigenvalues --   -0.47295  -0.46058  -0.45279  -0.44090  -0.43013
 Alpha  occ. eigenvalues --   -0.42210  -0.39689  -0.39586  -0.38421  -0.37169
 Alpha  occ. eigenvalues --   -0.37143  -0.36848  -0.36002  -0.35342  -0.34725
 Alpha  occ. eigenvalues --   -0.34685  -0.34502  -0.33163  -0.33063  -0.32918
 Alpha  occ. eigenvalues --   -0.32579  -0.32412  -0.31921  -0.31776  -0.31709
 Alpha  occ. eigenvalues --   -0.31397  -0.28140  -0.26910  -0.25328
 Alpha virt. eigenvalues --    0.03180   0.04989   0.06668   0.08188   0.08526
 Alpha virt. eigenvalues --    0.09123   0.09657   0.09931   0.10949   0.12139
 Alpha virt. eigenvalues --    0.12901   0.12920   0.14510   0.14797   0.15074

 Mulliken charges:
               1
     1  N   -0.310954
     2  C    0.180435
     3  C    0.039454
     4  N   -0.256461
     5  C    0.133041
     6  H    0.030506
     7  N   -0.268872
     8  C    0.121361
     9  H    0.023015
    10  N   -0.290102
    11  C    0.233254
    12  C    0.094300
    13  N   -0.039563
    14  H    0.107748
    15  H    0.089101
    16  H    0.028642
    17  H    0.035606
    18  H    0.026877
    19  N   -0.293343
    20  C    0.232603
    21  C    0.181860
    22  N   -0.098591
    23  H    0.106212
    24  H    0.115509
    25  N   -0.291281
    26  C    0.218184
    27  N   -0.111846
    28  H    0.120896
    29  C    0.133000
    30  O   -0.322380
    31  C    0.009744
    32  N   -0.224006
    33  C    0.118515
    34  H    0.028145
    35  H    0.020171
    36  H    0.025418
    37  H    0.020476
    38  H    0.051500
    39  H    0.065869
    40  H    0.078898
    41  H    0.031357
    42  C   -0.099392
    43  O   -0.269547
    44  C    0.185307
    45  H    0.134491
    46  N   -0.129928
    47  O   -0.349731
    48  C    0.348073
    49  H    0.045982
    50  C    0.170244
    51  C    0.031569
    52  N   -0.288770
    53  H    0.032669
    54  H    0.027762
    55  H    0.013312
    56  H    0.117798
    57  H    0.120606
    58  N   -0.061210
    59  C    0.134453
    60  C    0.224402
    61  N   -0.266514
    62  H    0.055174
    63  C    0.145668
    64  N   -0.301656
    65  H    0.024237
    66  C    0.112574
    67  N   -0.251157
    68  C    0.014522
    69  C    0.178074
    70  N   -0.293310
 Sum of Mulliken charges =  -0.00000

 Dipole moment (field-independent basis, Debye):
    X=              5.0474    Y=              5.7501    Z=              4.0422  Tot=              8.6533
 Quadrupole moment (field-independent basis, Debye-Ang):
   XX=           -137.7967   YY=           -227.7748   ZZ=           -256.5049
   XY=             17.0913   XZ=             19.4291   YZ=             -6.0782

 Normal termination of Gaussian 16 at Sat Jan 20 06:30:46 2018.
