 Gaussian 16, Revision A.03,
 Gaussian 16:  EM64L-G16RevA.03 25-Dec-2016

 ---------------------------------------
 #p wb97xd/cc-pvdz sp scf=(maxcycles=20)
 ---------------------------------------

 ------------------
 Base pair stacking
 ------------------
 Symbolic Z-matrix:
 Charge =  0 Multiplicity = 1

                         Standard orientation:
 ---------------------------------------------------------------------
 Center     Atomic      Atomic             Coordinates (Angstroms)
 Number     Number       Type             X           Y           Z
 ---------------------------------------------------------------------
      1          7           0       -6.649100   -1.225391    0.188894
      2          6           0       -7.967641   -0.768856    0.669564
      3          6           0       -4.488738   -1.587220   -0.009138
      4          7           0       -5.089449   -2.226693   -1.083824
      5          6           0       -6.366952   -1.983101   -0.921500
      6          1           0       -7.154814   -2.335106   -1.588063
      7          7           0       -2.886948   -0.762246    1.512907
      8          6           0       -3.911024   -0.216956    2.177365
      9          1           0       -3.640171    0.340614    3.072921
     10          7           0       -5.213337   -0.256804    1.902935
     11          6           0       -5.437384   -0.965660    0.784114
     12          6           0       -3.145305   -1.469342    0.391146
     13          7           0       -2.124374   -2.014424   -0.273505
     14          1           0       -2.268996   -2.546051   -1.108772
     15          1           0       -1.180681   -1.910029    0.040635
     16          1           0       -8.547244   -1.561331    0.859900
     17          1           0       -7.851415   -0.233601    1.505697
     18          1           0       -8.401491   -0.201108   -0.030028
     19          7           0       -3.337605    2.399216   -0.916181
     20          6           0       -1.978799    2.388391   -0.712282
     21          6           0       -4.276793    3.392488   -0.357560
     22          7           0        0.858735    3.786299    0.721592
     23          1           0        1.840999    3.602176    0.743885
     24          1           0        0.534337    4.581134    1.235132
     25          7           0       -1.278953    3.276177    0.026715
     26          6           0        0.013719    3.003122    0.034228
     27          7           0        0.579733    1.942300   -0.630448
     28          1           0        1.577600    1.810360   -0.568700
     29          6           0       -0.121062    1.016254   -1.396742
     30          8           0        0.485911    0.094673   -1.956219
     31          6           0       -1.511038    1.296520   -1.414285
     32          7           0       -2.555160    0.635176   -2.046197
     33          6           0       -3.616483    1.323267   -1.723159
     34          1           0       -4.630956    1.088878   -2.047462
     35          1           0       -4.950331    2.929957    0.217958
     36          1           0       -3.769749    4.055348    0.191792
     37          1           0       -4.744741    3.866916   -1.102372
     38          1           0        6.488554    1.332784    0.658952
     39          1           0        6.740311    2.101063   -0.906614
     40          1           0        5.308649    2.492198    0.046641
     41          1           0        5.756107   -2.402534   -2.283420
     42          6           0        5.231488   -1.514073   -1.931782
     43          8           0        3.097818   -2.266943   -2.644356
     44          6           0        3.815151   -1.419558   -2.113158
     45          1           0        2.251706   -0.152045   -1.742562
     46          7           0        3.250695   -0.255232   -1.632559
     47          8           0        3.311563    1.778845   -0.624574
     48          6           0        3.899035    0.786187   -1.017231
     49          1           0        6.968456   -0.537626   -1.173284
     50          6           0        5.891601   -0.514625   -1.335163
     51          6           0        5.998699    1.708008   -0.227228
     52          7           0        5.263141    0.620862   -0.879005
     53          1           0        4.334490    0.260804    4.592923
     54          1           0        3.136279    1.170226    3.961005
     55          1           0        4.677003    1.396504    3.472078
     56          1           0        1.218030   -3.278427   -1.136565
     57          1           0        2.877287   -3.408846   -0.762463
     58          7           0        1.994973   -2.970613   -0.587245
     59          6           0        1.861498   -2.018162    0.338057
     60          6           0        2.627686   -0.557698    2.053201
     61          7           0        1.430672    0.013184    2.266916
     62          1           0       -0.491215   -0.101376    1.564180
     63          6           0        0.512740   -0.509696    1.456425
     64          7           0        0.644449   -1.463700    0.529003
     65          1           0        5.787491   -1.107831    2.459560
     66          6           0        4.746816   -1.115495    2.134186
     67          7           0        4.264804   -1.894522    1.196925
     68          6           0        2.922053   -1.551043    1.135519
     69          6           0        4.005220    0.716366    3.765862
     70          7           0        3.811333   -0.280784    2.695304
 ---------------------------------------------------------------------

 SCF Done:  E(RwB97XD) =  -2048.73937949     A.U. after   15 cycles

 The electronic state is 1-A.
 Alpha  occ. eigenvalues --  -19.26107 -19.22442 -19.20856 -14.52598 -14.51121
 Alpha  occ. eigenvalues --  -14.49284 -14.48771 -14.48125 -14.47134 -14.46853
 Alpha  occ. eigenvalues --  -14.45387 -14.44089 -14.42483 -14.42278 -14.42192
 Alpha  occ. eigenvalues --  -14.42161 -14.41900 -14.41305 -14.40892 -14.40462
 Alpha  occ. eigenvalues --  -10.45703 -10.41387 -10.40352 -10.38418 -10.37786
 Alpha  occ. eigenvalues --  -10.37609 -10.36641 -10.35711 -10.35654 -10.35541
 Alpha  occ. eigenvalues --  -10.34562 -10.34448 -10.34139 -10.33805 -10.33418
 Alpha  occ. eigenvalues --  -10.33338 -10.33021 -10.31479 -10.30964 -10.30915
 Alpha  occ. eigenvalues --  -10.30724 -10.28941 -10.28216  -1.19665  -1.13810
 Alpha  occ. eigenvalues --   -1.13618  -1.13382  -1.11849  -1.10676  -1.09503
 Alpha  occ. eigenvalues --   -1.08753  -1.07244  -1.05301  -1.02895  -1.02740
 Alpha  occ. eigenvalues --   -1.00676  -0.99927  -0.99464  -0.98676  -0.97375
 Alpha  occ. eigenvalues --   -0.96612  -0.94878  -0.92909  -0.90995  -0.86143
 Alpha  occ. eigenvalues --   -0.84631  -0.84391  -0.84161  -0.83961  -0.82751
 Alpha  occ. eigenvalues --   -0.82469  -0.78969  -0.75354  -0.74707  -0.73814
 Alpha  occ. eigenvalues --   -0.73590  -0.73241  -0.73093  -0.71407  -0.68679
 Alpha  occ. eigenvalues --   -0.67518  -0.66721  -0.66623  -0.65053  -0.64611
 Alpha  occ. eigenvalues --   -0.63877  -0.63044  -0.62795  -0.62464  -0.61861
 Alpha  occ. eigenvalues --   -0.60469  -0.60242  -0.59611  -0.58891  -0.58532
 Alpha  occ. eigenvalues --   -0.58288  -0.58015  -0.56993  -0.56786  -0.56520
 Alpha  occ. eigenvalues --   -0.56171  -0.55554  -0.54630  -0.54554  -0.53986
 Alpha  occ. eigenvalues --   -0.53777  -0.53542  -0.53023  -0.52742  -0.52436
 Alpha  occ. eigenvalues --   -0.52122  -0.52067  -0.51311  -0.51240  -0.50546
 Alpha  occ. eigenvalues --   -0.50366  -0.49733  -0.49406  -0.49232  -0.49060
 Alpha  occ. eigenvalues --   -0.48431  -0.48308  -0.47825  -0.47716  -0.47386
 Alpha  occ. eigenvalues --   -0.47300  -0.45414  -0.45398  -0.43937  -0.42732
 Alpha  occ. eigenvalues --   -0.41549  -0.39674  -0.39231  -0.37541  -0.37423
 Alpha  occ. eigenvalues --   -0.37310  -0.37193  -0.36036  -0.35485  -0.34416
 Alpha  occ. eigenvalues --   -0.33948  -0.33864  -0.33692  -0.33182  -0.32810
 Alpha  occ. eigenvalues --   -0.32596  -0.32293  -0.31981  -0.31726  -0.31357
 Alpha  occ. eigenvalues --   -0.30662  -0.27459  -0.26169  -0.25458
 Alpha virt. eigenvalues --    0.02929   0.05455   0.07617   0.08056   0.08795
 Alpha virt. eigenvalues --    0.09265   0.09624   0.10617   0.10768   0.12355
 Alpha virt. eigenvalues --    0.13322   0.13638   0.14425   0.14723   0.15478

 Mulliken charges:
               1
     1  N   -0.310001
     2  C    0.180511
     3  C    0.039671
     4  N   -0.251498
     5  C    0.125919
     6  H    0.027048
     7  N   -0.286549
     8  C    0.132495
     9  H    0.015055
    10  N   -0.292232
    11  C    0.231790
    12  C    0.102211
    13  N   -0.038697
    14  H    0.110102
    15  H    0.090628
    16  H    0.027582
    17  H    0.035132
    18  H    0.023105
    19  N   -0.307867
    20  C    0.259017
    21  C    0.180423
    22  N   -0.122201
    23  H    0.114137
    24  H    0.118627
    25  N   -0.309608
    26  C    0.247229
    27  N   -0.142768
    28  H    0.117989
    29  C    0.179524
    30  O   -0.326533
    31  C   -0.010106
    32  N   -0.228416
    33  C    0.129058
    34  H    0.027208
    35  H    0.031621
    36  H    0.028437
    37  H    0.022487
    38  H    0.050298
    39  H    0.062996
    40  H    0.074626
    41  H    0.025961
    42  C   -0.067165
    43  O   -0.286979
    44  C    0.157705
    45  H    0.137530
    46  N   -0.123877
    47  O   -0.348744
    48  C    0.349315
    49  H    0.044205
    50  C    0.174141
    51  C    0.041428
    52  N   -0.284662
    53  H    0.031302
    54  H    0.040607
    55  H    0.018771
    56  H    0.120752
    57  H    0.115841
    58  N   -0.013327
    59  C    0.087989
    60  C    0.240314
    61  N   -0.278701
    62  H    0.031244
    63  C    0.161270
    64  N   -0.303803
    65  H    0.026067
    66  C    0.119097
    67  N   -0.251171
    68  C    0.002661
    69  C    0.181517
    70  N   -0.307737
 Sum of Mulliken charges =  -0.00000

 Dipole moment (field-independent basis, Debye):
    X=              5.9971    Y=              5.5951    Z=              3.9816  Tot=              9.1172
 Quadrupole moment (field-independent basis, Debye-Ang):
   XX=           -141.9124   YY=           -226.7468   ZZ=           -252.8101
   XY=              6.4091   XZ=             17.7730   YZ=              5.3125

 Normal termination of Gaussian 16 at Sat Jan 20 00:52:17 2018.
