 Gaussian 16, Revision A.03,
 Gaussian 16:  EM64L-G16RevA.03 25-Dec-2016

 ---------------------------------------
 #p wb97xd/cc-pvdz sp scf=(maxcycles=20)
 ---------------------------------------

 ------------------
 Base pair stacking
 ------------------
 Symbolic Z-matrix:
 Charge =  0 Multiplicity = 1

                         Standard orientation:
 ---------------------------------------------------------------------
 Center     Atomic      Atomic             Coordinates (Angstroms)
 Number     Number       Type             X           Y           Z
 ---------------------------------------------------------------------
      1          7           0       -6.358471   -1.290829    0.455791
      2          6           0       -7.674780   -0.750306    0.847149
      3          6           0       -4.197589   -1.672819    0.307502
      4          7           0       -4.806429   -2.531771   -0.595952
      5          6           0       -6.083915   -2.267258   -0.470456
      6          1           0       -6.877201   -2.759107   -1.034132
      7          7           0       -2.583618   -0.530274    1.593057
      8          6           0       -3.603911    0.138257    2.140457
      9          1           0       -3.326480    0.876668    2.891487
     10          7           0       -4.909311    0.032085    1.900551
     11          6           0       -5.141468   -0.901676    0.963211
     12          6           0       -2.850141   -1.463178    0.652983
     13          7           0       -1.832997   -2.131566    0.105385
     14          1           0       -1.983649   -2.830913   -0.594217
     15          1           0       -0.886245   -1.956142    0.375624
     16          1           0       -8.244246   -1.487210    1.211645
     17          1           0       -7.552537   -0.047421    1.547248
     18          1           0       -8.123268   -0.348634    0.048705
     19          7           0       -3.683242    2.104683   -1.081126
     20          6           0       -2.323316    2.148316   -0.889454
     21          6           0       -4.650853    3.091224   -0.560398
     22          7           0        0.476725    3.704523    0.452105
     23          1           0        1.464743    3.554228    0.473843
     24          1           0        0.129845    4.511207    0.931325
     25          7           0       -1.647949    3.092175   -0.198751
     26          6           0       -0.346838    2.862689   -0.190525
     27          7           0        0.249270    1.791412   -0.810634
     28          1           0        1.251443    1.695580   -0.752029
     29          6           0       -0.425966    0.808051   -1.526815
     30          8           0        0.207213   -0.117954   -2.048663
     31          6           0       -1.824636    1.041065   -1.544510
     32          7           0       -2.850849    0.316862   -2.135542
     33          6           0       -3.932104    0.983728   -1.834912
     34          1           0       -4.940614    0.701072   -2.138683
     35          1           0       -5.304099    2.633929    0.042051
     36          1           0       -4.162088    3.795334   -0.046958
     37          1           0       -5.140109    3.514777   -1.322004
     38          1           0        6.184890    1.438370    0.451144
     39          1           0        6.398793    2.140930   -1.150510
     40          1           0        4.962176    2.528384   -0.203223
     41          1           0        5.555406   -2.451922   -2.308555
     42          6           0        5.004049   -1.565919   -1.993559
     43          8           0        2.891387   -2.421296   -2.650903
     44          6           0        3.583995   -1.526851   -2.166068
     45          1           0        1.981868   -0.295902   -1.840090
     46          7           0        2.984559   -0.360751   -1.734625
     47          8           0        2.985008    1.718898   -0.822347
     48          6           0        3.602374    0.729041   -1.174085
     49          1           0        6.713099   -0.498315   -1.297014
     50          6           0        5.634874   -0.518501   -1.449864
     51          6           0        5.675978    1.755567   -0.446883
     52          7           0        4.972258    0.615546   -1.040923
     53          1           0        4.668077    1.176053    4.273285
     54          1           0        3.452983    1.921034    3.479158
     55          1           0        4.984853    2.047068    2.930008
     56          1           0        1.509497   -3.529749   -0.516735
     57          1           0        3.174745   -3.566221   -0.148337
     58          7           0        2.290722   -3.106294   -0.057911
     59          6           0        2.160506   -1.978404    0.643583
     60          6           0        2.935514   -0.179140    1.994030
     61          7           0        1.736078    0.416586    2.098337
     62          1           0       -0.193807    0.141605    1.465455
     63          6           0        0.812461   -0.273871    1.432673
     64          7           0        0.940892   -1.403729    0.729476
     65          1           0        6.105540   -0.608965    2.461366
     66          6           0        5.060743   -0.692942    2.160864
     67          7           0        4.573736   -1.657970    1.419772
     68          6           0        3.227085   -1.344294    1.306332
     69          6           0        4.323526    1.441485    3.372828
     70          7           0        4.124908    0.236670    2.543981
 ---------------------------------------------------------------------

 SCF Done:  E(RwB97XD) =  -2048.75077818     A.U. after   15 cycles

 The electronic state is 1-A.
 Alpha  occ. eigenvalues --  -19.25916 -19.22013 -19.20691 -14.52501 -14.51667
 Alpha  occ. eigenvalues --  -14.49313 -14.48657 -14.47861 -14.46935 -14.46632
 Alpha  occ. eigenvalues --  -14.46406 -14.44598 -14.43182 -14.43012 -14.42461
 Alpha  occ. eigenvalues --  -14.41980 -14.41859 -14.41439 -14.40758 -14.40607
 Alpha  occ. eigenvalues --  -10.45536 -10.41195 -10.40108 -10.38621 -10.38244
 Alpha  occ. eigenvalues --  -10.37610 -10.37134 -10.36198 -10.35793 -10.35664
 Alpha  occ. eigenvalues --  -10.34799 -10.34546 -10.34271 -10.33834 -10.33511
 Alpha  occ. eigenvalues --  -10.33477 -10.33255 -10.31565 -10.31561 -10.30820
 Alpha  occ. eigenvalues --  -10.30545 -10.28964 -10.28042  -1.19494  -1.14309
 Alpha  occ. eigenvalues --   -1.13209  -1.13135  -1.11861  -1.10528  -1.09349
 Alpha  occ. eigenvalues --   -1.08563  -1.07988  -1.05419  -1.03507  -1.02575
 Alpha  occ. eigenvalues --   -1.00813  -1.00043  -0.99720  -0.98508  -0.97421
 Alpha  occ. eigenvalues --   -0.96464  -0.95597  -0.93055  -0.90907  -0.86725
 Alpha  occ. eigenvalues --   -0.85164  -0.84439  -0.84006  -0.83864  -0.82807
 Alpha  occ. eigenvalues --   -0.82307  -0.78829  -0.75970  -0.74563  -0.73762
 Alpha  occ. eigenvalues --   -0.73608  -0.73378  -0.73321  -0.71485  -0.69320
 Alpha  occ. eigenvalues --   -0.67344  -0.66716  -0.66541  -0.65660  -0.64451
 Alpha  occ. eigenvalues --   -0.63719  -0.63262  -0.62988  -0.62631  -0.61701
 Alpha  occ. eigenvalues --   -0.60613  -0.60598  -0.59499  -0.59434  -0.58551
 Alpha  occ. eigenvalues --   -0.58384  -0.58328  -0.57109  -0.56928  -0.56360
 Alpha  occ. eigenvalues --   -0.55984  -0.55729  -0.54772  -0.54517  -0.54370
 Alpha  occ. eigenvalues --   -0.53611  -0.53508  -0.52869  -0.52753  -0.52633
 Alpha  occ. eigenvalues --   -0.52406  -0.52219  -0.51879  -0.51286  -0.50643
 Alpha  occ. eigenvalues --   -0.50125  -0.49578  -0.49503  -0.49246  -0.48823
 Alpha  occ. eigenvalues --   -0.48793  -0.48312  -0.47810  -0.47540  -0.47420
 Alpha  occ. eigenvalues --   -0.47378  -0.45515  -0.45378  -0.43821  -0.43368
 Alpha  occ. eigenvalues --   -0.41625  -0.39768  -0.39479  -0.37601  -0.37239
 Alpha  occ. eigenvalues --   -0.37208  -0.37061  -0.36567  -0.35783  -0.34187
 Alpha  occ. eigenvalues --   -0.34056  -0.33845  -0.33694  -0.33325  -0.33190
 Alpha  occ. eigenvalues --   -0.32683  -0.32233  -0.31864  -0.31732  -0.31401
 Alpha  occ. eigenvalues --   -0.30812  -0.28503  -0.26226  -0.25320
 Alpha virt. eigenvalues --    0.03057   0.04976   0.07521   0.08073   0.08493
 Alpha virt. eigenvalues --    0.08957   0.09800   0.10598   0.10761   0.11927
 Alpha virt. eigenvalues --    0.13289   0.13640   0.14316   0.14673   0.15076

 Mulliken charges:
               1
     1  N   -0.309990
     2  C    0.179938
     3  C    0.050849
     4  N   -0.249885
     5  C    0.125607
     6  H    0.027183
     7  N   -0.286142
     8  C    0.133766
     9  H    0.014826
    10  N   -0.292379
    11  C    0.231034
    12  C    0.098385
    13  N   -0.041036
    14  H    0.111194
    15  H    0.091860
    16  H    0.027998
    17  H    0.034612
    18  H    0.022754
    19  N   -0.304278
    20  C    0.257304
    21  C    0.181973
    22  N   -0.119105
    23  H    0.114454
    24  H    0.117588
    25  N   -0.308094
    26  C    0.240519
    27  N   -0.143846
    28  H    0.121316
    29  C    0.174189
    30  O   -0.325393
    31  C   -0.011345
    32  N   -0.223845
    33  C    0.128572
    34  H    0.023485
    35  H    0.026423
    36  H    0.028210
    37  H    0.021292
    38  H    0.045486
    39  H    0.063193
    40  H    0.075286
    41  H    0.025595
    42  C   -0.086346
    43  O   -0.278611
    44  C    0.158120
    45  H    0.135992
    46  N   -0.123190
    47  O   -0.345159
    48  C    0.344511
    49  H    0.043735
    50  C    0.180136
    51  C    0.041148
    52  N   -0.280289
    53  H    0.033071
    54  H    0.040143
    55  H    0.017255
    56  H    0.123815
    57  H    0.116906
    58  N   -0.033482
    59  C    0.099392
    60  C    0.238688
    61  N   -0.274498
    62  H    0.034344
    63  C    0.157936
    64  N   -0.303766
    65  H    0.030689
    66  C    0.114626
    67  N   -0.247506
    68  C    0.004848
    69  C    0.182493
    70  N   -0.304552
 Sum of Mulliken charges =  -0.00000

 Dipole moment (field-independent basis, Debye):
    X=              5.7725    Y=              5.7005    Z=              4.1832  Tot=              9.1278
 Quadrupole moment (field-independent basis, Debye-Ang):
   XX=           -143.5491   YY=           -225.0464   ZZ=           -257.0719
   XY=              9.3738   XZ=             13.7548   YZ=              1.7940

 Normal termination of Gaussian 16 at Fri Jan 19 15:08:04 2018.
