 Gaussian 16, Revision A.03,
 Gaussian 16:  EM64L-G16RevA.03 25-Dec-2016

 ---------------------------------------
 #p wb97xd/cc-pvdz sp scf=(maxcycles=20)
 ---------------------------------------

 ------------------
 Base pair stacking
 ------------------
 Symbolic Z-matrix:
 Charge =  0 Multiplicity = 1

                         Standard orientation:
 ---------------------------------------------------------------------
 Center     Atomic      Atomic             Coordinates (Angstroms)
 Number     Number       Type             X           Y           Z
 ---------------------------------------------------------------------
      1          7           0        5.462258   -1.225826   -1.213184
      2          6           0        6.782143   -0.590119   -1.391511
      3          6           0        3.295559   -1.594008   -1.128737
      4          7           0        3.905992   -2.782175   -0.754125
      5          6           0        5.186924   -2.512813   -0.819991
      6          1           0        5.982320   -3.222459   -0.590461
      7          7           0        1.677299    0.039421   -1.654208
      8          6           0        2.700359    0.865734   -1.895291
      9          1           0        2.422224    1.870955   -2.209028
     10          7           0        4.009270    0.637820   -1.807428
     11          6           0        4.242005   -0.625522   -1.414704
     12          6           0        1.944488   -1.225023   -1.260676
     13          7           0        0.924582   -2.051357   -1.019535
     14          1           0        1.075614   -2.996003   -0.726192
     15          1           0       -0.024708   -1.754520   -1.123819
     16          1           0        7.302779   -1.088589   -2.084785
     17          1           0        6.659599    0.357382   -1.685359
     18          1           0        7.282168   -0.606781   -0.525669
     19          7           0        4.657956    1.375005    1.123804
     20          6           0        3.294727    1.523367    1.036336
     21          6           0        5.655303    2.364258    0.668447
     22          7           0        0.527384    3.406496    0.110387
     23          1           0       -0.467936    3.318477    0.139399
     24          1           0        0.897124    4.248531   -0.283283
     25          7           0        2.642551    2.589231    0.523829
     26          6           0        1.330989    2.439353    0.578104
     27          7           0        0.704069    1.331234    1.094390
     28          1           0       -0.303974    1.302864    1.095024
     29          6           0        1.355055    0.222877    1.626977
     30          8           0        0.694860   -0.726187    2.067596
     31          6           0        2.764595    0.369258    1.575601
     32          7           0        3.774687   -0.486438    1.993212
     33          6           0        4.877448    0.150416    1.705914
     34          1           0        5.881669   -0.228913    1.898093
     35          1           0        6.237339    1.954578   -0.033118
     36          1           0        5.183901    3.158262    0.286849
     37          1           0        6.218642    2.652435    1.442032
     38          1           0       -5.309116    1.498211    0.221464
     39          1           0       -5.374656    1.990730    1.911970
     40          1           0       -3.977284    2.417205    0.923623
     41          1           0       -4.771563   -2.757349    2.400413
     42          6           0       -4.182593   -1.870833    2.164970
     43          8           0       -2.095338   -2.928682    2.554089
     44          6           0       -2.755131   -1.938331    2.239968
     45          1           0       -1.097309   -0.770523    1.964002
     46          7           0       -2.106725   -0.761925    1.922371
     47          8           0       -2.024239    1.417787    1.290510
     48          6           0       -2.683622    0.427471    1.553473
     49          1           0       -5.856123   -0.621371    1.736056
     50          6           0       -4.774256   -0.724869    1.808153
     51          6           0       -4.724838    1.661723    1.114749
     52          7           0       -4.063689    0.413129    1.504153
     53          1           0       -5.605057    2.914878   -2.829501
     54          1           0       -4.325285    3.191423   -1.855950
     55          1           0       -5.824689    3.079858   -1.220789
     56          1           0       -2.444401   -3.518263   -0.908437
     57          1           0       -4.124266   -3.351773   -1.154302
     58          7           0       -3.226091   -2.917617   -1.076761
     59          6           0       -3.078426   -1.596291   -1.192813
     60          6           0       -3.833899    0.635352   -1.525642
     61          7           0       -2.615677    1.190834   -1.417022
     62          1           0       -0.673464    0.621606   -1.093934
     63          6           0       -1.694260    0.255585   -1.195200
     64          7           0       -1.840163   -1.068310   -1.078636
     65          1           0       -7.036954    0.524825   -1.950345
     66          6           0       -5.984545    0.293639   -1.783240
     67          7           0       -5.507408   -0.912271   -1.594006
     68          6           0       -4.144824   -0.709862   -1.429355
     69          6           0       -5.210145    2.732296   -1.929109
     70          7           0       -5.027327    1.278325   -1.754387
 ---------------------------------------------------------------------

 SCF Done:  E(RwB97XD) =  -2048.73980655     A.U. after   15 cycles

 The electronic state is 1-A.
 Alpha  occ. eigenvalues --  -19.25198 -19.21530 -19.20538 -14.52602 -14.51908
 Alpha  occ. eigenvalues --  -14.49152 -14.48673 -14.48038 -14.47317 -14.46680
 Alpha  occ. eigenvalues --  -14.46580 -14.45696 -14.44464 -14.44358 -14.42857
 Alpha  occ. eigenvalues --  -14.41852 -14.41611 -14.41315 -14.40901 -14.40732
 Alpha  occ. eigenvalues --  -10.44828 -10.41086 -10.39961 -10.39641 -10.38177
 Alpha  occ. eigenvalues --  -10.38154 -10.37302 -10.37190 -10.35950 -10.35937
 Alpha  occ. eigenvalues --  -10.34388 -10.34372 -10.34328 -10.34239 -10.33731
 Alpha  occ. eigenvalues --  -10.33454 -10.33419 -10.32762 -10.31773 -10.30746
 Alpha  occ. eigenvalues --  -10.30595 -10.28856 -10.28065  -1.18966  -1.15571
 Alpha  occ. eigenvalues --   -1.13102  -1.12550  -1.11690  -1.10504  -1.09383
 Alpha  occ. eigenvalues --   -1.08815  -1.08455  -1.05527  -1.04847  -1.02002
 Alpha  occ. eigenvalues --   -1.01261  -1.00934  -0.99618  -0.98424  -0.97399
 Alpha  occ. eigenvalues --   -0.96929  -0.96500  -0.93205  -0.90515  -0.87869
 Alpha  occ. eigenvalues --   -0.86246  -0.84426  -0.84027  -0.83259  -0.82893
 Alpha  occ. eigenvalues --   -0.82357  -0.78358  -0.77195  -0.75015  -0.74539
 Alpha  occ. eigenvalues --   -0.73510  -0.73350  -0.72891  -0.71482  -0.70549
 Alpha  occ. eigenvalues --   -0.67299  -0.66905  -0.66779  -0.66112  -0.64428
 Alpha  occ. eigenvalues --   -0.64216  -0.63688  -0.63200  -0.62534  -0.62112
 Alpha  occ. eigenvalues --   -0.61684  -0.60892  -0.60606  -0.59682  -0.59080
 Alpha  occ. eigenvalues --   -0.58375  -0.58254  -0.57827  -0.57056  -0.56108
 Alpha  occ. eigenvalues --   -0.55942  -0.55649  -0.55463  -0.54059  -0.54000
 Alpha  occ. eigenvalues --   -0.53893  -0.53697  -0.53431  -0.53202  -0.53026
 Alpha  occ. eigenvalues --   -0.52821  -0.52285  -0.52008  -0.51063  -0.50632
 Alpha  occ. eigenvalues --   -0.50200  -0.49946  -0.49340  -0.49119  -0.48768
 Alpha  occ. eigenvalues --   -0.48598  -0.48251  -0.48163  -0.47603  -0.47163
 Alpha  occ. eigenvalues --   -0.47110  -0.46021  -0.45230  -0.44954  -0.42959
 Alpha  occ. eigenvalues --   -0.41369  -0.40925  -0.38970  -0.37795  -0.37693
 Alpha  occ. eigenvalues --   -0.37549  -0.37129  -0.36950  -0.36087  -0.34802
 Alpha  occ. eigenvalues --   -0.34481  -0.34261  -0.33929  -0.33507  -0.32869
 Alpha  occ. eigenvalues --   -0.32500  -0.32105  -0.31756  -0.31488  -0.31313
 Alpha  occ. eigenvalues --   -0.30866  -0.29619  -0.26311  -0.25257
 Alpha virt. eigenvalues --    0.03352   0.03987   0.07012   0.07577   0.08701
 Alpha virt. eigenvalues --    0.09130   0.09749   0.10183   0.10577   0.12664
 Alpha virt. eigenvalues --    0.13221   0.13483   0.14120   0.14233   0.14508

 Mulliken charges:
               1
     1  N   -0.301755
     2  C    0.173041
     3  C    0.078279
     4  N   -0.252077
     5  C    0.133710
     6  H    0.026106
     7  N   -0.285573
     8  C    0.134607
     9  H    0.011207
    10  N   -0.280248
    11  C    0.216536
    12  C    0.080134
    13  N   -0.046732
    14  H    0.111017
    15  H    0.084616
    16  H    0.028766
    17  H    0.042246
    18  H    0.017585
    19  N   -0.286363
    20  C    0.236352
    21  C    0.193012
    22  N   -0.115928
    23  H    0.118965
    24  H    0.117108
    25  N   -0.294339
    26  C    0.225544
    27  N   -0.128716
    28  H    0.113544
    29  C    0.175762
    30  O   -0.322216
    31  C   -0.005789
    32  N   -0.214803
    33  C    0.109481
    34  H    0.016967
    35  H    0.003073
    36  H    0.031837
    37  H    0.022260
    38  H    0.047564
    39  H    0.055147
    40  H    0.074406
    41  H    0.024125
    42  C   -0.103401
    43  O   -0.269206
    44  C    0.166908
    45  H    0.129617
    46  N   -0.110744
    47  O   -0.337556
    48  C    0.329486
    49  H    0.044442
    50  C    0.169013
    51  C    0.047428
    52  N   -0.274008
    53  H    0.037278
    54  H    0.042806
    55  H    0.023722
    56  H    0.124684
    57  H    0.118830
    58  N   -0.057497
    59  C    0.093514
    60  C    0.179898
    61  N   -0.250912
    62  H    0.021021
    63  C    0.159726
    64  N   -0.295912
    65  H    0.035550
    66  C    0.115113
    67  N   -0.247862
    68  C    0.059562
    69  C    0.177195
    70  N   -0.297149
 Sum of Mulliken charges =  -0.00000

 Dipole moment (field-independent basis, Debye):
    X=             -5.6708    Y=              6.6275    Z=             -4.0199  Tot=              9.6042
 Quadrupole moment (field-independent basis, Debye-Ang):
   XX=           -148.1388   YY=           -226.2751   ZZ=           -261.0373
   XY=             -9.2549   XZ=             -0.3309   YZ=              9.9532

 Normal termination of Gaussian 16 at Fri Jan 19 14:06:48 2018.
