 Gaussian 16, Revision A.03,
 Gaussian 16:  EM64L-G16RevA.03 25-Dec-2016

 ---------------------------------------
 #p wb97xd/cc-pvdz sp scf=(maxcycles=20)
 ---------------------------------------

 ------------------
 Base pair stacking
 ------------------
 Symbolic Z-matrix:
 Charge =  0 Multiplicity = 1

                         Standard orientation:
 ---------------------------------------------------------------------
 Center     Atomic      Atomic             Coordinates (Angstroms)
 Number     Number       Type             X           Y           Z
 ---------------------------------------------------------------------
      1          7           0        4.238914   -1.367660   -1.935737
      2          6           0        5.535714   -0.821021   -2.380156
      3          6           0        2.099148   -1.619501   -1.493806
      4          7           0        2.722931   -2.783314   -1.068162
      5          6           0        3.987093   -2.585008   -1.351442
      6          1           0        4.786285   -3.300005   -1.153913
      7          7           0        0.470093    0.016410   -1.976437
      8          6           0        1.469861    0.758923   -2.462947
      9          1           0        1.178135    1.732529   -2.854422
     10          7           0        2.769791    0.480654   -2.538155
     11          6           0        3.020749   -0.737558   -2.030794
     12          6           0        0.755184   -1.204448   -1.473133
     13          7           0       -0.241447   -1.947136   -0.987022
     14          1           0       -0.076581   -2.856980   -0.604625
     15          1           0       -1.186359   -1.619587   -0.988504
     16          1           0        5.931717   -1.421671   -3.074830
     17          1           0        5.399009    0.090236   -2.767517
     18          1           0        6.158833   -0.759855   -1.600426
     19          7           0        5.820287    1.143735    0.664689
     20          6           0        4.466040    1.351144    0.769822
     21          6           0        6.806248    2.150109    0.222187
     22          7           0        1.709985    3.441048    0.456460
     23          1           0        0.722093    3.385353    0.598601
     24          1           0        2.073410    4.315543    0.134137
     25          7           0        3.813793    2.499906    0.488827
     26          6           0        2.512154    2.390768    0.687419
     27          7           0        1.894541    1.245174    1.127500
     28          1           0        0.893748    1.252886    1.251232
     29          6           0        2.545796    0.051632    1.422785
     30          8           0        1.894434   -0.924925    1.813685
     31          6           0        3.944732    0.153425    1.214249
     32          7           0        4.951444   -0.786985    1.384692
     33          6           0        6.043620   -0.156326    1.047599
     34          1           0        7.042407   -0.593977    1.060065
     35          1           0        7.277766    1.820386   -0.594977
     36          1           0        6.334679    3.005314    0.011223
     37          1           0        7.472530    2.308880    0.949975
     38          1           0       -4.162898    1.744569    1.047947
     39          1           0       -3.999502    2.001851    2.783390
     40          1           0       -2.710273    2.510235    1.692161
     41          1           0       -3.591395   -2.786709    2.560387
     42          6           0       -2.989329   -1.897761    2.371918
     43          8           0       -0.928693   -3.072698    2.352079
     44          6           0       -1.568670   -2.025700    2.257119
     45          1           0        0.102925   -0.890773    1.931483
     46          7           0       -0.902364   -0.840614    2.018694
     47          8           0       -0.782309    1.400982    1.675077
     48          6           0       -1.456311    0.407994    1.885747
     49          1           0       -4.634547   -0.542411    2.325882
     50          6           0       -3.558734   -0.693282    2.246957
     51          6           0       -3.468024    1.762725    1.874323
     52          7           0       -2.831179    0.449707    2.009014
     53          1           0       -6.816865    3.078595   -2.429833
     54          1           0       -5.398236    3.406012   -1.693345
     55          1           0       -6.788489    3.441446   -0.838933
     56          1           0       -3.598311   -3.228318   -0.209624
     57          1           0       -5.290307   -3.011786   -0.228291
     58          7           0       -4.378061   -2.614918   -0.335632
     59          6           0       -4.209961   -1.324905   -0.633576
     60          6           0       -4.939640    0.885793   -1.125619
     61          7           0       -3.702814    1.391377   -1.263727
     62          1           0       -1.752020    0.771887   -1.157671
     63          6           0       -2.786976    0.445683   -1.064242
     64          7           0       -2.953328   -0.846918   -0.765738
     65          1           0       -8.172046    0.879298   -1.065227
     66          6           0       -7.113871    0.619314   -1.025084
     67          7           0       -6.650080   -0.577468   -0.759970
     68          6           0       -5.272757   -0.422430   -0.820505
     69          6           0       -6.297415    2.984255   -1.580556
     70          7           0       -6.134087    1.553748   -1.256534
 ---------------------------------------------------------------------

 SCF Done:  E(RwB97XD) =  -2048.75024012     A.U. after   15 cycles

 The electronic state is 1-A.
 Alpha  occ. eigenvalues --  -19.25198 -19.21517 -19.20757 -14.52729 -14.51629
 Alpha  occ. eigenvalues --  -14.49559 -14.48435 -14.48431 -14.47200 -14.47003
 Alpha  occ. eigenvalues --  -14.46817 -14.45576 -14.44831 -14.44783 -14.42795
 Alpha  occ. eigenvalues --  -14.42218 -14.41788 -14.41229 -14.40872 -14.40755
 Alpha  occ. eigenvalues --  -10.44771 -10.41460 -10.40330 -10.39572 -10.38492
 Alpha  occ. eigenvalues --  -10.38176 -10.37591 -10.36994 -10.36291 -10.35789
 Alpha  occ. eigenvalues --  -10.34914 -10.34142 -10.34058 -10.34051 -10.33708
 Alpha  occ. eigenvalues --  -10.33385 -10.33382 -10.33119 -10.31666 -10.30743
 Alpha  occ. eigenvalues --  -10.30375 -10.28663 -10.28580  -1.18741  -1.15497
 Alpha  occ. eigenvalues --   -1.13498  -1.12503  -1.11179  -1.11087  -1.09773
 Alpha  occ. eigenvalues --   -1.08784  -1.08493  -1.05371  -1.05243  -1.01817
 Alpha  occ. eigenvalues --   -1.01189  -1.00755  -0.99927  -0.98912  -0.97353
 Alpha  occ. eigenvalues --   -0.97211  -0.96708  -0.93062  -0.90309  -0.87974
 Alpha  occ. eigenvalues --   -0.86123  -0.84730  -0.83842  -0.83161  -0.82725
 Alpha  occ. eigenvalues --   -0.82229  -0.78205  -0.77334  -0.75238  -0.75096
 Alpha  occ. eigenvalues --   -0.73881  -0.72971  -0.72679  -0.71199  -0.70720
 Alpha  occ. eigenvalues --   -0.67703  -0.67129  -0.66389  -0.65906  -0.64720
 Alpha  occ. eigenvalues --   -0.64514  -0.63430  -0.62865  -0.62841  -0.62082
 Alpha  occ. eigenvalues --   -0.60830  -0.60695  -0.60388  -0.59745  -0.58951
 Alpha  occ. eigenvalues --   -0.58908  -0.58532  -0.57803  -0.56646  -0.55815
 Alpha  occ. eigenvalues --   -0.55797  -0.55736  -0.55457  -0.54647  -0.54328
 Alpha  occ. eigenvalues --   -0.53924  -0.53878  -0.53413  -0.53240  -0.53052
 Alpha  occ. eigenvalues --   -0.52554  -0.51652  -0.51621  -0.50732  -0.50525
 Alpha  occ. eigenvalues --   -0.50445  -0.50119  -0.49687  -0.49375  -0.48971
 Alpha  occ. eigenvalues --   -0.48897  -0.48348  -0.48272  -0.47579  -0.47232
 Alpha  occ. eigenvalues --   -0.46990  -0.45708  -0.45600  -0.45186  -0.42662
 Alpha  occ. eigenvalues --   -0.41380  -0.41027  -0.39005  -0.38131  -0.37895
 Alpha  occ. eigenvalues --   -0.37779  -0.37502  -0.37107  -0.35420  -0.35080
 Alpha  occ. eigenvalues --   -0.34769  -0.34198  -0.33569  -0.33492  -0.33240
 Alpha  occ. eigenvalues --   -0.33013  -0.32625  -0.32101  -0.31100  -0.30903
 Alpha  occ. eigenvalues --   -0.30660  -0.30502  -0.26357  -0.25591
 Alpha virt. eigenvalues --    0.02541   0.04824   0.06431   0.07835   0.08517
 Alpha virt. eigenvalues --    0.09052   0.09515   0.10188   0.10734   0.12340
 Alpha virt. eigenvalues --    0.13207   0.13551   0.14047   0.14493   0.14868

 Mulliken charges:
               1
     1  N   -0.300692
     2  C    0.186523
     3  C    0.048198
     4  N   -0.247525
     5  C    0.152837
     6  H    0.027874
     7  N   -0.293809
     8  C    0.125527
     9  H    0.007909
    10  N   -0.279314
    11  C    0.234676
    12  C    0.080527
    13  N   -0.061782
    14  H    0.118453
    15  H    0.087813
    16  H    0.024562
    17  H    0.032044
    18  H    0.011735
    19  N   -0.307540
    20  C    0.253854
    21  C    0.183129
    22  N   -0.120974
    23  H    0.119594
    24  H    0.119358
    25  N   -0.307113
    26  C    0.245897
    27  N   -0.139287
    28  H    0.119713
    29  C    0.190292
    30  O   -0.317458
    31  C   -0.012970
    32  N   -0.219021
    33  C    0.100223
    34  H    0.026043
    35  H    0.019565
    36  H    0.033692
    37  H    0.027252
    38  H    0.057469
    39  H    0.052597
    40  H    0.074283
    41  H    0.016575
    42  C   -0.104864
    43  O   -0.273295
    44  C    0.170143
    45  H    0.131983
    46  N   -0.123757
    47  O   -0.350396
    48  C    0.341398
    49  H    0.046004
    50  C    0.163009
    51  C    0.046850
    52  N   -0.274349
    53  H    0.035490
    54  H    0.041542
    55  H    0.030225
    56  H    0.125033
    57  H    0.118221
    58  N   -0.053754
    59  C    0.083501
    60  C    0.219320
    61  N   -0.262002
    62  H    0.035315
    63  C    0.160946
    64  N   -0.304485
    65  H    0.039981
    66  C    0.141165
    67  N   -0.259241
    68  C    0.036875
    69  C    0.179085
    70  N   -0.310673
 Sum of Mulliken charges =  -0.00000

 Dipole moment (field-independent basis, Debye):
    X=             -6.0080    Y=              7.7235    Z=             -1.8492  Tot=              9.9583
 Quadrupole moment (field-independent basis, Debye-Ang):
   XX=           -149.1615   YY=           -227.7405   ZZ=           -255.3930
   XY=             -2.4639   XZ=            -13.9724   YZ=             10.7132

 Normal termination of Gaussian 16 at Sat Jan 20 07:06:00 2018.
