 Gaussian 16, Revision A.03,
 Gaussian 16:  EM64L-G16RevA.03 25-Dec-2016

 ---------------------------------------
 #p wb97xd/cc-pvdz sp scf=(maxcycles=20)
 ---------------------------------------

 ------------------
 Base pair stacking
 ------------------
 Symbolic Z-matrix:
 Charge =  0 Multiplicity = 1

                         Standard orientation:
 ---------------------------------------------------------------------
 Center     Atomic      Atomic             Coordinates (Angstroms)
 Number     Number       Type             X           Y           Z
 ---------------------------------------------------------------------
      1          7           0       -7.134535   -0.858910    0.180608
      2          6           0       -8.427720   -0.155972    0.288185
      3          6           0       -5.000475   -1.375282    0.308876
      4          7           0       -5.623095   -2.449318   -0.310412
      5          6           0       -6.883874   -2.095238   -0.362900
      6          1           0       -7.681267   -2.703156   -0.791320
      7          7           0       -3.375018    0.040551    1.266094
      8          6           0       -4.371873    0.900277    1.500047
      9          1           0       -4.080507    1.827505    1.991579
     10          7           0       -5.668513    0.787117    1.219292
     11          6           0       -5.919298   -0.387308    0.617411
     12          6           0       -3.659860   -1.132234    0.659042
     13          7           0       -2.666134   -1.991733    0.424647
     14          1           0       -2.830942   -2.871690   -0.022271
     15          1           0       -1.723561   -1.785492    0.687644
     16          1           0       -9.063359   -0.705660    0.830381
     17          1           0       -8.291005    0.728894    0.732524
     18          1           0       -8.808770   -0.013029   -0.625254
     19          7           0       -2.808104    1.855534   -1.501433
     20          6           0       -1.460864    1.891087   -1.233594
     21          6           0       -3.766453    2.939031   -1.204297
     22          7           0        1.313364    3.562075    0.020664
     23          1           0        2.292125    3.389609    0.128031
     24          1           0        0.969907    4.444123    0.344302
     25          7           0       -0.791593    2.913585   -0.658597
     26          6           0        0.497311    2.652050   -0.532336
     27          7           0        1.087610    1.479504   -0.937540
     28          1           0        2.080400    1.366251   -0.801496
     29          6           0        0.418455    0.413962   -1.531435
     30          8           0        1.045520   -0.600617   -1.860283
     31          6           0       -0.967095    0.680190   -1.673722
     32          7           0       -1.983883   -0.099877   -2.207153
     33          6           0       -3.054887    0.636301   -2.083861
     34          1           0       -4.054047    0.337203   -2.402451
     35          1           0       -4.470197    2.601882   -0.579896
     36          1           0       -3.282100    3.701936   -0.778094
     37          1           0       -4.194560    3.249477   -2.052334
     38          1           0        6.922807    1.166001    0.735934
     39          1           0        7.255281    1.598442   -0.939509
     40          1           0        5.781837    2.171727   -0.157411
     41          1           0        6.308274   -3.094778   -1.412251
     42          6           0        5.773298   -2.154873   -1.275817
     43          8           0        3.671558   -3.044571   -1.922519
     44          6           0        4.368085   -2.104084   -1.541560
     45          1           0        2.797185   -0.792644   -1.514793
     46          7           0        3.788947   -0.867898   -1.337414
     47          8           0        3.814779    1.329608   -0.765101
     48          6           0        4.413812    0.279526   -0.917267
     49          1           0        7.478107   -1.038218   -0.649305
     50          6           0        6.410544   -1.052330   -0.864791
     51          6           0        6.478988    1.350332   -0.231075
     52          7           0        5.768467    0.150423   -0.681769
     53          1           0        3.840418    2.160771    3.740874
     54          1           0        2.718886    2.667548    2.669689
     55          1           0        4.280307    2.532440    2.213863
     56          1           0        0.598079   -3.680441    0.510849
     57          1           0        2.237325   -3.678273    0.983033
     58          7           0        1.383765   -3.170514    0.861307
     59          6           0        1.298112   -1.871136    1.153654
     60          6           0        2.129679    0.227847    1.904976
     61          7           0        0.970496    0.884066    1.731537
     62          1           0       -0.941246    0.515093    1.091463
     63          6           0        0.034429    0.061943    1.261643
     64          7           0        0.118252   -1.239764    0.968203
     65          1           0        5.236580   -0.184338    2.698357
     66          6           0        4.204062   -0.309124    2.370835
     67          7           0        3.687768   -1.436796    1.947182
     68          6           0        2.372882   -1.110289    1.648508
     69          6           0        3.558434    2.136765    2.781758
     70          7           0        3.317209    0.739782    2.371555
 ---------------------------------------------------------------------

 SCF Done:  E(RwB97XD) =  -2048.74520365     A.U. after   15 cycles

 The electronic state is 1-A.
 Alpha  occ. eigenvalues --  -19.26102 -19.21978 -19.20581 -14.52593 -14.51192
 Alpha  occ. eigenvalues --  -14.49896 -14.48427 -14.47832 -14.46670 -14.46586
 Alpha  occ. eigenvalues --  -14.46236 -14.44141 -14.43008 -14.42698 -14.42573
 Alpha  occ. eigenvalues --  -14.42569 -14.42125 -14.41967 -14.41211 -14.40670
 Alpha  occ. eigenvalues --  -10.45638 -10.41078 -10.40069 -10.38244 -10.38168
 Alpha  occ. eigenvalues --  -10.37691 -10.36780 -10.36463 -10.35913 -10.35732
 Alpha  occ. eigenvalues --  -10.35206 -10.34558 -10.34272 -10.34204 -10.34185
 Alpha  occ. eigenvalues --  -10.33285 -10.33069 -10.31875 -10.31140 -10.31021
 Alpha  occ. eigenvalues --  -10.30152 -10.29724 -10.28013  -1.19632  -1.13880
 Alpha  occ. eigenvalues --   -1.13137  -1.12996  -1.12510  -1.10405  -1.09465
 Alpha  occ. eigenvalues --   -1.08490  -1.07583  -1.06087  -1.03143  -1.02511
 Alpha  occ. eigenvalues --   -1.01480  -0.99745  -0.99599  -0.98409  -0.98029
 Alpha  occ. eigenvalues --   -0.96311  -0.95219  -0.93698  -0.91045  -0.86363
 Alpha  occ. eigenvalues --   -0.85054  -0.84850  -0.84049  -0.83876  -0.83355
 Alpha  occ. eigenvalues --   -0.82091  -0.78911  -0.75617  -0.74475  -0.73948
 Alpha  occ. eigenvalues --   -0.73594  -0.73394  -0.73287  -0.72172  -0.68996
 Alpha  occ. eigenvalues --   -0.67341  -0.67289  -0.66592  -0.65312  -0.64467
 Alpha  occ. eigenvalues --   -0.63769  -0.63611  -0.62839  -0.62593  -0.61637
 Alpha  occ. eigenvalues --   -0.61139  -0.60311  -0.59544  -0.59197  -0.58580
 Alpha  occ. eigenvalues --   -0.58336  -0.58262  -0.57463  -0.57405  -0.56539
 Alpha  occ. eigenvalues --   -0.56228  -0.56044  -0.54663  -0.54421  -0.54234
 Alpha  occ. eigenvalues --   -0.53667  -0.53488  -0.52908  -0.52825  -0.52709
 Alpha  occ. eigenvalues --   -0.52441  -0.52022  -0.51737  -0.51528  -0.51159
 Alpha  occ. eigenvalues --   -0.50045  -0.50000  -0.49477  -0.48720  -0.48632
 Alpha  occ. eigenvalues --   -0.48491  -0.48143  -0.48013  -0.47719  -0.47625
 Alpha  occ. eigenvalues --   -0.47331  -0.46009  -0.45183  -0.44068  -0.43073
 Alpha  occ. eigenvalues --   -0.42195  -0.39635  -0.39458  -0.38295  -0.37195
 Alpha  occ. eigenvalues --   -0.37151  -0.36770  -0.36013  -0.35319  -0.34638
 Alpha  occ. eigenvalues --   -0.34578  -0.34485  -0.33194  -0.33034  -0.32882
 Alpha  occ. eigenvalues --   -0.32596  -0.32338  -0.31913  -0.31820  -0.31742
 Alpha  occ. eigenvalues --   -0.31354  -0.28188  -0.26812  -0.25371
 Alpha virt. eigenvalues --    0.03188   0.05137   0.06796   0.08241   0.08588
 Alpha virt. eigenvalues --    0.09133   0.09699   0.09987   0.10830   0.12113
 Alpha virt. eigenvalues --    0.12865   0.13026   0.14550   0.14768   0.15307

 Mulliken charges:
               1
     1  N   -0.310569
     2  C    0.180492
     3  C    0.036688
     4  N   -0.256287
     5  C    0.132526
     6  H    0.030147
     7  N   -0.272466
     8  C    0.124219
     9  H    0.020816
    10  N   -0.290205
    11  C    0.232893
    12  C    0.095054
    13  N   -0.038501
    14  H    0.107760
    15  H    0.089419
    16  H    0.028469
    17  H    0.035723
    18  H    0.026471
    19  N   -0.296725
    20  C    0.236328
    21  C    0.182206
    22  N   -0.108038
    23  H    0.108803
    24  H    0.116406
    25  N   -0.295908
    26  C    0.227462
    27  N   -0.116258
    28  H    0.120224
    29  C    0.138882
    30  O   -0.322898
    31  C    0.006052
    32  N   -0.224688
    33  C    0.120688
    34  H    0.028868
    35  H    0.023066
    36  H    0.026001
    37  H    0.021381
    38  H    0.051803
    39  H    0.065180
    40  H    0.077243
    41  H    0.030995
    42  C   -0.097444
    43  O   -0.271758
    44  C    0.184703
    45  H    0.134711
    46  N   -0.129885
    47  O   -0.350634
    48  C    0.348841
    49  H    0.045884
    50  C    0.169725
    51  C    0.033791
    52  N   -0.289711
    53  H    0.032208
    54  H    0.032107
    55  H    0.015686
    56  H    0.117848
    57  H    0.120625
    58  N   -0.056880
    59  C    0.132548
    60  C    0.228255
    61  N   -0.265541
    62  H    0.050589
    63  C    0.147136
    64  N   -0.301982
    65  H    0.024205
    66  C    0.114171
    67  N   -0.251448
    68  C    0.012568
    69  C    0.177532
    70  N   -0.297574
 Sum of Mulliken charges =  -0.00000

 Dipole moment (field-independent basis, Debye):
    X=              5.2077    Y=              5.8000    Z=              3.8408  Tot=              8.6897
 Quadrupole moment (field-independent basis, Debye-Ang):
   XX=           -137.9804   YY=           -227.2192   ZZ=           -255.6934
   XY=             16.2066   XZ=             20.2499   YZ=             -4.7747

 Normal termination of Gaussian 16 at Fri Jan 19 13:04:57 2018.
