 Gaussian 16, Revision A.03,
 Gaussian 16:  EM64L-G16RevA.03 25-Dec-2016

 ---------------------------------------
 #p wb97xd/cc-pvdz sp scf=(maxcycles=20)
 ---------------------------------------

 ------------------
 Base pair stacking
 ------------------
 Symbolic Z-matrix:
 Charge =  0 Multiplicity = 1

                         Standard orientation:
 ---------------------------------------------------------------------
 Center     Atomic      Atomic             Coordinates (Angstroms)
 Number     Number       Type             X           Y           Z
 ---------------------------------------------------------------------
      1          7           0       -6.888888   -0.978176    0.279671
      2          6           0       -8.192728   -0.321252    0.495157
      3          6           0       -4.743573   -1.462056    0.308097
      4          7           0       -5.357406   -2.462969   -0.430905
      5          6           0       -6.625319   -2.131385   -0.418445
      6          1           0       -7.419009   -2.697431   -0.906898
      7          7           0       -3.127384   -0.143518    1.409162
      8          6           0       -4.135586    0.659304    1.764914
      9          1           0       -3.852530    1.523670    2.364092
     10          7           0       -5.434855    0.555207    1.492933
     11          6           0       -5.674798   -0.539726    0.752679
     12          6           0       -3.401484   -1.236880    0.664504
     13          7           0       -2.396421   -2.039494    0.308384
     14          1           0       -2.553027   -2.859916   -0.242622
     15          1           0       -1.453161   -1.848195    0.580073
     16          1           0       -8.807908   -0.947502    0.974261
     17          1           0       -8.064348    0.503788    1.044666
     18          1           0       -8.593164   -0.073188   -0.386955
     19          7           0       -3.082133    1.975578   -1.403226
     20          6           0       -1.730330    2.006558   -1.158844
     21          6           0       -4.039215    3.041319   -1.044189
     22          7           0        1.059807    3.637852    0.112282
     23          1           0        2.041069    3.465809    0.194527
     24          1           0        0.718818    4.504172    0.478242
     25          7           0       -1.054703    3.007750   -0.554517
     26          6           0        0.237367    2.747435   -0.462745
     27          7           0        0.824826    1.595408   -0.926677
     28          1           0        1.820406    1.481424   -0.813606
     29          6           0        0.149133    0.552000   -1.551662
     30          8           0        0.774118   -0.445172   -1.933470
     31          6           0       -1.239883    0.817193   -1.657476
     32          7           0       -2.263184    0.054854   -2.203920
     33          6           0       -3.334701    0.780181   -2.030812
     34          1           0       -4.338357    0.489638   -2.343137
     35          1           0       -4.729928    2.675389   -0.421453
     36          1           0       -3.550157    3.788362   -0.595831
     37          1           0       -4.484170    3.384335   -1.870730
     38          1           0        6.691165    1.241367    0.625424
     39          1           0        6.990872    1.743976   -1.036566
     40          1           0        5.529823    2.277502   -0.204674
     41          1           0        6.054312   -2.930316   -1.684992
     42          6           0        5.518149   -1.999397   -1.500161
     43          8           0        3.408437   -2.871836   -2.144443
     44          6           0        4.108066   -1.944486   -1.737828
     45          1           0        2.532629   -0.642820   -1.628290
     46          7           0        3.527802   -0.720531   -1.472338
     47          8           0        3.555298    1.451655   -0.810489
     48          6           0        4.155661    0.411611   -1.016736
     49          1           0        7.229701   -0.901289   -0.859440
     50          6           0        6.158394   -0.911661   -1.055754
     51          6           0        6.228809    1.463203   -0.324879
     52          7           0        5.514951    0.279448   -0.811587
     53          1           0        4.091738    1.800225    4.014607
     54          1           0        2.941396    2.413517    3.033450
     55          1           0        4.496392    2.368935    2.539392
     56          1           0        0.899716   -3.657519    0.130078
     57          1           0        2.547068   -3.680309    0.572560
     58          7           0        1.682091   -3.179166    0.529093
     59          6           0        1.577663   -1.928598    0.983337
     60          6           0        2.383721    0.076824    1.978462
     61          7           0        1.209514    0.725350    1.907189
     62          1           0       -0.706513    0.399618    1.256532
     63          6           0        0.280421   -0.050866    1.352963
     64          7           0        0.383039   -1.303661    0.897364
     65          1           0        5.511862   -0.366625    2.664190
     66          6           0        4.475980   -0.470931    2.340142
     67          7           0        3.973052   -1.547283    1.786785
     68          6           0        2.647035   -1.213398    1.552434
     69          6           0        3.792603    1.890455    3.064674
     70          7           0        3.569918    0.551000    2.486496
 ---------------------------------------------------------------------

 SCF Done:  E(RwB97XD) =  -2048.75151358     A.U. after   15 cycles

 The electronic state is 1-A.
 Alpha  occ. eigenvalues --  -19.26053 -19.22074 -19.20614 -14.52540 -14.51300
 Alpha  occ. eigenvalues --  -14.49695 -14.48501 -14.47884 -14.46784 -14.46635
 Alpha  occ. eigenvalues --  -14.46195 -14.44234 -14.42763 -14.42743 -14.42726
 Alpha  occ. eigenvalues --  -14.42340 -14.41980 -14.41880 -14.40952 -14.40702
 Alpha  occ. eigenvalues --  -10.45604 -10.41129 -10.40134 -10.38274 -10.38198
 Alpha  occ. eigenvalues --  -10.37625 -10.36880 -10.36190 -10.35845 -10.35824
 Alpha  occ. eigenvalues --  -10.34981 -10.34434 -10.34300 -10.34252 -10.33928
 Alpha  occ. eigenvalues --  -10.33306 -10.33126 -10.31758 -10.31192 -10.30958
 Alpha  occ. eigenvalues --  -10.30269 -10.29455 -10.28031  -1.19589  -1.13960
 Alpha  occ. eigenvalues --   -1.13173  -1.13080  -1.12288  -1.10448  -1.09417
 Alpha  occ. eigenvalues --   -1.08513  -1.07632  -1.05815  -1.03169  -1.02558
 Alpha  occ. eigenvalues --   -1.01213  -0.99741  -0.99667  -0.98456  -0.97811
 Alpha  occ. eigenvalues --   -0.96357  -0.95265  -0.93432  -0.90985  -0.86414
 Alpha  occ. eigenvalues --   -0.84911  -0.84808  -0.84014  -0.83890  -0.83155
 Alpha  occ. eigenvalues --   -0.82149  -0.78880  -0.75670  -0.74486  -0.73712
 Alpha  occ. eigenvalues --   -0.73595  -0.73394  -0.73393  -0.71907  -0.69023
 Alpha  occ. eigenvalues --   -0.67302  -0.67100  -0.66582  -0.65343  -0.64462
 Alpha  occ. eigenvalues --   -0.63651  -0.63522  -0.62841  -0.62606  -0.61647
 Alpha  occ. eigenvalues --   -0.60917  -0.60369  -0.59523  -0.59225  -0.58434
 Alpha  occ. eigenvalues --   -0.58298  -0.58288  -0.57316  -0.57219  -0.56392
 Alpha  occ. eigenvalues --   -0.56058  -0.56022  -0.54574  -0.54410  -0.54263
 Alpha  occ. eigenvalues --   -0.53586  -0.53526  -0.52847  -0.52731  -0.52705
 Alpha  occ. eigenvalues --   -0.52391  -0.52163  -0.51603  -0.51565  -0.50965
 Alpha  occ. eigenvalues --   -0.50043  -0.49838  -0.49491  -0.48795  -0.48672
 Alpha  occ. eigenvalues --   -0.48542  -0.48190  -0.47826  -0.47754  -0.47643
 Alpha  occ. eigenvalues --   -0.47367  -0.45750  -0.45235  -0.44002  -0.43278
 Alpha  occ. eigenvalues --   -0.42001  -0.39610  -0.39485  -0.38047  -0.37219
 Alpha  occ. eigenvalues --   -0.37141  -0.36829  -0.36201  -0.35434  -0.34442
 Alpha  occ. eigenvalues --   -0.34342  -0.34296  -0.33264  -0.33183  -0.32863
 Alpha  occ. eigenvalues --   -0.32641  -0.32243  -0.31873  -0.31846  -0.31720
 Alpha  occ. eigenvalues --   -0.31167  -0.28264  -0.26610  -0.25351
 Alpha virt. eigenvalues --    0.03159   0.05159   0.07089   0.08293   0.08677
 Alpha virt. eigenvalues --    0.09129   0.09724   0.10176   0.10707   0.11901
 Alpha virt. eigenvalues --    0.12965   0.13272   0.14575   0.14729   0.15551

 Mulliken charges:
               1
     1  N   -0.310495
     2  C    0.180354
     3  C    0.040845
     4  N   -0.254718
     5  C    0.130299
     6  H    0.029150
     7  N   -0.277084
     8  C    0.129924
     9  H    0.017811
    10  N   -0.292108
    11  C    0.231861
    12  C    0.099064
    13  N   -0.039696
    14  H    0.108620
    15  H    0.088951
    16  H    0.028284
    17  H    0.035235
    18  H    0.025376
    19  N   -0.301292
    20  C    0.250658
    21  C    0.181701
    22  N   -0.114424
    23  H    0.111125
    24  H    0.116609
    25  N   -0.302215
    26  C    0.235272
    27  N   -0.125903
    28  H    0.117551
    29  C    0.151740
    30  O   -0.323452
    31  C    0.000653
    32  N   -0.225980
    33  C    0.120933
    34  H    0.027524
    35  H    0.024961
    36  H    0.026423
    37  H    0.021263
    38  H    0.048949
    39  H    0.064802
    40  H    0.076509
    41  H    0.029457
    42  C   -0.088705
    43  O   -0.274737
    44  C    0.176426
    45  H    0.136131
    46  N   -0.128644
    47  O   -0.348677
    48  C    0.344943
    49  H    0.045010
    50  C    0.171140
    51  C    0.036004
    52  N   -0.285463
    53  H    0.032167
    54  H    0.037347
    55  H    0.015984
    56  H    0.119585
    57  H    0.119601
    58  N   -0.047955
    59  C    0.118504
    60  C    0.232633
    61  N   -0.273601
    62  H    0.039450
    63  C    0.161524
    64  N   -0.302646
    65  H    0.026506
    66  C    0.116499
    67  N   -0.250186
    68  C    0.008597
    69  C    0.180398
    70  N   -0.302370
 Sum of Mulliken charges =  -0.00000

 Dipole moment (field-independent basis, Debye):
    X=              5.4861    Y=              5.7961    Z=              3.8183  Tot=              8.8471
 Quadrupole moment (field-independent basis, Debye-Ang):
   XX=           -140.1060   YY=           -226.1132   ZZ=           -256.0531
   XY=             13.4489   XZ=             18.5333   YZ=             -2.5632

 Normal termination of Gaussian 16 at Sat Jan 20 06:06:51 2018.
