 Gaussian 16, Revision A.03,
 Gaussian 16:  EM64L-G16RevA.03 25-Dec-2016

 ---------------------------------------
 #p wb97xd/cc-pvdz sp scf=(maxcycles=20)
 ---------------------------------------

 ------------------
 Base pair stacking
 ------------------
 Symbolic Z-matrix:
 Charge =  0 Multiplicity = 1

                         Standard orientation:
 ---------------------------------------------------------------------
 Center     Atomic      Atomic             Coordinates (Angstroms)
 Number     Number       Type             X           Y           Z
 ---------------------------------------------------------------------
      1          7           0        5.463889   -1.336359   -1.171704
      2          6           0        6.783863   -0.730936   -1.434635
      3          6           0        3.297020   -1.683598   -1.025428
      4          7           0        3.907517   -2.822622   -0.520805
      5          6           0        5.188548   -2.567832   -0.629128
      6          1           0        5.984010   -3.249175   -0.325894
      7          7           0        1.678615   -0.115850   -1.722482
      8          6           0        2.701751    0.672776   -2.067223
      9          1           0        2.423584    1.635843   -2.493120
     10          7           0        4.010765    0.451405   -1.965323
     11          6           0        4.243537   -0.758673   -1.430559
     12          6           0        1.945848   -1.327066   -1.187111
     13          7           0        0.925872   -2.115715   -0.842355
     14          1           0        1.076919   -3.020473   -0.442599
     15          1           0       -0.023494   -1.829225   -0.971841
     16          1           0        7.296485   -1.308641   -2.069963
     17          1           0        6.661313    0.176497   -1.835481
     18          1           0        7.292008   -0.648877   -0.577285
     19          7           0        4.654618    1.481407    1.073351
     20          6           0        3.291138    1.626963    0.985155
     21          6           0        5.650568    2.456339    0.585208
     22          7           0        0.520982    3.480753    0.009729
     23          1           0       -0.474239    3.393610    0.044172
     24          1           0        0.889523    4.310383   -0.410526
     25          7           0        2.637399    2.676616    0.442116
     26          6           0        1.326004    2.528405    0.504573
     27          7           0        0.700677    1.436548    1.056227
     28          1           0       -0.307359    1.408160    1.060519
     29          6           0        1.353282    0.345034    1.620649
     30          8           0        0.694431   -0.590150    2.091898
     31          6           0        2.762654    0.489853    1.560918
     32          7           0        3.774015   -0.352622    2.001708
     33          6           0        4.875887    0.275204    1.692019
     34          1           0        5.880691   -0.098015    1.892925
     35          1           0        6.230723    2.025424   -0.105113
     36          1           0        5.178005    3.238271    0.180811
     37          1           0        6.215999    2.768054    1.348049
     38          1           0       -5.314924    1.576441    0.195246
     39          1           0       -5.375859    2.120415    1.870073
     40          1           0       -3.981279    2.516548    0.865294
     41          1           0       -4.770769   -2.610478    2.501791
     42          6           0       -4.182575   -1.731548    2.237718
     43          8           0       -2.094101   -2.776895    2.653226
     44          6           0       -2.754899   -1.796646    2.310805
     45          1           0       -1.098005   -0.637729    1.994670
     46          7           0       -2.107535   -0.630459    1.955584
     47          8           0       -2.027091    1.528923    1.257160
     48          6           0       -2.685610    0.547070    1.552101
     49          1           0       -5.857444   -0.495869    1.775449
     50          6           0       -4.775374   -0.597062    1.847679
     51          6           0       -4.728204    1.767218    1.081498
     52          7           0       -4.065803    0.531154    1.507062
     53          1           0       -5.606141    2.632580   -3.158019
     54          1           0       -4.316424    3.015262   -2.234827
     55          1           0       -5.810073    2.984215   -1.577454
     56          1           0       -2.446164   -3.546345   -0.531050
     57          1           0       -4.127790   -3.402859   -0.779384
     58          7           0       -3.227660   -2.966211   -0.760949
     59          6           0       -3.077257   -1.667921   -1.031112
     60          6           0       -3.829364    0.512931   -1.614170
     61          7           0       -2.608558    1.072415   -1.581881
     62          1           0       -0.665042    0.536853   -1.212414
     63          6           0       -1.687814    0.165611   -1.261215
     64          7           0       -1.836451   -1.135185   -0.990273
     65          1           0       -7.036605    0.366573   -1.994146
     66          6           0       -5.983337    0.152167   -1.810841
     67          7           0       -5.507935   -1.025479   -1.487073
     68          6           0       -4.143272   -0.810740   -1.359397
     69          6           0       -5.203268    2.554268   -2.246122
     70          7           0       -5.023022    1.129724   -1.905281
 ---------------------------------------------------------------------

 SCF Done:  E(RwB97XD) =  -2048.74943439     A.U. after   15 cycles

 The electronic state is 1-A.
 Alpha  occ. eigenvalues --  -19.25317 -19.21621 -19.20554 -14.52546 -14.51975
 Alpha  occ. eigenvalues --  -14.49088 -14.48737 -14.47912 -14.47375 -14.46733
 Alpha  occ. eigenvalues --  -14.46572 -14.45570 -14.44339 -14.44292 -14.42728
 Alpha  occ. eigenvalues --  -14.41895 -14.41532 -14.41320 -14.40927 -14.40698
 Alpha  occ. eigenvalues --  -10.44932 -10.41122 -10.39846 -10.39729 -10.38177
 Alpha  occ. eigenvalues --  -10.38080 -10.37225 -10.37216 -10.35852 -10.35834
 Alpha  occ. eigenvalues --  -10.34698 -10.34294 -10.34264 -10.34235 -10.33678
 Alpha  occ. eigenvalues --  -10.33443 -10.33437 -10.32660 -10.31668 -10.30824
 Alpha  occ. eigenvalues --  -10.30630 -10.28805 -10.28087  -1.19006  -1.15401
 Alpha  occ. eigenvalues --   -1.13117  -1.12637  -1.11621  -1.10542  -1.09260
 Alpha  occ. eigenvalues --   -1.08878  -1.08469  -1.05451  -1.04729  -1.02070
 Alpha  occ. eigenvalues --   -1.01106  -1.00842  -0.99629  -0.98447  -0.97308
 Alpha  occ. eigenvalues --   -0.96809  -0.96538  -0.93127  -0.90567  -0.87738
 Alpha  occ. eigenvalues --   -0.86100  -0.84342  -0.84061  -0.83325  -0.82801
 Alpha  occ. eigenvalues --   -0.82413  -0.78406  -0.77067  -0.74881  -0.74567
 Alpha  occ. eigenvalues --   -0.73528  -0.73271  -0.72942  -0.71411  -0.70417
 Alpha  occ. eigenvalues --   -0.67313  -0.66779  -0.66695  -0.66135  -0.64312
 Alpha  occ. eigenvalues --   -0.64198  -0.63639  -0.63114  -0.62538  -0.61789
 Alpha  occ. eigenvalues --   -0.61687  -0.60779  -0.60486  -0.59559  -0.59085
 Alpha  occ. eigenvalues --   -0.58422  -0.58281  -0.57626  -0.56971  -0.56054
 Alpha  occ. eigenvalues --   -0.55914  -0.55636  -0.55395  -0.54160  -0.53971
 Alpha  occ. eigenvalues --   -0.53873  -0.53606  -0.53437  -0.53235  -0.52902
 Alpha  occ. eigenvalues --   -0.52845  -0.52238  -0.52085  -0.51025  -0.50616
 Alpha  occ. eigenvalues --   -0.50125  -0.49999  -0.49256  -0.49167  -0.48737
 Alpha  occ. eigenvalues --   -0.48655  -0.48333  -0.48228  -0.47544  -0.47214
 Alpha  occ. eigenvalues --   -0.47174  -0.46055  -0.45124  -0.44935  -0.43054
 Alpha  occ. eigenvalues --   -0.41355  -0.40788  -0.39022  -0.37786  -0.37589
 Alpha  occ. eigenvalues --   -0.37462  -0.37162  -0.37030  -0.36094  -0.34655
 Alpha  occ. eigenvalues --   -0.34402  -0.34193  -0.33828  -0.33513  -0.32924
 Alpha  occ. eigenvalues --   -0.32552  -0.32180  -0.31789  -0.31591  -0.31263
 Alpha  occ. eigenvalues --   -0.30820  -0.29620  -0.26270  -0.25268
 Alpha virt. eigenvalues --    0.03418   0.04039   0.07089   0.07582   0.08649
 Alpha virt. eigenvalues --    0.09166   0.09773   0.10317   0.10599   0.12545
 Alpha virt. eigenvalues --    0.13220   0.13483   0.14056   0.14320   0.14639

 Mulliken charges:
               1
     1  N   -0.302984
     2  C    0.174155
     3  C    0.073863
     4  N   -0.250399
     5  C    0.133295
     6  H    0.025937
     7  N   -0.287903
     8  C    0.134305
     9  H    0.011361
    10  N   -0.281719
    11  C    0.219819
    12  C    0.083055
    13  N   -0.046009
    14  H    0.111814
    15  H    0.084796
    16  H    0.028771
    17  H    0.039925
    18  H    0.017621
    19  N   -0.292396
    20  C    0.246597
    21  C    0.188827
    22  N   -0.119364
    23  H    0.118856
    24  H    0.117359
    25  N   -0.300625
    26  C    0.234396
    27  N   -0.134605
    28  H    0.114560
    29  C    0.179942
    30  O   -0.322929
    31  C   -0.012500
    32  N   -0.214956
    33  C    0.112151
    34  H    0.017342
    35  H    0.011363
    36  H    0.031663
    37  H    0.022324
    38  H    0.045485
    39  H    0.057978
    40  H    0.075240
    41  H    0.023036
    42  C   -0.103240
    43  O   -0.270225
    44  C    0.164352
    45  H    0.129808
    46  N   -0.109642
    47  O   -0.340611
    48  C    0.331831
    49  H    0.044602
    50  C    0.170223
    51  C    0.046268
    52  N   -0.275292
    53  H    0.036426
    54  H    0.042390
    55  H    0.022422
    56  H    0.125531
    57  H    0.118191
    58  N   -0.054584
    59  C    0.089303
    60  C    0.194567
    61  N   -0.255936
    62  H    0.024511
    63  C    0.158803
    64  N   -0.296422
    65  H    0.035300
    66  C    0.115363
    67  N   -0.249075
    68  C    0.054478
    69  C    0.178890
    70  N   -0.297683
 Sum of Mulliken charges =  -0.00000

 Dipole moment (field-independent basis, Debye):
    X=             -5.6999    Y=              6.5102    Z=             -4.0145  Tot=              9.5388
 Quadrupole moment (field-independent basis, Debye-Ang):
   XX=           -147.7490   YY=           -225.0570   ZZ=           -261.0584
   XY=             -9.3639   XZ=              0.3385   YZ=              7.2624

 Normal termination of Gaussian 16 at Sat Jan 20 03:29:13 2018.
