 Gaussian 16, Revision A.03,
 Gaussian 16:  EM64L-G16RevA.03 25-Dec-2016

 ---------------------------------------
 #p wb97xd/cc-pvdz sp scf=(maxcycles=20)
 ---------------------------------------

 ------------------
 Base pair stacking
 ------------------
 Symbolic Z-matrix:
 Charge =  0 Multiplicity = 1

                         Standard orientation:
 ---------------------------------------------------------------------
 Center     Atomic      Atomic             Coordinates (Angstroms)
 Number     Number       Type             X           Y           Z
 ---------------------------------------------------------------------
      1          7           0        5.169672   -1.094364   -1.437639
      2          6           0        6.491248   -0.446380   -1.545102
      3          6           0        3.001914   -1.459265   -1.367019
      4          7           0        3.609309   -2.693164   -1.184534
      5          6           0        4.890991   -2.423937   -1.234389
      6          1           0        5.684582   -3.164091   -1.127971
      7          7           0        1.387805    0.242786   -1.613232
      8          6           0        2.413056    1.090176   -1.748788
      9          1           0        2.137509    2.132313   -1.904595
     10          7           0        3.721434    0.844666   -1.720903
     11          6           0        3.950912   -0.464202   -1.524394
     12          6           0        1.651740   -1.067486   -1.416754
     13          7           0        0.629661   -1.914918   -1.281223
     14          1           0        0.778246   -2.893443   -1.134142
     15          1           0       -0.318916   -1.600753   -1.322055
     16          1           0        6.995057   -0.839262   -2.314517
     17          1           0        6.371161    0.534884   -1.692799
     18          1           0        7.006831   -0.594066   -0.701090
     19          7           0        4.952850    1.173557    1.070056
     20          6           0        3.589264    1.337577    1.027913
     21          6           0        5.947313    2.181960    0.651875
     22          7           0        0.816638    3.296570    0.295324
     23          1           0       -0.178374    3.214510    0.344854
     24          1           0        1.183944    4.158945   -0.054104
     25          7           0        2.934060    2.438649    0.600827
     26          6           0        1.622981    2.295680    0.679971
     27          7           0        0.999287    1.161972    1.141722
     28          1           0       -0.008632    1.141337    1.167040
     29          6           0        1.653422    0.017248    1.586194
     30          8           0        0.995985   -0.952692    1.983355
     31          6           0        3.062480    0.155789    1.507152
     32          7           0        4.074971   -0.732289    1.843409
     33          6           0        5.175855   -0.087012    1.567934
     34          1           0        6.181119   -0.485391    1.709427
     35          1           0        6.507277    1.812980   -0.089134
     36          1           0        5.473644    3.002057    0.333533
     37          1           0        6.532997    2.416356    1.427011
     38          1           0       -5.032553    1.429776    0.439175
     39          1           0       -5.050020    1.814983    2.158468
     40          1           0       -3.674623    2.292354    1.162604
     41          1           0       -4.478707   -2.958950    2.330969
     42          6           0       -3.887784   -2.063859    2.136432
     43          8           0       -1.801118   -3.160119    2.403249
     44          6           0       -2.459551   -2.146879    2.169552
     45          1           0       -0.798593   -0.976677    1.924247
     46          7           0       -1.808622   -0.957748    1.909737
     47          8           0       -1.722159    1.256840    1.414453
     48          6           0       -2.383737    0.256951    1.631748
     49          1           0       -5.560103   -0.777032    1.831127
     50          6           0       -4.477743   -0.893152    1.868139
     51          6           0       -4.423998    1.532044    1.325338
     52          7           0       -3.764681    0.256318    1.617853
     53          1           0       -5.890913    3.300206   -2.208791
     54          1           0       -4.591383    3.422287   -1.229809
     55          1           0       -6.079810    3.225800   -0.589469
     56          1           0       -2.748673   -3.363805   -1.324026
     57          1           0       -4.431318   -3.153584   -1.510113
     58          7           0       -3.528346   -2.740612   -1.386347
     59          6           0       -3.371978   -1.417513   -1.308026
     60          6           0       -4.115049    0.842870   -1.291676
     61          7           0       -2.890529    1.369479   -1.125367
     62          1           0       -0.947486    0.748102   -0.927686
     63          6           0       -1.972939    0.406695   -1.062438
     64          7           0       -2.127547   -0.919036   -1.140677
     65          1           0       -7.326117    0.813932   -1.666339
     66          6           0       -6.272771    0.554806   -1.555654
     67          7           0       -5.802177   -0.668397   -1.556534
     68          6           0       -4.435197   -0.500029   -1.389940
     69          6           0       -5.481164    2.983899   -1.353193
     70          7           0       -5.307127    1.519118   -1.399545
 ---------------------------------------------------------------------

 SCF Done:  E(RwB97XD) =  -2048.71641265     A.U. after   15 cycles

 The electronic state is 1-A.
 Alpha  occ. eigenvalues --  -19.25003 -19.21384 -19.20564 -14.52769 -14.51685
 Alpha  occ. eigenvalues --  -14.49023 -14.48926 -14.48391 -14.47173 -14.46627
 Alpha  occ. eigenvalues --  -14.46496 -14.45849 -14.44764 -14.44542 -14.43004
 Alpha  occ. eigenvalues --  -14.41716 -14.41495 -14.41188 -14.41131 -14.40879
 Alpha  occ. eigenvalues --  -10.44678 -10.40957 -10.40309 -10.39489 -10.38356
 Alpha  occ. eigenvalues --  -10.38157 -10.37509 -10.37068 -10.36303 -10.36001
 Alpha  occ. eigenvalues --  -10.34532 -10.34315 -10.34206 -10.33667 -10.33658
 Alpha  occ. eigenvalues --  -10.33510 -10.33470 -10.32991 -10.31727 -10.31022
 Alpha  occ. eigenvalues --  -10.30477 -10.28771 -10.28182  -1.18855  -1.15909
 Alpha  occ. eigenvalues --   -1.13164  -1.12407  -1.11597  -1.10648  -1.09702
 Alpha  occ. eigenvalues --   -1.08643  -1.08479  -1.05618  -1.05187  -1.01836
 Alpha  occ. eigenvalues --   -1.01522  -1.01012  -0.99634  -0.98451  -0.97423
 Alpha  occ. eigenvalues --   -0.97194  -0.96651  -0.93313  -0.90348  -0.88151
 Alpha  occ. eigenvalues --   -0.86459  -0.84549  -0.84054  -0.83041  -0.82898
 Alpha  occ. eigenvalues --   -0.82479  -0.78208  -0.77478  -0.75311  -0.74653
 Alpha  occ. eigenvalues --   -0.73618  -0.73301  -0.72729  -0.71529  -0.70837
 Alpha  occ. eigenvalues --   -0.67392  -0.67197  -0.66774  -0.66034  -0.64676
 Alpha  occ. eigenvalues --   -0.64305  -0.63787  -0.63244  -0.62554  -0.62267
 Alpha  occ. eigenvalues --   -0.61755  -0.61050  -0.60835  -0.59961  -0.59029
 Alpha  occ. eigenvalues --   -0.58537  -0.58406  -0.58178  -0.57093  -0.56290
 Alpha  occ. eigenvalues --   -0.55806  -0.55736  -0.55489  -0.54492  -0.54142
 Alpha  occ. eigenvalues --   -0.54056  -0.53913  -0.53293  -0.53279  -0.52918
 Alpha  occ. eigenvalues --   -0.52858  -0.52136  -0.51710  -0.51016  -0.50442
 Alpha  occ. eigenvalues --   -0.50354  -0.49971  -0.49394  -0.49162  -0.48838
 Alpha  occ. eigenvalues --   -0.48508  -0.48124  -0.48073  -0.47949  -0.47343
 Alpha  occ. eigenvalues --   -0.47006  -0.45885  -0.45150  -0.45057  -0.42598
 Alpha  occ. eigenvalues --   -0.41329  -0.41147  -0.38846  -0.37977  -0.37695
 Alpha  occ. eigenvalues --   -0.37640  -0.37117  -0.36758  -0.35994  -0.35074
 Alpha  occ. eigenvalues --   -0.34735  -0.34329  -0.34046  -0.33481  -0.32868
 Alpha  occ. eigenvalues --   -0.32470  -0.32362  -0.31824  -0.31216  -0.31169
 Alpha  occ. eigenvalues --   -0.30701  -0.30062  -0.26550  -0.24979
 Alpha virt. eigenvalues --    0.03271   0.03917   0.06827   0.07230   0.08444
 Alpha virt. eigenvalues --    0.09041   0.09829   0.09964   0.11069   0.12809
 Alpha virt. eigenvalues --    0.13088   0.13372   0.14130   0.14345   0.14623

 Mulliken charges:
               1
     1  N   -0.297927
     2  C    0.174810
     3  C    0.081148
     4  N   -0.254358
     5  C    0.138539
     6  H    0.025635
     7  N   -0.279943
     8  C    0.133296
     9  H    0.006575
    10  N   -0.271830
    11  C    0.217007
    12  C    0.067545
    13  N   -0.047563
    14  H    0.111182
    15  H    0.083961
    16  H    0.028330
    17  H    0.041391
    18  H    0.012304
    19  N   -0.287676
    20  C    0.234478
    21  C    0.195106
    22  N   -0.106997
    23  H    0.120375
    24  H    0.117844
    25  N   -0.273801
    26  C    0.184824
    27  N   -0.108350
    28  H    0.115207
    29  C    0.165201
    30  O   -0.320486
    31  C    0.004908
    32  N   -0.212659
    33  C    0.100481
    34  H    0.022352
    35  H   -0.004679
    36  H    0.033631
    37  H    0.023472
    38  H    0.052078
    39  H    0.046819
    40  H    0.077521
    41  H    0.024259
    42  C   -0.100745
    43  O   -0.269175
    44  C    0.170283
    45  H    0.128528
    46  N   -0.110542
    47  O   -0.341200
    48  C    0.324866
    49  H    0.044840
    50  C    0.164560
    51  C    0.050352
    52  N   -0.274221
    53  H    0.038174
    54  H    0.042983
    55  H    0.028138
    56  H    0.123966
    57  H    0.119766
    58  N   -0.059762
    59  C    0.101082
    60  C    0.169460
    61  N   -0.252976
    62  H    0.006251
    63  C    0.179496
    64  N   -0.300807
    65  H    0.035778
    66  C    0.121058
    67  N   -0.249162
    68  C    0.059075
    69  C    0.177455
    70  N   -0.301538
 Sum of Mulliken charges =  -0.00000

 Dipole moment (field-independent basis, Debye):
    X=             -5.7582    Y=              7.0397    Z=             -3.6539  Tot=              9.8012
 Quadrupole moment (field-independent basis, Debye-Ang):
   XX=           -149.1754   YY=           -229.0079   ZZ=           -259.6008
   XY=             -6.8607   XZ=             -4.4683   YZ=             13.8247

 Normal termination of Gaussian 16 at Fri Jan 19 19:24:01 2018.
