 Gaussian 16, Revision A.03,
 Gaussian 16:  EM64L-G16RevA.03 25-Dec-2016

 ---------------------------------------
 #p wb97xd/cc-pvdz sp scf=(maxcycles=20)
 ---------------------------------------

 ------------------
 Base pair stacking
 ------------------
 Symbolic Z-matrix:
 Charge =  0 Multiplicity = 1

                         Standard orientation:
 ---------------------------------------------------------------------
 Center     Atomic      Atomic             Coordinates (Angstroms)
 Number     Number       Type             X           Y           Z
 ---------------------------------------------------------------------
      1          7           0        4.861372   -1.263721   -1.615845
      2          6           0        6.179215   -0.659797   -1.892551
      3          6           0        2.698224   -1.582187   -1.377705
      4          7           0        3.307233   -2.779659   -1.031440
      5          6           0        4.586067   -2.539870   -1.188768
      6          1           0        5.379867   -3.264692   -1.005871
      7          7           0        1.083274    0.081417   -1.810480
      8          6           0        2.104874    0.881883   -2.131685
      9          1           0        1.827541    1.889647   -2.437879
     10          7           0        3.411469    0.625577   -2.131453
     11          6           0        3.643387   -0.638353   -1.740153
     12          6           0        1.349581   -1.184379   -1.420736
     13          7           0        0.331141   -1.984940   -1.099702
     14          1           0        0.481592   -2.929508   -0.805831
     15          1           0       -0.616433   -1.667985   -1.141955
     16          1           0        6.639717   -1.177306   -2.613868
     17          1           0        6.057202    0.286991   -2.188911
     18          1           0        6.737467   -0.678333   -1.063094
     19          7           0        5.248276    1.220078    0.930587
     20          6           0        3.886146    1.400612    0.939317
     21          6           0        6.239311    2.221393    0.487973
     22          7           0        1.113112    3.400333    0.328479
     23          1           0        0.119584    3.329440    0.412876
     24          1           0        1.478125    4.262252   -0.024464
     25          7           0        3.229515    2.514114    0.548188
     26          6           0        1.920473    2.385708    0.672865
     27          7           0        1.299971    1.254237    1.144308
     28          1           0        0.293433    1.245184    1.205640
     29          6           0        1.955630    0.096889    1.552383
     30          8           0        1.301082   -0.869694    1.962278
     31          6           0        3.362526    0.219729    1.424227
     32          7           0        4.375542   -0.683982    1.714082
     33          6           0        5.473612   -0.048617    1.406269
     34          1           0        6.478378   -0.460390    1.507133
     35          1           0        6.767826    1.854308   -0.276698
     36          1           0        5.764567    3.050596    0.195889
     37          1           0        6.855219    2.440034    1.244064
     38          1           0       -4.749460    1.601031    0.662203
     39          1           0       -4.700607    1.966805    2.385133
     40          1           0       -3.356071    2.439259    1.345719
     41          1           0       -4.181653   -2.815178    2.484627
     42          6           0       -3.587220   -1.924951    2.278787
     43          8           0       -1.505843   -3.048677    2.458326
     44          6           0       -2.159834   -2.025159    2.259578
     45          1           0       -0.494610   -0.871876    1.967524
     46          7           0       -1.504206   -0.840887    1.989567
     47          8           0       -1.408600    1.378025    1.515790
     48          6           0       -2.074081    0.383594    1.745774
     49          1           0       -5.253611   -0.615114    2.047958
     50          6           0       -4.172122   -0.744398    2.044736
     51          6           0       -4.108344    1.686019    1.526963
     52          7           0       -3.454545    0.399373    1.781574
     53          1           0       -6.198923    3.106929   -2.516371
     54          1           0       -4.849168    3.365151   -1.636836
     55          1           0       -6.303097    3.294173   -0.898499
     56          1           0       -3.053087   -3.374476   -0.738552
     57          1           0       -4.741927   -3.172943   -0.870076
     58          7           0       -3.831347   -2.758271   -0.859992
     59          6           0       -3.663460   -1.441929   -1.002235
     60          6           0       -4.391616    0.802394   -1.309690
     61          7           0       -3.157044    1.331508   -1.292161
     62          1           0       -1.209918    0.722309   -1.096725
     63          6           0       -2.242971    0.378246   -1.122857
     64          7           0       -2.409123   -0.940703   -0.980196
     65          1           0       -7.618019    0.759297   -1.511204
     66          6           0       -6.561826    0.506333   -1.414195
     67          7           0       -6.098992   -0.707880   -1.243442
     68          6           0       -4.724210   -0.534361   -1.175617
     69          6           0       -5.746703    2.925263   -1.643152
     70          7           0       -5.583789    1.469518   -1.463536
 ---------------------------------------------------------------------

 SCF Done:  E(RwB97XD) =  -2048.74641355     A.U. after   15 cycles

 The electronic state is 1-A.
 Alpha  occ. eigenvalues --  -19.25198 -19.21513 -19.20625 -14.52824 -14.51737
 Alpha  occ. eigenvalues --  -14.49168 -14.48820 -14.48308 -14.47197 -14.46690
 Alpha  occ. eigenvalues --  -14.46618 -14.45695 -14.44644 -14.44622 -14.42811
 Alpha  occ. eigenvalues --  -14.41866 -14.41330 -14.41285 -14.41256 -14.40815
 Alpha  occ. eigenvalues --  -10.44808 -10.41105 -10.40252 -10.39576 -10.38249
 Alpha  occ. eigenvalues --  -10.38249 -10.37509 -10.37053 -10.36201 -10.35868
 Alpha  occ. eigenvalues --  -10.34495 -10.34271 -10.34114 -10.34041 -10.33782
 Alpha  occ. eigenvalues --  -10.33569 -10.33471 -10.32992 -10.31376 -10.31329
 Alpha  occ. eigenvalues --  -10.30447 -10.28708 -10.28303  -1.18832  -1.15629
 Alpha  occ. eigenvalues --   -1.13225  -1.12501  -1.11403  -1.10823  -1.09643
 Alpha  occ. eigenvalues --   -1.08655  -1.08501  -1.05477  -1.05116  -1.01859
 Alpha  occ. eigenvalues --   -1.01291  -1.00843  -0.99677  -0.98565  -0.97280
 Alpha  occ. eigenvalues --   -0.97020  -0.96824  -0.93165  -0.90363  -0.88004
 Alpha  occ. eigenvalues --   -0.86245  -0.84452  -0.84073  -0.82976  -0.82781
 Alpha  occ. eigenvalues --   -0.82573  -0.78221  -0.77352  -0.75193  -0.74784
 Alpha  occ. eigenvalues --   -0.73614  -0.73178  -0.72732  -0.71366  -0.70695
 Alpha  occ. eigenvalues --   -0.67435  -0.67081  -0.66598  -0.65955  -0.64525
 Alpha  occ. eigenvalues --   -0.64411  -0.63490  -0.63053  -0.62607  -0.61833
 Alpha  occ. eigenvalues --   -0.61482  -0.60845  -0.60671  -0.59802  -0.58940
 Alpha  occ. eigenvalues --   -0.58730  -0.58372  -0.57936  -0.56889  -0.55957
 Alpha  occ. eigenvalues --   -0.55770  -0.55606  -0.55564  -0.54280  -0.54127
 Alpha  occ. eigenvalues --   -0.54068  -0.53890  -0.53367  -0.53127  -0.53005
 Alpha  occ. eigenvalues --   -0.52938  -0.52029  -0.51685  -0.50749  -0.50508
 Alpha  occ. eigenvalues --   -0.50290  -0.50190  -0.49287  -0.49221  -0.48989
 Alpha  occ. eigenvalues --   -0.48658  -0.48247  -0.48164  -0.48035  -0.47231
 Alpha  occ. eigenvalues --   -0.47126  -0.45949  -0.45454  -0.44955  -0.42570
 Alpha  occ. eigenvalues --   -0.41362  -0.41004  -0.38910  -0.38052  -0.37851
 Alpha  occ. eigenvalues --   -0.37586  -0.37227  -0.37023  -0.35852  -0.34944
 Alpha  occ. eigenvalues --   -0.34531  -0.34228  -0.33739  -0.33475  -0.32980
 Alpha  occ. eigenvalues --   -0.32795  -0.32558  -0.31911  -0.31232  -0.31002
 Alpha  occ. eigenvalues --   -0.30709  -0.30357  -0.26578  -0.25086
 Alpha virt. eigenvalues --    0.03429   0.03876   0.06832   0.07346   0.08512
 Alpha virt. eigenvalues --    0.09051   0.09771   0.10123   0.10987   0.12614
 Alpha virt. eigenvalues --    0.13005   0.13508   0.14108   0.14485   0.14583

 Mulliken charges:
               1
     1  N   -0.298471
     2  C    0.179320
     3  C    0.065177
     4  N   -0.251478
     5  C    0.145830
     6  H    0.026143
     7  N   -0.285485
     8  C    0.126947
     9  H    0.008090
    10  N   -0.273652
    11  C    0.227708
    12  C    0.072730
    13  N   -0.050262
    14  H    0.114094
    15  H    0.084781
    16  H    0.027456
    17  H    0.036471
    18  H    0.008880
    19  N   -0.301244
    20  C    0.252830
    21  C    0.187274
    22  N   -0.116740
    23  H    0.120171
    24  H    0.118333
    25  N   -0.292884
    26  C    0.215927
    27  N   -0.124387
    28  H    0.119732
    29  C    0.175477
    30  O   -0.320231
    31  C   -0.008234
    32  N   -0.213492
    33  C    0.100644
    34  H    0.025280
    35  H    0.010155
    36  H    0.034077
    37  H    0.025447
    38  H    0.043545
    39  H    0.051591
    40  H    0.076763
    41  H    0.020982
    42  C   -0.098917
    43  O   -0.271524
    44  C    0.170453
    45  H    0.129274
    46  N   -0.113653
    47  O   -0.346325
    48  C    0.327402
    49  H    0.045160
    50  C    0.158784
    51  C    0.056683
    52  N   -0.273966
    53  H    0.037082
    54  H    0.041873
    55  H    0.029081
    56  H    0.124930
    57  H    0.118383
    58  N   -0.057276
    59  C    0.100637
    60  C    0.189983
    61  N   -0.257732
    62  H    0.022291
    63  C    0.172777
    64  N   -0.307625
    65  H    0.037580
    66  C    0.130960
    67  N   -0.252771
    68  C    0.044550
    69  C    0.177804
    70  N   -0.301195
 Sum of Mulliken charges =  -0.00000

 Dipole moment (field-independent basis, Debye):
    X=             -5.9099    Y=              7.1830    Z=             -3.0259  Tot=              9.7816
 Quadrupole moment (field-independent basis, Debye-Ang):
   XX=           -148.9604   YY=           -227.3108   ZZ=           -258.6281
   XY=             -5.9260   XZ=             -7.7855   YZ=             11.4770

 Normal termination of Gaussian 16 at Sat Jan 20 05:07:05 2018.
