 Gaussian 16, Revision A.03,
 Gaussian 16:  EM64L-G16RevA.03 25-Dec-2016

 ---------------------------------------
 #p wb97xd/cc-pvdz sp scf=(maxcycles=20)
 ---------------------------------------

 ------------------
 Base pair stacking
 ------------------
 Symbolic Z-matrix:
 Charge =  0 Multiplicity = 1

                         Standard orientation:
 ---------------------------------------------------------------------
 Center     Atomic      Atomic             Coordinates (Angstroms)
 Number     Number       Type             X           Y           Z
 ---------------------------------------------------------------------
      1          7           0       -5.776333   -1.611372    0.679501
      2          6           0       -7.095198   -1.165634    1.169306
      3          6           0       -3.610145   -1.876990    0.406759
      4          7           0       -4.222608   -2.693695   -0.532707
      5          6           0       -5.503147   -2.500987   -0.330782
      6          1           0       -6.299772   -2.986485   -0.895258
      7          7           0       -1.989067   -0.758371    1.704356
      8          6           0       -3.010790   -0.182686    2.346425
      9          1           0       -2.730944    0.509539    3.139373
     10          7           0       -4.320138   -0.332999    2.156916
     11          6           0       -4.555011   -1.203589    1.161265
     12          6           0       -2.258392   -1.629554    0.707565
     13          7           0       -1.239835   -2.205232    0.065460
     14          1           0       -1.392455   -2.856335   -0.678850
     15          1           0       -0.289999   -2.005448    0.306382
     16          1           0       -7.613285   -1.954367    1.500451
     17          1           0       -6.971060   -0.512411    1.915650
     18          1           0       -7.598691   -0.726962    0.424956
     19          7           0       -4.322903    1.986901   -0.796866
     20          6           0       -2.958666    2.081173   -0.662651
     21          6           0       -5.307469    2.883865   -0.159077
     22          7           0       -0.169764    3.664498    0.670347
     23          1           0        0.823871    3.560571    0.636711
     24          1           0       -0.528913    4.415236    1.225446
     25          7           0       -2.293744    3.001662    0.068536
     26          6           0       -0.984807    2.834896    0.001488
     27          7           0       -0.371927    1.843197   -0.725444
     28          1           0        0.635160    1.791424   -0.718766
     29          6           0       -1.036187    0.885297   -1.485080
     30          8           0       -0.388076    0.032661   -2.104524
     31          6           0       -2.443079    1.051591   -1.422875
     32          7           0       -3.463110    0.325547   -2.022290
     33          6           0       -4.557363    0.915238   -1.623440
     34          1           0       -5.565659    0.608188   -1.903335
     35          1           0       -5.910253    2.351694    0.434428
     36          1           0       -4.826565    3.569945    0.385251
     37          1           0       -5.850863    3.339588   -0.863235
     38          1           0        5.626961    1.681348    0.241741
     39          1           0        5.732738    2.511960   -1.308592
     40          1           0        4.327151    2.757619   -0.271602
     41          1           0        5.040102   -2.015808   -2.780378
     42          6           0        4.465546   -1.183512   -2.373674
     43          8           0        2.364048   -2.087342   -3.001294
     44          6           0        3.038552   -1.199758   -2.479739
     45          1           0        1.400655   -0.075133   -1.988953
     46          7           0        2.409132   -0.099567   -1.933233
     47          8           0        2.360646    1.903108   -0.863593
     48          6           0        3.003916    0.973316   -1.317846
     49          1           0        6.156736   -0.090625   -1.672747
     50          6           0        5.074406   -0.150963   -1.778919
     51          6           0        5.062168    2.040484   -0.605665
     52          7           0        4.382296    0.915979   -1.254521
     53          1           0        5.299225    1.087258    4.185651
     54          1           0        4.015691    1.830763    3.506052
     55          1           0        5.512491    2.071144    2.901170
     56          1           0        2.128027   -3.390628   -0.810109
     57          1           0        3.808935   -3.374787   -0.519568
     58          7           0        2.910650   -2.965914   -0.354842
     59          6           0        2.764037   -1.901598    0.436942
     60          6           0        3.521844   -0.174026    1.887085
     61          7           0        2.303443    0.353921    2.090095
     62          1           0        0.359703    0.035093    1.523701
     63          6           0        1.380728   -0.327970    1.414426
     64          7           0        1.525576   -1.394207    0.620869
     65          1           0        6.726523   -0.485225    2.179240
     66          6           0        5.673346   -0.596370    1.919591
     67          7           0        5.194919   -1.525102    1.128236
     68          6           0        3.831776   -1.268751    1.099030
     69          6           0        4.900638    1.402901    3.324553
     70          7           0        4.716461    0.255780    2.414494
 ---------------------------------------------------------------------

 SCF Done:  E(RwB97XD) =  -2048.75034264     A.U. after   15 cycles

 The electronic state is 1-A.
 Alpha  occ. eigenvalues --  -19.25742 -19.21782 -19.20702 -14.52312 -14.52153
 Alpha  occ. eigenvalues --  -14.48982 -14.48810 -14.47700 -14.47018 -14.46978
 Alpha  occ. eigenvalues --  -14.46709 -14.45110 -14.43777 -14.43661 -14.42322
 Alpha  occ. eigenvalues --  -14.42045 -14.41420 -14.41142 -14.40914 -14.40420
 Alpha  occ. eigenvalues --  -10.45337 -10.41286 -10.40061 -10.39214 -10.38318
 Alpha  occ. eigenvalues --  -10.37671 -10.37503 -10.36784 -10.35563 -10.35355
 Alpha  occ. eigenvalues --  -10.35300 -10.34395 -10.34157 -10.33796 -10.33521
 Alpha  occ. eigenvalues --  -10.33394 -10.33265 -10.32168 -10.31434 -10.30859
 Alpha  occ. eigenvalues --  -10.30736 -10.28626 -10.28154  -1.19324  -1.14860
 Alpha  occ. eigenvalues --   -1.13256  -1.12998  -1.11498  -1.10630  -1.09188
 Alpha  occ. eigenvalues --   -1.08629  -1.08615  -1.05189  -1.04129  -1.02411
 Alpha  occ. eigenvalues --   -1.00584  -1.00556  -0.99786  -0.98581  -0.97111
 Alpha  occ. eigenvalues --   -0.96610  -0.96208  -0.92843  -0.90808  -0.87236
 Alpha  occ. eigenvalues --   -0.85606  -0.84154  -0.84138  -0.83659  -0.82583
 Alpha  occ. eigenvalues --   -0.82486  -0.78683  -0.76521  -0.74678  -0.74308
 Alpha  occ. eigenvalues --   -0.73677  -0.73247  -0.73058  -0.71209  -0.69857
 Alpha  occ. eigenvalues --   -0.67428  -0.66465  -0.66390  -0.66217  -0.64414
 Alpha  occ. eigenvalues --   -0.63769  -0.63655  -0.62861  -0.62669  -0.61804
 Alpha  occ. eigenvalues --   -0.60913  -0.60456  -0.59957  -0.59294  -0.59009
 Alpha  occ. eigenvalues --   -0.58579  -0.58414  -0.57111  -0.56734  -0.56310
 Alpha  occ. eigenvalues --   -0.55901  -0.55573  -0.54952  -0.54766  -0.54265
 Alpha  occ. eigenvalues --   -0.53696  -0.53583  -0.53192  -0.52974  -0.52823
 Alpha  occ. eigenvalues --   -0.52435  -0.52381  -0.52034  -0.51024  -0.50438
 Alpha  occ. eigenvalues --   -0.50194  -0.49669  -0.49487  -0.49316  -0.48967
 Alpha  occ. eigenvalues --   -0.48827  -0.48402  -0.47872  -0.47538  -0.47415
 Alpha  occ. eigenvalues --   -0.47120  -0.45937  -0.45042  -0.44152  -0.43294
 Alpha  occ. eigenvalues --   -0.41269  -0.40268  -0.39343  -0.37500  -0.37312
 Alpha  occ. eigenvalues --   -0.37275  -0.37233  -0.37017  -0.36050  -0.34357
 Alpha  occ. eigenvalues --   -0.34197  -0.33857  -0.33541  -0.33487  -0.33153
 Alpha  occ. eigenvalues --   -0.32660  -0.32346  -0.31913  -0.31792  -0.31063
 Alpha  occ. eigenvalues --   -0.30598  -0.29133  -0.25921  -0.25454
 Alpha virt. eigenvalues --    0.03424   0.04404   0.07511   0.07708   0.08278
 Alpha virt. eigenvalues --    0.09067   0.09708   0.10622   0.10908   0.12025
 Alpha virt. eigenvalues --    0.13335   0.13425   0.14127   0.14414   0.14919

 Mulliken charges:
               1
     1  N   -0.308205
     2  C    0.178772
     3  C    0.061478
     4  N   -0.246021
     5  C    0.126127
     6  H    0.025513
     7  N   -0.292511
     8  C    0.136123
     9  H    0.012074
    10  N   -0.290434
    11  C    0.229328
    12  C    0.092824
    13  N   -0.043646
    14  H    0.113129
    15  H    0.088196
    16  H    0.027897
    17  H    0.034763
    18  H    0.019560
    19  N   -0.303655
    20  C    0.257759
    21  C    0.183156
    22  N   -0.121867
    23  H    0.117086
    24  H    0.118320
    25  N   -0.309666
    26  C    0.243663
    27  N   -0.146943
    28  H    0.120512
    29  C    0.189261
    30  O   -0.325869
    31  C   -0.021734
    32  N   -0.215987
    33  C    0.125404
    34  H    0.018520
    35  H    0.024886
    36  H    0.030138
    37  H    0.022331
    38  H    0.047047
    39  H    0.061703
    40  H    0.075456
    41  H    0.022450
    42  C   -0.103539
    43  O   -0.279720
    44  C    0.153349
    45  H    0.132876
    46  N   -0.108760
    47  O   -0.344625
    48  C    0.338672
    49  H    0.043633
    50  C    0.182510
    51  C    0.043255
    52  N   -0.277664
    53  H    0.034331
    54  H    0.041815
    55  H    0.019297
    56  H    0.127477
    57  H    0.116210
    58  N   -0.040735
    59  C    0.082742
    60  C    0.234511
    61  N   -0.268645
    62  H    0.031310
    63  C    0.159067
    64  N   -0.298925
    65  H    0.033876
    66  C    0.113847
    67  N   -0.251963
    68  C    0.031744
    69  C    0.182182
    70  N   -0.305064
 Sum of Mulliken charges =  -0.00000

 Dipole moment (field-independent basis, Debye):
    X=              5.8386    Y=              5.8469    Z=              4.6226  Tot=              9.4680
 Quadrupole moment (field-independent basis, Debye-Ang):
   XX=           -145.9846   YY=           -224.7724   ZZ=           -258.2269
   XY=              8.5466   XZ=              7.4497   YZ=              3.6922

 Normal termination of Gaussian 16 at Fri Jan 19 13:41:28 2018.
