 Gaussian 16, Revision A.03,
 Gaussian 16:  EM64L-G16RevA.03 25-Dec-2016

 ---------------------------------------
 #p wb97xd/cc-pvdz sp scf=(maxcycles=20)
 ---------------------------------------

 ------------------
 Base pair stacking
 ------------------
 Symbolic Z-matrix:
 Charge =  0 Multiplicity = 1

                         Standard orientation:
 ---------------------------------------------------------------------
 Center     Atomic      Atomic             Coordinates (Angstroms)
 Number     Number       Type             X           Y           Z
 ---------------------------------------------------------------------
      1          7           0       -7.163993   -0.910257    0.099542
      2          6           0       -8.471717   -0.299010    0.406521
      3          6           0       -5.018160   -1.391911    0.072350
      4          7           0       -5.620950   -2.254249   -0.831930
      5          6           0       -6.889606   -1.929564   -0.779362
      6          1           0       -7.676179   -2.405404   -1.365725
      7          7           0       -3.418109   -0.277313    1.399179
      8          6           0       -4.432211    0.454163    1.872588
      9          1           0       -4.158196    1.205419    2.612041
     10          7           0       -5.727893    0.397237    1.571128
     11          6           0       -5.956604   -0.557559    0.654354
     12          6           0       -3.680934   -1.229836    0.477924
     13          7           0       -2.669968   -1.961038    0.004157
     14          1           0       -2.818207   -2.677063   -0.678873
     15          1           0       -1.730448   -1.818122    0.315650
     16          1           0       -9.091296   -0.996971    0.765901
     17          1           0       -8.351683    0.421821    1.088521
     18          1           0       -8.862032    0.093890   -0.426109
     19          7           0       -2.747855    2.196378   -1.344076
     20          6           0       -1.397341    2.186571   -1.090939
     21          6           0       -3.674579    3.290701   -0.991446
     22          7           0        1.432564    3.733242    0.197924
     23          1           0        2.407620    3.531653    0.286559
     24          1           0        1.115557    4.609624    0.561505
     25          7           0       -0.695676    3.167098   -0.482437
     26          6           0        0.587308    2.867886   -0.382252
     27          7           0        1.142651    1.698444   -0.842146
     28          1           0        2.133584    1.554455   -0.722617
     29          6           0        0.439785    0.675709   -1.471305
     30          8           0        1.036792   -0.340052   -1.848866
     31          6           0       -0.939863    0.982717   -1.586169
     32          7           0       -1.982191    0.251469   -2.139087
     33          6           0       -3.032381    1.008918   -1.973063
     34          1           0       -4.042321    0.748732   -2.291825
     35          1           0       -4.380054    2.946051   -0.373123
     36          1           0       -3.166074    4.022783   -0.540061
     37          1           0       -4.103599    3.646694   -1.820915
     38          1           0        6.985451    1.167802    0.747989
     39          1           0        7.310959    1.660478   -0.912112
     40          1           0        5.861355    2.238256   -0.089806
     41          1           0        6.237710   -2.983606   -1.565728
     42          6           0        5.728756   -2.036839   -1.384548
     43          8           0        3.597843   -2.845327   -2.042319
     44          6           0        4.322549   -1.939396   -1.631363
     45          1           0        2.786506   -0.590665   -1.532273
     46          7           0        3.777847   -0.698374   -1.369854
     47          8           0        3.866732    1.472247   -0.708248
     48          6           0        4.436700    0.414450   -0.910418
     49          1           0        7.468555   -0.990726   -0.732948
     50          6           0        6.398715   -0.968778   -0.936211
     51          6           0        6.536164    1.403145   -0.205332
     52          7           0        5.790009    0.241330   -0.696435
     53          1           0        3.765046    1.200777    4.382440
     54          1           0        2.625294    1.970333    3.504457
     55          1           0        4.186210    2.009594    3.028977
     56          1           0        0.631479   -3.525813   -0.403539
     57          1           0        2.273436   -3.622643    0.048895
     58          7           0        1.407987   -3.121377    0.079794
     59          6           0        1.295465   -1.965057    0.736631
     60          6           0        2.085268   -0.155589    2.064700
     61          7           0        0.910638    0.495617    2.089202
     62          1           0       -0.996728    0.283895    1.369669
     63          6           0       -0.010086   -0.176344    1.400997
     64          7           0        0.100644   -1.334627    0.742426
     65          1           0        5.205873   -0.707920    2.704200
     66          6           0        4.174186   -0.756278    2.354599
     67          7           0        3.680210   -1.724219    1.621950
     68          6           0        2.356412   -1.355740    1.430935
     69          6           0        3.477168    1.449524    3.457646
     70          7           0        3.264268    0.226418    2.659706
 ---------------------------------------------------------------------

 SCF Done:  E(RwB97XD) =  -2048.75070181     A.U. after   15 cycles

 The electronic state is 1-A.
 Alpha  occ. eigenvalues --  -19.26097 -19.22216 -19.20789 -14.52590 -14.50915
 Alpha  occ. eigenvalues --  -14.49638 -14.48671 -14.47892 -14.47028 -14.46914
 Alpha  occ. eigenvalues --  -14.45432 -14.43868 -14.42569 -14.42356 -14.42333
 Alpha  occ. eigenvalues --  -14.42187 -14.42136 -14.41706 -14.40855 -14.40840
 Alpha  occ. eigenvalues --  -10.45646 -10.41355 -10.40274 -10.38404 -10.37723
 Alpha  occ. eigenvalues --  -10.37701 -10.36484 -10.36079 -10.35789 -10.35408
 Alpha  occ. eigenvalues --  -10.34961 -10.34407 -10.34241 -10.33957 -10.33819
 Alpha  occ. eigenvalues --  -10.33228 -10.32924 -10.31676 -10.31031 -10.30756
 Alpha  occ. eigenvalues --  -10.30562 -10.29410 -10.28198  -1.19624  -1.13579
 Alpha  occ. eigenvalues --   -1.13338  -1.13200  -1.12238  -1.10617  -1.09480
 Alpha  occ. eigenvalues --   -1.08732  -1.07076  -1.05718  -1.02649  -1.02552
 Alpha  occ. eigenvalues --   -1.01096  -0.99937  -0.99272  -0.98624  -0.97751
 Alpha  occ. eigenvalues --   -0.96534  -0.94731  -0.93314  -0.91041  -0.85989
 Alpha  occ. eigenvalues --   -0.84760  -0.84471  -0.84108  -0.83961  -0.83091
 Alpha  occ. eigenvalues --   -0.82369  -0.78937  -0.75182  -0.74645  -0.73788
 Alpha  occ. eigenvalues --   -0.73627  -0.73443  -0.72900  -0.71820  -0.68516
 Alpha  occ. eigenvalues --   -0.67492  -0.67011  -0.66641  -0.64822  -0.64528
 Alpha  occ. eigenvalues --   -0.63806  -0.63413  -0.62756  -0.62333  -0.61846
 Alpha  occ. eigenvalues --   -0.60810  -0.60043  -0.59593  -0.58733  -0.58561
 Alpha  occ. eigenvalues --   -0.58309  -0.57856  -0.57213  -0.57032  -0.56503
 Alpha  occ. eigenvalues --   -0.56141  -0.55902  -0.54503  -0.54358  -0.53835
 Alpha  occ. eigenvalues --   -0.53695  -0.53572  -0.52964  -0.52759  -0.52575
 Alpha  occ. eigenvalues --   -0.52196  -0.51939  -0.51571  -0.51158  -0.50867
 Alpha  occ. eigenvalues --   -0.50235  -0.49737  -0.49575  -0.48933  -0.48540
 Alpha  occ. eigenvalues --   -0.48374  -0.48250  -0.47847  -0.47716  -0.47649
 Alpha  occ. eigenvalues --   -0.47408  -0.45793  -0.44954  -0.44086  -0.42934
 Alpha  occ. eigenvalues --   -0.41948  -0.39655  -0.39033  -0.37952  -0.37380
 Alpha  occ. eigenvalues --   -0.37280  -0.36677  -0.35779  -0.35187  -0.34570
 Alpha  occ. eigenvalues --   -0.34368  -0.34255  -0.33403  -0.32912  -0.32763
 Alpha  occ. eigenvalues --   -0.32529  -0.32224  -0.31986  -0.31905  -0.31733
 Alpha  occ. eigenvalues --   -0.31024  -0.27880  -0.26433  -0.25551
 Alpha virt. eigenvalues --    0.03114   0.05608   0.07152   0.08220   0.08902
 Alpha virt. eigenvalues --    0.09174   0.09671   0.10237   0.10715   0.12406
 Alpha virt. eigenvalues --    0.12904   0.13322   0.14512   0.14741   0.15897

 Mulliken charges:
               1
     1  N   -0.309946
     2  C    0.180655
     3  C    0.029720
     4  N   -0.256007
     5  C    0.130591
     6  H    0.028897
     7  N   -0.281365
     8  C    0.129645
     9  H    0.017244
    10  N   -0.290348
    11  C    0.233550
    12  C    0.096010
    13  N   -0.034760
    14  H    0.107710
    15  H    0.090432
    16  H    0.027951
    17  H    0.036033
    18  H    0.025262
    19  N   -0.304749
    20  C    0.248073
    21  C    0.180244
    22  N   -0.122283
    23  H    0.111577
    24  H    0.118367
    25  N   -0.305741
    26  C    0.245090
    27  N   -0.129903
    28  H    0.118569
    29  C    0.162205
    30  O   -0.325079
    31  C   -0.005194
    32  N   -0.227237
    33  C    0.125921
    34  H    0.030985
    35  H    0.032775
    36  H    0.027423
    37  H    0.022521
    38  H    0.052948
    39  H    0.063527
    40  H    0.074076
    41  H    0.030120
    42  C   -0.088279
    43  O   -0.281619
    44  C    0.185574
    45  H    0.135319
    46  N   -0.128684
    47  O   -0.352552
    48  C    0.351353
    49  H    0.045886
    50  C    0.167947
    51  C    0.039203
    52  N   -0.291644
    53  H    0.030679
    54  H    0.039361
    55  H    0.017695
    56  H    0.116355
    57  H    0.119261
    58  N   -0.038294
    59  C    0.118859
    60  C    0.240709
    61  N   -0.271403
    62  H    0.038041
    63  C    0.153615
    64  N   -0.303485
    65  H    0.023342
    66  C    0.118970
    67  N   -0.253826
    68  C    0.008581
    69  C    0.180215
    70  N   -0.306689
 Sum of Mulliken charges =  -0.00000

 Dipole moment (field-independent basis, Debye):
    X=              5.7480    Y=              5.8774    Z=              3.4848  Tot=              8.9290
 Quadrupole moment (field-independent basis, Debye-Ang):
   XX=           -138.2811   YY=           -226.8546   ZZ=           -252.6587
   XY=             11.6734   XZ=             22.4898   YZ=              0.0463

 Normal termination of Gaussian 16 at Fri Jan 19 21:59:50 2018.
