 Gaussian 16, Revision A.03,
 Gaussian 16:  EM64L-G16RevA.03 25-Dec-2016

 ---------------------------------------
 #p wb97xd/cc-pvdz sp scf=(maxcycles=20)
 ---------------------------------------

 ------------------
 Base pair stacking
 ------------------
 Symbolic Z-matrix:
 Charge =  0 Multiplicity = 1

                         Standard orientation:
 ---------------------------------------------------------------------
 Center     Atomic      Atomic             Coordinates (Angstroms)
 Number     Number       Type             X           Y           Z
 ---------------------------------------------------------------------
      1          7           0       -6.366647   -1.351818    0.359737
      2          6           0       -7.684947   -0.879279    0.825344
      3          6           0       -4.203940   -1.695158    0.154509
      4          7           0       -4.810541   -2.425435   -0.857151
      5          6           0       -6.089222   -2.189352   -0.693024
      6          1           0       -6.881375   -2.604116   -1.317048
      7          7           0       -2.592669   -0.729942    1.581089
      8          6           0       -3.615223   -0.150143    2.218118
      9          1           0       -3.339803    0.479533    3.063062
     10          7           0       -4.920765   -0.231001    1.969297
     11          6           0       -5.150341   -1.028160    0.912769
     12          6           0       -2.856625   -1.526090    0.522056
     13          7           0       -1.837231   -2.105744   -0.115140
     14          1           0       -1.985944   -2.702954   -0.904094
     15          1           0       -0.890655   -1.962896    0.174205
     16          1           0       -8.248468   -1.663217    1.086244
     17          1           0       -7.564677   -0.278830    1.615354
     18          1           0       -8.138771   -0.374391    0.091096
     19          7           0       -3.669010    2.247324   -0.924429
     20          6           0       -2.308031    2.273943   -0.737102
     21          6           0       -4.629116    3.209680   -0.347589
     22          7           0        0.506031    3.742806    0.671876
     23          1           0        1.493339    3.586641    0.680974
     24          1           0        0.165510    4.524664    1.194814
     25          7           0       -1.624682    3.176458   -0.000527
     26          6           0       -0.324762    2.940358   -0.010588
     27          7           0        0.262971    1.900513   -0.689407
     28          1           0        1.264879    1.796704   -0.640677
     29          6           0       -0.420575    0.959901   -1.453533
     30          8           0        0.205439    0.059724   -2.026697
     31          6           0       -1.818074    1.200499   -1.452270
     32          7           0       -2.850664    0.513796   -2.076030
     33          6           0       -3.927072    1.169179   -1.735386
     34          1           0       -4.938390    0.908063   -2.048976
     35          1           0       -5.282085    2.724348    0.232838
     36          1           0       -4.134413    3.883118    0.200150
     37          1           0       -5.119527    3.675459   -1.083365
     38          1           0        6.202195    1.451418    0.523967
     39          1           0        6.412678    2.236837   -1.039193
     40          1           0        4.982318    2.580688   -0.065949
     41          1           0        5.540129   -2.283863   -2.435086
     42          6           0        4.994815   -1.413069   -2.070974
     43          8           0        2.874812   -2.221813   -2.762798
     44          6           0        3.574234   -1.357826   -2.234490
     45          1           0        1.980035   -0.137902   -1.836191
     46          7           0        2.982830   -0.213266   -1.739029
     47          8           0        2.998209    1.815051   -0.717816
     48          6           0        3.608814    0.842175   -1.124422
     49          1           0        6.712503   -0.392448   -1.326864
     50          6           0        5.633514   -0.399126   -1.475496
     51          6           0        5.690972    1.818325   -0.353590
     52          7           0        4.978674    0.714939   -1.003908
     53          1           0        4.657552    0.639323    4.451921
     54          1           0        3.434984    1.478486    3.771302
     55          1           0        4.964081    1.689336    3.240747
     56          1           0        1.511787   -3.382283   -0.932904
     57          1           0        3.178530   -3.457997   -0.577428
     58          7           0        2.291945   -3.020878   -0.422125
     59          6           0        2.157099   -2.001383    0.428531
     60          6           0        2.925521   -0.400305    2.012138
     61          7           0        1.722727    0.167268    2.200743
     62          1           0       -0.207603   -0.030815    1.541057
     63          6           0        0.801140   -0.431021    1.448667
     64          7           0        0.934207   -1.452251    0.596049
     65          1           0        6.099821   -0.869123    2.407405
     66          6           0        5.054517   -0.917890    2.100947
     67          7           0        4.570989   -1.774776    1.235141
     68          6           0        3.221991   -1.457526    1.169574
     69          6           0        4.308155    1.024046    3.597577
     70          7           0        4.114211   -0.056299    2.611036
 ---------------------------------------------------------------------

 SCF Done:  E(RwB97XD) =  -2048.74422926     A.U. after   15 cycles

 The electronic state is 1-A.
 Alpha  occ. eigenvalues --  -19.26001 -19.22104 -19.20775 -14.52572 -14.51509
 Alpha  occ. eigenvalues --  -14.49214 -14.48738 -14.47972 -14.47035 -14.46734
 Alpha  occ. eigenvalues --  -14.46049 -14.44456 -14.42965 -14.42780 -14.42296
 Alpha  occ. eigenvalues --  -14.42062 -14.41766 -14.41295 -14.40828 -14.40480
 Alpha  occ. eigenvalues --  -10.45618 -10.41287 -10.40192 -10.38363 -10.38330
 Alpha  occ. eigenvalues --  -10.37660 -10.36978 -10.36015 -10.35666 -10.35659
 Alpha  occ. eigenvalues --  -10.34616 -10.34456 -10.34354 -10.33726 -10.33393
 Alpha  occ. eigenvalues --  -10.33324 -10.33315 -10.31482 -10.31371 -10.30870
 Alpha  occ. eigenvalues --  -10.30681 -10.28853 -10.28126  -1.19573  -1.14150
 Alpha  occ. eigenvalues --   -1.13350  -1.13289  -1.11762  -1.10607  -1.09427
 Alpha  occ. eigenvalues --   -1.08652  -1.07767  -1.05294  -1.03295  -1.02700
 Alpha  occ. eigenvalues --   -1.00677  -0.99877  -0.99814  -0.98589  -0.97316
 Alpha  occ. eigenvalues --   -0.96551  -0.95386  -0.92922  -0.90961  -0.86550
 Alpha  occ. eigenvalues --   -0.84999  -0.84340  -0.84089  -0.83908  -0.82707
 Alpha  occ. eigenvalues --   -0.82412  -0.78905  -0.75786  -0.74643  -0.73727
 Alpha  occ. eigenvalues --   -0.73552  -0.73465  -0.73208  -0.71369  -0.69127
 Alpha  occ. eigenvalues --   -0.67430  -0.66632  -0.66592  -0.65481  -0.64532
 Alpha  occ. eigenvalues --   -0.63808  -0.63106  -0.62833  -0.62703  -0.61784
 Alpha  occ. eigenvalues --   -0.60491  -0.60479  -0.59518  -0.59294  -0.58438
 Alpha  occ. eigenvalues --   -0.58390  -0.58369  -0.57015  -0.56808  -0.56430
 Alpha  occ. eigenvalues --   -0.56069  -0.55592  -0.54810  -0.54496  -0.54318
 Alpha  occ. eigenvalues --   -0.53702  -0.53518  -0.52956  -0.52687  -0.52629
 Alpha  occ. eigenvalues --   -0.52320  -0.52118  -0.51710  -0.51204  -0.50536
 Alpha  occ. eigenvalues --   -0.50242  -0.49674  -0.49443  -0.49396  -0.48936
 Alpha  occ. eigenvalues --   -0.48668  -0.48382  -0.47743  -0.47588  -0.47458
 Alpha  occ. eigenvalues --   -0.47270  -0.45547  -0.45324  -0.43855  -0.43034
 Alpha  occ. eigenvalues --   -0.41503  -0.39608  -0.39558  -0.37484  -0.37322
 Alpha  occ. eigenvalues --   -0.37269  -0.37156  -0.36399  -0.35700  -0.34243
 Alpha  occ. eigenvalues --   -0.33927  -0.33767  -0.33581  -0.33485  -0.33025
 Alpha  occ. eigenvalues --   -0.32754  -0.32306  -0.31934  -0.31728  -0.31294
 Alpha  occ. eigenvalues --   -0.30680  -0.28090  -0.26115  -0.25394
 Alpha virt. eigenvalues --    0.02961   0.05118   0.07643   0.08055   0.08627
 Alpha virt. eigenvalues --    0.08936   0.09726   0.10641   0.10786   0.12107
 Alpha virt. eigenvalues --    0.13348   0.13663   0.14394   0.14641   0.15092

 Mulliken charges:
               1
     1  N   -0.309922
     2  C    0.180218
     3  C    0.047994
     4  N   -0.249179
     5  C    0.124602
     6  H    0.026696
     7  N   -0.287816
     8  C    0.133784
     9  H    0.014408
    10  N   -0.292654
    11  C    0.231624
    12  C    0.099044
    13  N   -0.040549
    14  H    0.111407
    15  H    0.092396
    16  H    0.027693
    17  H    0.034589
    18  H    0.022292
    19  N   -0.306693
    20  C    0.258670
    21  C    0.181266
    22  N   -0.121106
    23  H    0.114878
    24  H    0.118198
    25  N   -0.309388
    26  C    0.244383
    27  N   -0.145428
    28  H    0.120325
    29  C    0.178784
    30  O   -0.326138
    31  C   -0.013359
    32  N   -0.224310
    33  C    0.130179
    34  H    0.024230
    35  H    0.028895
    36  H    0.028650
    37  H    0.021939
    38  H    0.047881
    39  H    0.062849
    40  H    0.075003
    41  H    0.025097
    42  C   -0.080176
    43  O   -0.282134
    44  C    0.150158
    45  H    0.136735
    46  N   -0.120907
    47  O   -0.346009
    48  C    0.346863
    49  H    0.043872
    50  C    0.181299
    51  C    0.041859
    52  N   -0.281240
    53  H    0.032488
    54  H    0.040645
    55  H    0.018581
    56  H    0.124245
    57  H    0.115765
    58  N   -0.023180
    59  C    0.092579
    60  C    0.241394
    61  N   -0.276351
    62  H    0.032932
    63  C    0.159405
    64  N   -0.304294
    65  H    0.029214
    66  C    0.115676
    67  N   -0.249015
    68  C    0.002494
    69  C    0.181910
    70  N   -0.306242
 Sum of Mulliken charges =  -0.00000

 Dipole moment (field-independent basis, Debye):
    X=              5.8987    Y=              5.6131    Z=              4.2338  Tot=              9.1775
 Quadrupole moment (field-independent basis, Debye-Ang):
   XX=           -143.3815   YY=           -225.7636   ZZ=           -255.3898
   XY=              7.6471   XZ=             14.4087   YZ=              4.5509

 Normal termination of Gaussian 16 at Fri Jan 19 19:35:46 2018.
