 Gaussian 16, Revision A.03,
 Gaussian 16:  EM64L-G16RevA.03 25-Dec-2016

 ---------------------------------------
 #p wb97xd/cc-pvdz sp scf=(maxcycles=20)
 ---------------------------------------

 ------------------
 Base pair stacking
 ------------------
 Symbolic Z-matrix:
 Charge =  0 Multiplicity = 1

                         Standard orientation:
 ---------------------------------------------------------------------
 Center     Atomic      Atomic             Coordinates (Angstroms)
 Number     Number       Type             X           Y           Z
 ---------------------------------------------------------------------
      1          7           0        4.561006   -1.141999   -1.824914
      2          6           0        5.875144   -0.526276   -2.093101
      3          6           0        2.402931   -1.465748   -1.550617
      4          7           0        3.012438   -2.688671   -1.310435
      5          6           0        4.288205   -2.444677   -1.485301
      6          1           0        5.081395   -3.185185   -1.378399
      7          7           0        0.788922    0.233714   -1.814706
      8          6           0        1.807152    1.050279   -2.104556
      9          1           0        1.528900    2.079318   -2.327967
     10          7           0        3.111364    0.787776   -2.159597
     11          6           0        3.344681   -0.502758   -1.868902
     12          6           0        1.056558   -1.058751   -1.526667
     13          7           0        0.041476   -1.875406   -1.237086
     14          1           0        0.193025   -2.839854   -1.017773
     15          1           0       -0.904555   -1.551223   -1.229494
     16          1           0        6.311905   -0.991635   -2.863063
     17          1           0        5.751973    0.440408   -2.315532
     18          1           0        6.455777   -0.608830   -1.283139
     19          7           0        5.531902    1.095061    0.856325
     20          6           0        4.171892    1.281632    0.916288
     21          6           0        6.517734    2.121036    0.461081
     22          7           0        1.397831    3.335509    0.531678
     23          1           0        0.406508    3.263829    0.638299
     24          1           0        1.759327    4.219165    0.233020
     25          7           0        3.512934    2.424384    0.626541
     26          6           0        2.206903    2.294028    0.777889
     27          7           0        1.591296    1.134180    1.181982
     28          1           0        0.586783    1.125926    1.270524
     29          6           0        2.249423   -0.053533    1.485423
     30          8           0        1.599318   -1.044242    1.841234
     31          6           0        3.653149    0.071000    1.327473
     32          7           0        4.667088   -0.856935    1.521744
     33          6           0        5.760932   -0.206411    1.230984
     34          1           0        6.765037   -0.629784    1.273238
     35          1           0        7.022385    1.808532   -0.342948
     36          1           0        6.041222    2.971995    0.244105
     37          1           0        7.155716    2.280121    1.213732
     38          1           0       -4.466383    1.547425    0.895523
     39          1           0       -4.367642    1.784966    2.638640
     40          1           0       -3.048677    2.325644    1.599706
     41          1           0       -3.881095   -2.994016    2.371784
     42          6           0       -3.286045   -2.094178    2.215449
     43          8           0       -1.208793   -3.239026    2.253794
     44          6           0       -1.860501   -2.200218    2.149148
     45          1           0       -0.195528   -1.037336    1.896365
     46          7           0       -1.203883   -1.002746    1.948768
     47          8           0       -1.105086    1.244526    1.636928
     48          6           0       -1.771264    0.239357    1.811645
     49          1           0       -4.948527   -0.762141    2.128109
     50          6           0       -3.868501   -0.896519    2.085236
     51          6           0       -3.801187    1.565077    1.745978
     52          7           0       -3.150077    0.259728    1.886980
     53          1           0       -6.487590    3.341343   -2.092943
     54          1           0       -5.112378    3.526929   -1.234777
     55          1           0       -6.545998    3.409392   -0.463409
     56          1           0       -3.341638   -3.269942   -0.884873
     57          1           0       -5.031931   -3.050370   -0.954088
     58          7           0       -4.118410   -2.642369   -0.938925
     59          6           0       -3.944874   -1.320030   -0.988636
     60          6           0       -4.664767    0.944654   -1.109830
     61          7           0       -3.426345    1.464525   -1.087873
     62          1           0       -1.479096    0.832334   -0.992108
     63          6           0       -2.514964    0.496577   -1.014664
     64          7           0       -2.686775   -0.828406   -0.964784
     65          1           0       -7.895710    0.933526   -1.223929
     66          6           0       -6.839132    0.668537   -1.175274
     67          7           0       -6.380675   -0.557379   -1.107225
     68          6           0       -5.003318   -0.396573   -1.065172
     69          6           0       -6.012940    3.093435   -1.248402
     70          7           0       -5.855804    1.627573   -1.180913
 ---------------------------------------------------------------------

 SCF Done:  E(RwB97XD) =  -2048.74444643     A.U. after   15 cycles

 The electronic state is 1-A.
 Alpha  occ. eigenvalues --  -19.25138 -19.21396 -19.20659 -14.52928 -14.51597
 Alpha  occ. eigenvalues --  -14.49357 -14.48714 -14.48463 -14.47142 -14.46776
 Alpha  occ. eigenvalues --  -14.46678 -14.45735 -14.44732 -14.44717 -14.42913
 Alpha  occ. eigenvalues --  -14.41926 -14.41558 -14.41331 -14.41182 -14.40848
 Alpha  occ. eigenvalues --  -10.44728 -10.41189 -10.40393 -10.39473 -10.38328
 Alpha  occ. eigenvalues --  -10.38305 -10.37620 -10.36962 -10.36275 -10.35917
 Alpha  occ. eigenvalues --  -10.34647 -10.34261 -10.33995 -10.33938 -10.33741
 Alpha  occ. eigenvalues --  -10.33567 -10.33495 -10.33163 -10.31532 -10.31114
 Alpha  occ. eigenvalues --  -10.30335 -10.28732 -10.28437  -1.18730  -1.15685
 Alpha  occ. eigenvalues --   -1.13320  -1.12393  -1.11341  -1.10980  -1.09788
 Alpha  occ. eigenvalues --   -1.08631  -1.08442  -1.05509  -1.05288  -1.01752
 Alpha  occ. eigenvalues --   -1.01342  -1.00899  -0.99744  -0.98684  -0.97404
 Alpha  occ. eigenvalues --   -0.97018  -0.96943  -0.93200  -0.90239  -0.88094
 Alpha  occ. eigenvalues --   -0.86287  -0.84584  -0.84040  -0.83002  -0.82641
 Alpha  occ. eigenvalues --   -0.82513  -0.78130  -0.77429  -0.75333  -0.74910
 Alpha  occ. eigenvalues --   -0.73694  -0.73165  -0.72617  -0.71379  -0.70805
 Alpha  occ. eigenvalues --   -0.67524  -0.67202  -0.66586  -0.65842  -0.64624
 Alpha  occ. eigenvalues --   -0.64530  -0.63372  -0.63050  -0.62680  -0.61914
 Alpha  occ. eigenvalues --   -0.61247  -0.60906  -0.60713  -0.59872  -0.58897
 Alpha  occ. eigenvalues --   -0.58818  -0.58418  -0.58083  -0.56869  -0.55977
 Alpha  occ. eigenvalues --   -0.55683  -0.55640  -0.55578  -0.54544  -0.54200
 Alpha  occ. eigenvalues --   -0.54167  -0.53964  -0.53336  -0.53185  -0.53031
 Alpha  occ. eigenvalues --   -0.52541  -0.51924  -0.51483  -0.50698  -0.50565
 Alpha  occ. eigenvalues --   -0.50358  -0.50221  -0.49512  -0.49272  -0.49091
 Alpha  occ. eigenvalues --   -0.48712  -0.48333  -0.48149  -0.47636  -0.47201
 Alpha  occ. eigenvalues --   -0.47102  -0.45806  -0.45488  -0.45138  -0.42432
 Alpha  occ. eigenvalues --   -0.41424  -0.41088  -0.38882  -0.38138  -0.37960
 Alpha  occ. eigenvalues --   -0.37816  -0.37299  -0.37022  -0.35600  -0.35071
 Alpha  occ. eigenvalues --   -0.34651  -0.34190  -0.33720  -0.33552  -0.33064
 Alpha  occ. eigenvalues --   -0.32892  -0.32513  -0.31974  -0.31035  -0.30999
 Alpha  occ. eigenvalues --   -0.30740  -0.30573  -0.26640  -0.25231
 Alpha virt. eigenvalues --    0.02928   0.04483   0.06448   0.07396   0.08646
 Alpha virt. eigenvalues --    0.09033   0.09627   0.10038   0.10781   0.12557
 Alpha virt. eigenvalues --    0.13019   0.13664   0.14021   0.14487   0.14610

 Mulliken charges:
               1
     1  N   -0.297855
     2  C    0.184634
     3  C    0.056941
     4  N   -0.251473
     5  C    0.150142
     6  H    0.027216
     7  N   -0.286386
     8  C    0.124246
     9  H    0.005376
    10  N   -0.272911
    11  C    0.230650
    12  C    0.077462
    13  N   -0.056509
    14  H    0.115190
    15  H    0.085850
    16  H    0.026088
    17  H    0.034080
    18  H    0.006735
    19  N   -0.303054
    20  C    0.251650
    21  C    0.184624
    22  N   -0.112792
    23  H    0.120291
    24  H    0.118869
    25  N   -0.292255
    26  C    0.212948
    27  N   -0.123588
    28  H    0.120000
    29  C    0.181161
    30  O   -0.319195
    31  C   -0.009683
    32  N   -0.213838
    33  C    0.095256
    34  H    0.026809
    35  H    0.013217
    36  H    0.034439
    37  H    0.027004
    38  H    0.046115
    39  H    0.048992
    40  H    0.074913
    41  H    0.019916
    42  C   -0.100520
    43  O   -0.271729
    44  C    0.172605
    45  H    0.130893
    46  N   -0.119749
    47  O   -0.346228
    48  C    0.328040
    49  H    0.046551
    50  C    0.155081
    51  C    0.062297
    52  N   -0.273437
    53  H    0.037016
    54  H    0.041582
    55  H    0.030615
    56  H    0.124024
    57  H    0.118966
    58  N   -0.057605
    59  C    0.100109
    60  C    0.194882
    61  N   -0.260281
    62  H    0.028957
    63  C    0.169287
    64  N   -0.308226
    65  H    0.039559
    66  C    0.137828
    67  N   -0.255676
    68  C    0.040665
    69  C    0.178044
    70  N   -0.304824
 Sum of Mulliken charges =  -0.00000

 Dipole moment (field-independent basis, Debye):
    X=             -6.0375    Y=              7.5182    Z=             -2.3242  Tot=              9.9185
 Quadrupole moment (field-independent basis, Debye-Ang):
   XX=           -149.0741   YY=           -229.4218   ZZ=           -256.2260
   XY=             -3.2024   XZ=            -11.3685   YZ=             13.8438

 Normal termination of Gaussian 16 at Sat Jan 20 05:55:04 2018.
