 Gaussian 16, Revision A.03,
 Gaussian 16:  EM64L-G16RevA.03 25-Dec-2016

 ---------------------------------------
 #p wb97xd/cc-pvdz sp scf=(maxcycles=20)
 ---------------------------------------

 ------------------
 Base pair stacking
 ------------------
 Symbolic Z-matrix:
 Charge =  0 Multiplicity = 1

                         Standard orientation:
 ---------------------------------------------------------------------
 Center     Atomic      Atomic             Coordinates (Angstroms)
 Number     Number       Type             X           Y           Z
 ---------------------------------------------------------------------
      1          7           0       -7.084395   -0.819490    0.199317
      2          6           0       -8.361902   -0.083704    0.131601
      3          6           0       -4.963065   -1.337428    0.462041
      4          7           0       -5.606951   -2.511198    0.098155
      5          6           0       -6.859203   -2.152178   -0.045562
      6          1           0       -7.668166   -2.825027   -0.331557
      7          7           0       -3.310406    0.225191    1.086451
      8          6           0       -4.288696    1.136255    1.108795
      9          1           0       -3.978724    2.144887    1.378666
     10          7           0       -5.586306    0.989126    0.849049
     11          6           0       -5.860794   -0.286153    0.528495
     12          6           0       -3.618876   -1.048960    0.760162
     13          7           0       -2.643698   -1.959829    0.737301
     14          1           0       -2.826290   -2.914910    0.501284
     15          1           0       -1.697897   -1.718751    0.955196
     16          1           0       -9.012120   -0.481774    0.778854
     17          1           0       -8.207280    0.876167    0.363723
     18          1           0       -8.735622   -0.145029   -0.793907
     19          7           0       -2.885070    1.618851   -1.492209
     20          6           0       -1.540662    1.679986   -1.214904
     21          6           0       -3.870760    2.671898   -1.175701
     22          7           0        1.185415    3.386008    0.096480
     23          1           0        2.167360    3.234308    0.206059
     24          1           0        0.819072    4.251695    0.438697
     25          7           0       -0.899415    2.704094   -0.611532
     26          6           0        0.394599    2.470302   -0.483175
     27          7           0        1.015126    1.322088   -0.912207
     28          1           0        2.009519    1.229222   -0.772476
     29          6           0        0.375132    0.255417   -1.535497
     30          8           0        1.028180   -0.735875   -1.884210
     31          6           0       -1.015523    0.491982   -1.680384
     32          7           0       -2.010225   -0.299064   -2.238696
     33          6           0       -3.099222    0.408330   -2.104930
     34          1           0       -4.089045    0.093264   -2.436968
     35          1           0       -4.569924    2.303355   -0.564017
     36          1           0       -3.407298    3.435718   -0.728419
     37          1           0       -4.301158    2.992216   -2.018890
     38          1           0        6.846173    1.107426    0.791054
     39          1           0        7.178100    1.587441   -0.871496
     40          1           0        5.686791    2.106781   -0.085584
     41          1           0        6.346284   -3.114345   -1.461372
     42          6           0        5.788214   -2.190921   -1.306176
     43          8           0        3.712174   -3.114609   -1.987338
     44          6           0        4.383772   -2.167196   -1.579714
     45          1           0        2.781866   -0.894436   -1.532062
     46          7           0        3.774075   -0.950317   -1.350099
     47          8           0        3.744034    1.232913   -0.725756
     48          6           0        4.368867    0.201275   -0.898862
     49          1           0        7.462137   -1.049352   -0.642382
     50          6           0        6.396500   -1.083671   -0.865039
     51          6           0        6.403786    1.304156   -0.174166
     52          7           0        5.724806    0.098794   -0.657743
     53          1           0        3.939923    2.702977    3.080355
     54          1           0        2.834790    2.975282    1.911312
     55          1           0        4.394770    2.707144    1.513021
     56          1           0        0.581306   -3.652128    1.237027
     57          1           0        2.218095   -3.576507    1.711679
     58          7           0        1.376698   -3.092206    1.469352
     59          6           0        1.319001   -1.758907    1.456868
     60          6           0        2.194249    0.438296    1.717565
     61          7           0        1.050886    1.061704    1.388149
     62          1           0       -0.865842    0.596425    0.831119
     63          6           0        0.098648    0.173782    1.109323
     64          7           0        0.154465   -1.161999    1.121249
     65          1           0        5.287570    0.153226    2.613244
     66          6           0        4.253956   -0.021416    2.313096
     67          7           0        3.714311   -1.204963    2.152908
     68          6           0        2.408435   -0.927831    1.775293
     69          6           0        3.661691    2.466651    2.149363
     70          7           0        3.390917    1.018283    2.066262
 ---------------------------------------------------------------------

 SCF Done:  E(RwB97XD) =  -2048.69163243     A.U. after   15 cycles

 The electronic state is 1-A.
 Alpha  occ. eigenvalues --  -19.26171 -19.21931 -19.20433 -14.52721 -14.51308
 Alpha  occ. eigenvalues --  -14.50120 -14.48147 -14.47902 -14.46718 -14.46055
 Alpha  occ. eigenvalues --  -14.46052 -14.44318 -14.43410 -14.43110 -14.42783
 Alpha  occ. eigenvalues --  -14.42434 -14.42267 -14.41940 -14.41514 -14.40562
 Alpha  occ. eigenvalues --  -10.45724 -10.40816 -10.40044 -10.38536 -10.37950
 Alpha  occ. eigenvalues --  -10.37771 -10.36993 -10.36812 -10.36180 -10.35890
 Alpha  occ. eigenvalues --  -10.35408 -10.34887 -10.34550 -10.34441 -10.34006
 Alpha  occ. eigenvalues --  -10.33698 -10.32935 -10.32063 -10.31347 -10.31102
 Alpha  occ. eigenvalues --  -10.29974 -10.29285 -10.27898  -1.19788  -1.14164
 Alpha  occ. eigenvalues --   -1.13113  -1.12981  -1.12760  -1.10267  -1.09580
 Alpha  occ. eigenvalues --   -1.08501  -1.07856  -1.06483  -1.03560  -1.02577
 Alpha  occ. eigenvalues --   -1.01905  -1.00002  -0.99427  -0.98356  -0.98285
 Alpha  occ. eigenvalues --   -0.96224  -0.95496  -0.94096  -0.91158  -0.86732
 Alpha  occ. eigenvalues --   -0.85446  -0.85258  -0.84232  -0.83761  -0.83615
 Alpha  occ. eigenvalues --   -0.81811  -0.79005  -0.75976  -0.74614  -0.74252
 Alpha  occ. eigenvalues --   -0.73710  -0.73507  -0.73271  -0.72607  -0.69428
 Alpha  occ. eigenvalues --   -0.67708  -0.67261  -0.66666  -0.65790  -0.64572
 Alpha  occ. eigenvalues --   -0.64203  -0.63446  -0.63261  -0.62677  -0.61516
 Alpha  occ. eigenvalues --   -0.61496  -0.60819  -0.59673  -0.59640  -0.59003
 Alpha  occ. eigenvalues --   -0.58556  -0.58200  -0.57970  -0.57672  -0.57031
 Alpha  occ. eigenvalues --   -0.56485  -0.55968  -0.55442  -0.54578  -0.54449
 Alpha  occ. eigenvalues --   -0.54144  -0.53369  -0.53233  -0.53010  -0.52696
 Alpha  occ. eigenvalues --   -0.52359  -0.52080  -0.51793  -0.51630  -0.51150
 Alpha  occ. eigenvalues --   -0.50321  -0.49900  -0.49529  -0.49057  -0.48554
 Alpha  occ. eigenvalues --   -0.48501  -0.48438  -0.48028  -0.47759  -0.47466
 Alpha  occ. eigenvalues --   -0.47221  -0.46037  -0.45515  -0.44173  -0.42795
 Alpha  occ. eigenvalues --   -0.41958  -0.40026  -0.39718  -0.38715  -0.37251
 Alpha  occ. eigenvalues --   -0.37133  -0.37045  -0.35848  -0.35344  -0.34907
 Alpha  occ. eigenvalues --   -0.34866  -0.34621  -0.33200  -0.33107  -0.32875
 Alpha  occ. eigenvalues --   -0.32596  -0.32335  -0.31943  -0.31839  -0.31664
 Alpha  occ. eigenvalues --   -0.31178  -0.27657  -0.26987  -0.25268
 Alpha virt. eigenvalues --    0.03120   0.04681   0.06383   0.08044   0.08464
 Alpha virt. eigenvalues --    0.09098   0.09575   0.09811   0.11240   0.12282
 Alpha virt. eigenvalues --    0.12675   0.13207   0.14489   0.14672   0.14880

 Mulliken charges:
               1
     1  N   -0.312387
     2  C    0.180300
     3  C    0.045015
     4  N   -0.256850
     5  C    0.133687
     6  H    0.031022
     7  N   -0.261897
     8  C    0.123580
     9  H    0.024754
    10  N   -0.296215
    11  C    0.235840
    12  C    0.092942
    13  N   -0.041574
    14  H    0.107718
    15  H    0.088605
    16  H    0.028958
    17  H    0.035321
    18  H    0.027668
    19  N   -0.286427
    20  C    0.224702
    21  C    0.178383
    22  N   -0.075314
    23  H    0.099186
    24  H    0.112686
    25  N   -0.280634
    26  C    0.196814
    27  N   -0.104452
    28  H    0.122373
    29  C    0.125088
    30  O   -0.321883
    31  C    0.017699
    32  N   -0.222678
    33  C    0.113493
    34  H    0.026750
    35  H    0.021114
    36  H    0.023474
    37  H    0.015964
    38  H    0.051393
    39  H    0.067322
    40  H    0.081892
    41  H    0.032190
    42  C   -0.102161
    43  O   -0.265798
    44  C    0.186301
    45  H    0.133738
    46  N   -0.129525
    47  O   -0.349043
    48  C    0.348775
    49  H    0.046264
    50  C    0.171213
    51  C    0.027619
    52  N   -0.287008
    53  H    0.033483
    54  H    0.018404
    55  H    0.005628
    56  H    0.117177
    57  H    0.120240
    58  N   -0.067590
    59  C    0.134524
    60  C    0.216562
    61  N   -0.278814
    62  H    0.062780
    63  C    0.152999
    64  N   -0.302658
    65  H    0.023742
    66  C    0.109539
    67  N   -0.250851
    68  C    0.019209
    69  C    0.183176
    70  N   -0.283546
 Sum of Mulliken charges =  -0.00000

 Dipole moment (field-independent basis, Debye):
    X=              4.7726    Y=              5.6453    Z=              4.5386  Tot=              8.6744
 Quadrupole moment (field-independent basis, Debye-Ang):
   XX=           -137.4047   YY=           -229.4083   ZZ=           -258.0306
   XY=             18.1769   XZ=             17.7018   YZ=             -8.1562

 Normal termination of Gaussian 16 at Fri Jan 19 21:36:12 2018.
