 Gaussian 16, Revision A.03,
 Gaussian 16:  EM64L-G16RevA.03 25-Dec-2016

 ---------------------------------------
 #p wb97xd/cc-pvdz sp scf=(maxcycles=20)
 ---------------------------------------

 ------------------
 Base pair stacking
 ------------------
 Symbolic Z-matrix:
 Charge =  0 Multiplicity = 1

                         Standard orientation:
 ---------------------------------------------------------------------
 Center     Atomic      Atomic             Coordinates (Angstroms)
 Number     Number       Type             X           Y           Z
 ---------------------------------------------------------------------
      1          7           0        4.585744   -0.905344   -1.801227
      2          6           0        5.906621   -0.255813   -1.907937
      3          6           0        2.421097   -1.265329   -1.652760
      4          7           0        3.023861   -2.514860   -1.643490
      5          6           0        4.303847   -2.247975   -1.733309
      6          1           0        5.093842   -2.999248   -1.754398
      7          7           0        0.814884    0.461448   -1.617358
      8          6           0        1.840554    1.313714   -1.713270
      9          1           0        1.568473    2.368092   -1.735839
     10          7           0        3.145739    1.060274   -1.785139
     11          6           0        3.371091   -0.263503   -1.749553
     12          6           0        1.074618   -0.863880   -1.583862
     13          7           0        0.052094   -1.716210   -1.488151
     14          1           0        0.197635   -2.705782   -1.460118
     15          1           0       -0.893770   -1.394843   -1.441223
     16          1           0        6.363670   -0.562035   -2.743109
     17          1           0        5.789526    0.736421   -1.937846
     18          1           0        6.465490   -0.500062   -1.115464
     19          7           0        5.515072    0.975023    0.887381
     20          6           0        4.153095    1.149365    0.939006
     21          6           0        6.496486    2.019236    0.530808
     22          7           0        1.366624    3.191815    0.584432
     23          1           0        0.374910    3.109538    0.679141
     24          1           0        1.723944    4.086255    0.314213
     25          7           0        3.487901    2.294679    0.674799
     26          6           0        2.181531    2.150087    0.809445
     27          7           0        1.571303    0.974658    1.174801
     28          1           0        0.566067    0.956198    1.253077
     29          6           0        2.235898   -0.215995    1.451438
     30          8           0        1.590281   -1.221265    1.772908
     31          6           0        3.640045   -0.076278    1.310987
     32          7           0        4.659413   -1.001471    1.489305
     33          6           0        5.750812   -0.334653    1.227747
     34          1           0        6.757808   -0.751299    1.268127
     35          1           0        7.011407    1.733292   -0.276591
     36          1           0        6.015348    2.872250    0.332984
     37          1           0        7.125830    2.162044    1.293918
     38          1           0       -4.486412    1.349148    0.839793
     39          1           0       -4.406510    1.538450    2.589769
     40          1           0       -3.081878    2.118197    1.579533
     41          1           0       -3.879324   -3.227276    2.194201
     42          6           0       -3.289967   -2.318855    2.069023
     43          8           0       -1.204128   -3.448312    2.095977
     44          6           0       -1.863046   -2.412023    2.013953
     45          1           0       -0.205016   -1.229727    1.810364
     46          7           0       -1.214080   -1.204377    1.853686
     47          8           0       -1.130173    1.051448    1.605829
     48          6           0       -1.789990    0.036681    1.745724
     49          1           0       -4.962098   -0.997725    2.002442
     50          6           0       -3.880668   -1.122531    1.966568
     51          6           0       -3.829678    1.348056    1.696977
     52          7           0       -3.169579    0.044319    1.807882
     53          1           0       -6.451287    3.601804   -1.464797
     54          1           0       -5.099384    3.606590   -0.551319
     55          1           0       -6.553033    3.346518    0.143898
     56          1           0       -3.339358   -3.134636   -1.507123
     57          1           0       -5.027189   -2.896639   -1.575561
     58          7           0       -4.114349   -2.504607   -1.456166
     59          6           0       -3.939398   -1.199516   -1.238708
     60          6           0       -4.655545    1.048245   -0.928139
     61          7           0       -3.418089    1.546831   -0.771487
     62          1           0       -1.474161    0.897725   -0.751980
     63          6           0       -2.509092    0.578638   -0.867512
     64          7           0       -2.682319   -0.729089   -1.085278
     65          1           0       -7.882317    1.077276   -1.126370
     66          6           0       -6.827439    0.802219   -1.103573
     67          7           0       -6.371091   -0.415380   -1.267514
     68          6           0       -4.995324   -0.273479   -1.158588
     69          6           0       -5.999316    3.189205   -0.673916
     70          7           0       -5.844192    1.738122   -0.893723
 ---------------------------------------------------------------------

 SCF Done:  E(RwB97XD) =  -2048.70305322     A.U. after   15 cycles

 The electronic state is 1-A.
 Alpha  occ. eigenvalues --  -19.25005 -19.21223 -19.20654 -14.53140 -14.51459
 Alpha  occ. eigenvalues --  -14.49374 -14.48841 -14.48651 -14.47079 -14.46645
 Alpha  occ. eigenvalues --  -14.46603 -14.45898 -14.44709 -14.44620 -14.43061
 Alpha  occ. eigenvalues --  -14.41681 -14.41612 -14.41365 -14.41270 -14.40864
 Alpha  occ. eigenvalues --  -10.44627 -10.40984 -10.40552 -10.39326 -10.38443
 Alpha  occ. eigenvalues --  -10.38298 -10.37706 -10.36882 -10.36224 -10.35999
 Alpha  occ. eigenvalues --  -10.34556 -10.34475 -10.34151 -10.33976 -10.33661
 Alpha  occ. eigenvalues --  -10.33400 -10.33298 -10.32777 -10.31607 -10.31192
 Alpha  occ. eigenvalues --  -10.30245 -10.28805 -10.28424  -1.18698  -1.15961
 Alpha  occ. eigenvalues --   -1.13355  -1.12247  -1.11474  -1.11006  -1.09950
 Alpha  occ. eigenvalues --   -1.08645  -1.08342  -1.05621  -1.05563  -1.01640
 Alpha  occ. eigenvalues --   -1.01544  -1.01063  -0.99732  -0.98656  -0.97647
 Alpha  occ. eigenvalues --   -0.97161  -0.96982  -0.93310  -0.90096  -0.88310
 Alpha  occ. eigenvalues --   -0.86484  -0.84768  -0.84066  -0.83069  -0.82651
 Alpha  occ. eigenvalues --   -0.82446  -0.78027  -0.77601  -0.75620  -0.74928
 Alpha  occ. eigenvalues --   -0.73737  -0.73271  -0.72509  -0.71545  -0.71003
 Alpha  occ. eigenvalues --   -0.67542  -0.67442  -0.66727  -0.65755  -0.64835
 Alpha  occ. eigenvalues --   -0.64548  -0.63422  -0.63221  -0.62662  -0.61951
 Alpha  occ. eigenvalues --   -0.61762  -0.61137  -0.60942  -0.60094  -0.58960
 Alpha  occ. eigenvalues --   -0.58813  -0.58682  -0.58343  -0.57092  -0.56202
 Alpha  occ. eigenvalues --   -0.55876  -0.55596  -0.55374  -0.54849  -0.54701
 Alpha  occ. eigenvalues --   -0.54253  -0.54073  -0.53472  -0.53168  -0.52929
 Alpha  occ. eigenvalues --   -0.52233  -0.51978  -0.51276  -0.50961  -0.50625
 Alpha  occ. eigenvalues --   -0.50349  -0.49912  -0.49553  -0.49377  -0.49124
 Alpha  occ. eigenvalues --   -0.48617  -0.48544  -0.48014  -0.47427  -0.47336
 Alpha  occ. eigenvalues --   -0.46997  -0.45737  -0.45174  -0.45014  -0.42037
 Alpha  occ. eigenvalues --   -0.41259  -0.41133  -0.38803  -0.38535  -0.38116
 Alpha  occ. eigenvalues --   -0.37973  -0.37218  -0.36578  -0.35414  -0.35173
 Alpha  occ. eigenvalues --   -0.34615  -0.34333  -0.33858  -0.33526  -0.33041
 Alpha  occ. eigenvalues --   -0.32876  -0.32389  -0.31950  -0.31054  -0.30969
 Alpha  occ. eigenvalues --   -0.30554  -0.30420  -0.26965  -0.24908
 Alpha virt. eigenvalues --    0.02988   0.04449   0.06225   0.06790   0.08527
 Alpha virt. eigenvalues --    0.09013   0.09439   0.09838   0.11181   0.12695
 Alpha virt. eigenvalues --    0.12999   0.13402   0.14107   0.14423   0.14799

 Mulliken charges:
               1
     1  N   -0.296407
     2  C    0.190239
     3  C    0.062717
     4  N   -0.254301
     5  C    0.148115
     6  H    0.027536
     7  N   -0.279675
     8  C    0.134626
     9  H   -0.001273
    10  N   -0.266320
    11  C    0.223451
    12  C    0.072517
    13  N   -0.057122
    14  H    0.112575
    15  H    0.084016
    16  H    0.025643
    17  H    0.032502
    18  H    0.003251
    19  N   -0.297285
    20  C    0.236153
    21  C    0.183496
    22  N   -0.093432
    23  H    0.121969
    24  H    0.119767
    25  N   -0.260296
    26  C    0.143801
    27  N   -0.099678
    28  H    0.120136
    29  C    0.172518
    30  O   -0.318943
    31  C    0.002086
    32  N   -0.209775
    33  C    0.087853
    34  H    0.028658
    35  H    0.008887
    36  H    0.035374
    37  H    0.027771
    38  H    0.033621
    39  H    0.037726
    40  H    0.074355
    41  H    0.022385
    42  C   -0.100489
    43  O   -0.269730
    44  C    0.174652
    45  H    0.130982
    46  N   -0.118967
    47  O   -0.342913
    48  C    0.318787
    49  H    0.046555
    50  C    0.154956
    51  C    0.087247
    52  N   -0.274931
    53  H    0.037645
    54  H    0.042044
    55  H    0.032081
    56  H    0.122669
    57  H    0.120481
    58  N   -0.060556
    59  C    0.107384
    60  C    0.203070
    61  N   -0.276421
    62  H    0.028940
    63  C    0.167884
    64  N   -0.308289
    65  H    0.039900
    66  C    0.137140
    67  N   -0.253304
    68  C    0.041827
    69  C    0.178702
    70  N   -0.306579
 Sum of Mulliken charges =  -0.00000

 Dipole moment (field-independent basis, Debye):
    X=             -6.0433    Y=              7.6314    Z=             -2.4683  Tot=             10.0425
 Quadrupole moment (field-independent basis, Debye-Ang):
   XX=           -149.0861   YY=           -232.9149   ZZ=           -255.2788
   XY=             -1.5715   XZ=            -11.4555   YZ=             17.0827

 Normal termination of Gaussian 16 at Fri Jan 19 21:01:03 2018.
