 Gaussian 16, Revision A.03,
 Gaussian 16:  EM64L-G16RevA.03 25-Dec-2016

 ---------------------------------------
 #p wb97xd/cc-pvdz sp scf=(maxcycles=20)
 ---------------------------------------

 ------------------
 Base pair stacking
 ------------------
 Symbolic Z-matrix:
 Charge =  0 Multiplicity = 1

                         Standard orientation:
 ---------------------------------------------------------------------
 Center     Atomic      Atomic             Coordinates (Angstroms)
 Number     Number       Type             X           Y           Z
 ---------------------------------------------------------------------
      1          7           0        5.765222   -1.389785   -0.907197
      2          6           0        7.083931   -0.810483   -1.228769
      3          6           0        3.599555   -1.741669   -0.754320
      4          7           0        4.211363   -2.788470   -0.080062
      5          6           0        5.491616   -2.534579   -0.199154
      6          1           0        6.287709   -3.154771    0.213804
      7          7           0        1.979621   -0.311671   -1.699772
      8          6           0        3.001357    0.433228   -2.134241
      9          1           0        2.721998    1.321631   -2.698996
     10          7           0        4.310208    0.246344   -1.976551
     11          6           0        4.544512   -0.871544   -1.269549
     12          6           0        2.248368   -1.430142   -0.991345
     13          7           0        1.229798   -2.175023   -0.556787
     14          1           0        1.381999   -3.011185   -0.028687
     15          1           0        0.280370   -1.922807   -0.744191
     16          1           0        7.615819   -1.466188   -1.764797
     17          1           0        6.960216    0.028542   -1.757782
     18          1           0        7.573130   -0.599804   -0.382414
     19          7           0        4.339918    1.710878    1.077722
     20          6           0        2.976962    1.826412    0.947113
     21          6           0        5.331934    2.673663    0.558458
     22          7           0        0.202775    3.570135   -0.203982
     23          1           0       -0.791425    3.467188   -0.189384
     24          1           0        0.568313    4.380505   -0.662672
     25          7           0        2.320262    2.830808    0.327451
     26          6           0        1.010328    2.662801    0.365667
     27          7           0        0.389047    1.593682    0.964418
     28          1           0       -0.618154    1.547393    0.945160
     29          6           0        1.044754    0.548725    1.607825
     30          8           0        0.389466   -0.369287    2.116339
     31          6           0        2.452613    0.715262    1.574981
     32          7           0        3.465983   -0.081806    2.089421
     33          6           0        4.564984    0.546792    1.771194
     34          1           0        5.570269    0.204074    2.018636
     35          1           0        5.936902    2.213964   -0.090767
     36          1           0        4.857145    3.422149    0.097357
     37          1           0        5.872088    3.039284    1.315673
     38          1           0       -5.603622    1.574713   -0.053372
     39          1           0       -5.717100    2.213765    1.584733
     40          1           0       -4.303614    2.576044    0.593683
     41          1           0       -5.050310   -2.460806    2.506906
     42          6           0       -4.470093   -1.588196    2.206681
     43          8           0       -2.376097   -2.569780    2.734670
     44          6           0       -3.043923   -1.623145    2.319114
     45          1           0       -1.398806   -0.454792    1.977280
     46          7           0       -2.406958   -0.468042    1.912611
     47          8           0       -2.344182    1.648274    1.091352
     48          6           0       -2.993781    0.673465    1.426647
     49          1           0       -6.152632   -0.411877    1.631227
     50          6           0       -5.071268   -0.489147    1.736278
     51          6           0       -5.043390    1.827157    0.834588
     52          7           0       -4.371883    0.630031    1.348120
     53          1           0       -5.302136    2.104836   -3.653940
     54          1           0       -4.036147    2.632966   -2.770517
     55          1           0       -5.542820    2.676167   -2.144285
     56          1           0       -2.132705   -3.591666   -0.108519
     57          1           0       -3.810186   -3.507832   -0.407100
     58          7           0       -2.915313   -3.060961   -0.434137
     59          6           0       -2.773014   -1.812762   -0.884596
     60          6           0       -3.535759    0.251940   -1.788472
     61          7           0       -2.321886    0.826665   -1.813236
     62          1           0       -0.380974    0.375672   -1.333594
     63          6           0       -1.398510   -0.012466   -1.348325
     64          7           0       -1.539030   -1.263010   -0.896696
     65          1           0       -6.732614    0.009572   -2.205072
     66          6           0       -5.681210   -0.162202   -1.972743
     67          7           0       -5.200267   -1.274919   -1.474508
     68          6           0       -3.840925   -1.025774   -1.352732
     69          6           0       -4.917639    2.163210   -2.732669
     70          7           0       -4.729520    0.804619   -2.187823
 ---------------------------------------------------------------------

 SCF Done:  E(RwB97XD) =  -2048.75424806     A.U. after   15 cycles

 The electronic state is 1-A.
 Alpha  occ. eigenvalues --  -19.25529 -19.21696 -19.20587 -14.52355 -14.52170
 Alpha  occ. eigenvalues --  -14.49180 -14.48646 -14.47520 -14.47501 -14.46837
 Alpha  occ. eigenvalues --  -14.46565 -14.45349 -14.44008 -14.43940 -14.42618
 Alpha  occ. eigenvalues --  -14.41922 -14.41631 -14.41353 -14.40803 -14.40602
 Alpha  occ. eigenvalues --  -10.45140 -10.41159 -10.39851 -10.39518 -10.38198
 Alpha  occ. eigenvalues --  -10.37890 -10.37380 -10.37004 -10.35795 -10.35501
 Alpha  occ. eigenvalues --  -10.35191 -10.34355 -10.34245 -10.34048 -10.33720
 Alpha  occ. eigenvalues --  -10.33429 -10.33283 -10.32413 -10.31634 -10.30648
 Alpha  occ. eigenvalues --  -10.30643 -10.28830 -10.28021  -1.19163  -1.15112
 Alpha  occ. eigenvalues --   -1.13130  -1.12754  -1.11697  -1.10491  -1.09056
 Alpha  occ. eigenvalues --   -1.08885  -1.08486  -1.05400  -1.04395  -1.02224
 Alpha  occ. eigenvalues --   -1.00838  -1.00803  -0.99641  -0.98452  -0.97329
 Alpha  occ. eigenvalues --   -0.96473  -0.96459  -0.93063  -0.90681  -0.87489
 Alpha  occ. eigenvalues --   -0.85864  -0.84353  -0.83993  -0.83550  -0.82773
 Alpha  occ. eigenvalues --   -0.82327  -0.78535  -0.76787  -0.74632  -0.74476
 Alpha  occ. eigenvalues --   -0.73544  -0.73261  -0.73083  -0.71408  -0.70135
 Alpha  occ. eigenvalues --   -0.67293  -0.66686  -0.66475  -0.66250  -0.64280
 Alpha  occ. eigenvalues --   -0.63948  -0.63637  -0.63089  -0.62546  -0.61677
 Alpha  occ. eigenvalues --   -0.61400  -0.60686  -0.60235  -0.59294  -0.59173
 Alpha  occ. eigenvalues --   -0.58364  -0.58266  -0.57359  -0.56949  -0.56188
 Alpha  occ. eigenvalues --   -0.55821  -0.55723  -0.55184  -0.54571  -0.54105
 Alpha  occ. eigenvalues --   -0.53729  -0.53473  -0.53315  -0.52915  -0.52813
 Alpha  occ. eigenvalues --   -0.52627  -0.52324  -0.52248  -0.51151  -0.50626
 Alpha  occ. eigenvalues --   -0.50023  -0.49865  -0.49259  -0.49184  -0.48930
 Alpha  occ. eigenvalues --   -0.48657  -0.48286  -0.48180  -0.47405  -0.47270
 Alpha  occ. eigenvalues --   -0.47223  -0.45921  -0.45194  -0.44545  -0.43209
 Alpha  occ. eigenvalues --   -0.41456  -0.40502  -0.39185  -0.37595  -0.37474
 Alpha  occ. eigenvalues --   -0.37310  -0.37171  -0.37103  -0.36069  -0.34467
 Alpha  occ. eigenvalues --   -0.34233  -0.34073  -0.33708  -0.33590  -0.32984
 Alpha  occ. eigenvalues --   -0.32556  -0.32207  -0.31792  -0.31691  -0.31246
 Alpha  occ. eigenvalues --   -0.30817  -0.29395  -0.26081  -0.25389
 Alpha virt. eigenvalues --    0.03550   0.04135   0.07275   0.07506   0.08461
 Alpha virt. eigenvalues --    0.09080   0.09835   0.10524   0.10763   0.12224
 Alpha virt. eigenvalues --    0.13290   0.13582   0.13887   0.14442   0.14908

 Mulliken charges:
               1
     1  N   -0.306992
     2  C    0.176208
     3  C    0.068056
     4  N   -0.248758
     5  C    0.128484
     6  H    0.026486
     7  N   -0.289113
     8  C    0.135817
     9  H    0.012203
    10  N   -0.287023
    11  C    0.223621
    12  C    0.091249
    13  N   -0.045336
    14  H    0.111840
    15  H    0.087013
    16  H    0.028865
    17  H    0.037398
    18  H    0.020164
    19  N   -0.294825
    20  C    0.249312
    21  C    0.185066
    22  N   -0.118237
    23  H    0.117107
    24  H    0.117355
    25  N   -0.305556
    26  C    0.235265
    27  N   -0.142845
    28  H    0.119917
    29  C    0.183277
    30  O   -0.324503
    31  C   -0.016959
    32  N   -0.215942
    33  C    0.121315
    34  H    0.016986
    35  H    0.019548
    36  H    0.029876
    37  H    0.021227
    38  H    0.042731
    39  H    0.061404
    40  H    0.075228
    41  H    0.023486
    42  C   -0.104967
    43  O   -0.272186
    44  C    0.160638
    45  H    0.132153
    46  N   -0.112643
    47  O   -0.340635
    48  C    0.334670
    49  H    0.043263
    50  C    0.176796
    51  C    0.044082
    52  N   -0.276050
    53  H    0.035749
    54  H    0.041503
    55  H    0.017862
    56  H    0.125831
    57  H    0.118132
    58  N   -0.049344
    59  C    0.091277
    60  C    0.219021
    61  N   -0.261318
    62  H    0.032600
    63  C    0.153789
    64  N   -0.297475
    65  H    0.035188
    66  C    0.111055
    67  N   -0.248705
    68  C    0.038744
    69  C    0.181406
    70  N   -0.300853
 Sum of Mulliken charges =  -0.00000

 Dipole moment (field-independent basis, Debye):
    X=             -5.7011    Y=              6.1407    Z=             -4.3050  Tot=              9.4204
 Quadrupole moment (field-independent basis, Debye-Ang):
   XX=           -146.4191   YY=           -224.2539   ZZ=           -260.6574
   XY=            -10.1589   XZ=              5.3505   YZ=              3.2260

 Normal termination of Gaussian 16 at Fri Jan 19 11:14:45 2018.
