 Gaussian 16, Revision A.03,
 Gaussian 16:  EM64L-G16RevA.03 25-Dec-2016

 ---------------------------------------
 #p wb97xd/cc-pvdz sp scf=(maxcycles=20)
 ---------------------------------------

 ------------------
 Base pair stacking
 ------------------
 Symbolic Z-matrix:
 Charge =  0 Multiplicity = 1

                         Standard orientation:
 ---------------------------------------------------------------------
 Center     Atomic      Atomic             Coordinates (Angstroms)
 Number     Number       Type             X           Y           Z
 ---------------------------------------------------------------------
      1          7           0       -7.156515   -0.892198    0.136621
      2          6           0       -8.459538   -0.241315    0.374344
      3          6           0       -5.014492   -1.390496    0.164026
      4          7           0       -5.623722   -2.340760   -0.642557
      5          6           0       -6.889833   -2.002522   -0.626779
      6          1           0       -7.679902   -2.532806   -1.159242
      7          7           0       -3.406205   -0.151541    1.364578
      8          6           0       -4.414720    0.634571    1.755105
      9          1           0       -4.135083    1.459141    2.409433
     10          7           0       -5.710714    0.555426    1.460077
     11          6           0       -5.946580   -0.490987    0.651478
     12          6           0       -3.676167   -1.195893    0.551246
     13          7           0       -2.670781   -1.981756    0.160335
     14          1           0       -2.824396   -2.766172   -0.441574
     15          1           0       -1.730273   -1.813288    0.455642
     16          1           0       -9.084631   -0.891600    0.806271
     17          1           0       -8.334097    0.547992    0.974668
     18          1           0       -8.846539    0.062394   -0.496289
     19          7           0       -2.765961    2.068979   -1.424864
     20          6           0       -1.416584    2.076907   -1.165707
     21          6           0       -3.703626    3.163258   -1.102364
     22          7           0        1.394064    3.678261    0.098299
     23          1           0        2.370407    3.487302    0.195918
     24          1           0        1.067905    4.560231    0.439563
     25          7           0       -0.726125    3.077662   -0.577649
     26          6           0        0.558914    2.792065   -0.464813
     27          7           0        1.126360    1.616905   -0.894366
     28          1           0        2.117939    1.484408   -0.767151
     29          6           0        0.435161    0.573454   -1.502083
     30          8           0        1.042567   -0.445749   -1.852807
     31          6           0       -0.946540    0.865663   -1.630193
     32          7           0       -1.980022    0.112461   -2.170098
     33          6           0       -3.037429    0.864494   -2.026677
     34          1           0       -4.043635    0.588062   -2.343536
     35          1           0       -4.408925    2.827273   -0.479090
     36          1           0       -3.203485    3.910249   -0.666307
     37          1           0       -4.131926    3.495734   -1.941915
     38          1           0        6.966203    1.174926    0.733268
     39          1           0        7.295012    1.630882   -0.936661
     40          1           0        5.836788    2.215392   -0.134608
     41          1           0        6.264645   -3.036553   -1.484356
     42          6           0        5.746769   -2.090214   -1.327935
     43          8           0        3.625883   -2.932571   -1.975536
     44          6           0        4.340910   -2.010875   -1.583088
     45          1           0        2.792920   -0.673566   -1.522755
     46          7           0        3.784400   -0.768768   -1.353523
     47          8           0        3.851635    1.417630   -0.743311
     48          6           0        4.431578    0.360318   -0.917812
     49          1           0        7.474539   -1.013856   -0.693848
     50          6           0        6.405486   -1.006033   -0.902209
     51          6           0        6.519263    1.383669   -0.227320
     52          7           0        5.785338    0.204092   -0.693912
     53          1           0        3.787361    1.584578    4.178964
     54          1           0        2.653905    2.263612    3.221741
     55          1           0        4.215214    2.239262    2.746575
     56          1           0        0.618489   -3.606808   -0.072294
     57          1           0        2.259511   -3.666884    0.389805
     58          7           0        1.397981   -3.158555    0.365419
     59          6           0        1.294285   -1.937244    0.893452
     60          6           0        2.097762   -0.001109    2.019304
     61          7           0        0.928236    0.657973    1.972029
     62          1           0       -0.980520    0.384512    1.277400
     63          6           0        0.002506   -0.077245    1.359341
     64          7           0        0.104403   -1.300676    0.829800
     65          1           0        5.213772   -0.505207    2.718231
     66          6           0        4.181841   -0.583067    2.374731
     67          7           0        3.680571   -1.620614    1.750308
     68          6           0        2.359724   -1.264726    1.519127
     69          6           0        3.501703    1.734232    3.232393
     70          7           0        3.279517    0.433803    2.570928
 ---------------------------------------------------------------------

 SCF Done:  E(RwB97XD) =  -2048.75056180     A.U. after   15 cycles

 The electronic state is 1-A.
 Alpha  occ. eigenvalues --  -19.26087 -19.22110 -19.20714 -14.52576 -14.51021
 Alpha  occ. eigenvalues --  -14.49724 -14.48591 -14.47852 -14.46893 -14.46844
 Alpha  occ. eigenvalues --  -14.45747 -14.43967 -14.42718 -14.42472 -14.42414
 Alpha  occ. eigenvalues --  -14.42371 -14.42068 -14.41848 -14.40978 -14.40778
 Alpha  occ. eigenvalues --  -10.45630 -10.41265 -10.40179 -10.38323 -10.37922
 Alpha  occ. eigenvalues --  -10.37687 -10.36591 -10.36209 -10.35816 -10.35533
 Alpha  occ. eigenvalues --  -10.35043 -10.34346 -10.34337 -10.34081 -10.33942
 Alpha  occ. eigenvalues --  -10.33173 -10.33044 -10.31742 -10.31016 -10.30900
 Alpha  occ. eigenvalues --  -10.30445 -10.29515 -10.28131  -1.19610  -1.13683
 Alpha  occ. eigenvalues --   -1.13265  -1.13102  -1.12329  -1.10542  -1.09459
 Alpha  occ. eigenvalues --   -1.08645  -1.07263  -1.05842  -1.02809  -1.02539
 Alpha  occ. eigenvalues --   -1.01223  -0.99858  -0.99406  -0.98544  -0.97844
 Alpha  occ. eigenvalues --   -0.96455  -0.94914  -0.93443  -0.91029  -0.86120
 Alpha  occ. eigenvalues --   -0.84855  -0.84601  -0.84052  -0.83950  -0.83179
 Alpha  occ. eigenvalues --   -0.82279  -0.78913  -0.75339  -0.74578  -0.73747
 Alpha  occ. eigenvalues --   -0.73701  -0.73406  -0.73051  -0.71935  -0.68687
 Alpha  occ. eigenvalues --   -0.67419  -0.67119  -0.66609  -0.64991  -0.64495
 Alpha  occ. eigenvalues --   -0.63742  -0.63528  -0.62697  -0.62505  -0.61774
 Alpha  occ. eigenvalues --   -0.60919  -0.60104  -0.59562  -0.58894  -0.58513
 Alpha  occ. eigenvalues --   -0.58357  -0.58025  -0.57292  -0.57160  -0.56469
 Alpha  occ. eigenvalues --   -0.56106  -0.56026  -0.54463  -0.54418  -0.53969
 Alpha  occ. eigenvalues --   -0.53621  -0.53572  -0.52901  -0.52756  -0.52670
 Alpha  occ. eigenvalues --   -0.52270  -0.51991  -0.51646  -0.51302  -0.50968
 Alpha  occ. eigenvalues --   -0.50145  -0.49842  -0.49528  -0.48829  -0.48536
 Alpha  occ. eigenvalues --   -0.48417  -0.48245  -0.47794  -0.47791  -0.47652
 Alpha  occ. eigenvalues --   -0.47395  -0.45871  -0.45021  -0.44066  -0.43037
 Alpha  occ. eigenvalues --   -0.42046  -0.39631  -0.39173  -0.38063  -0.37309
 Alpha  occ. eigenvalues --   -0.37220  -0.36680  -0.35888  -0.35237  -0.34541
 Alpha  occ. eigenvalues --   -0.34443  -0.34361  -0.33315  -0.32883  -0.32850
 Alpha  occ. eigenvalues --   -0.32581  -0.32227  -0.31934  -0.31910  -0.31778
 Alpha  occ. eigenvalues --   -0.31145  -0.28043  -0.26567  -0.25484
 Alpha virt. eigenvalues --    0.03157   0.05444   0.07038   0.08259   0.08795
 Alpha virt. eigenvalues --    0.09143   0.09710   0.10133   0.10694   0.12252
 Alpha virt. eigenvalues --    0.12870   0.13228   0.14579   0.14708   0.15842

 Mulliken charges:
               1
     1  N   -0.310014
     2  C    0.180574
     3  C    0.031848
     4  N   -0.256089
     5  C    0.131275
     6  H    0.029315
     7  N   -0.278705
     8  C    0.128352
     9  H    0.017957
    10  N   -0.290470
    11  C    0.233159
    12  C    0.095734
    13  N   -0.036085
    14  H    0.107740
    15  H    0.090026
    16  H    0.028125
    17  H    0.035946
    18  H    0.025660
    19  N   -0.302527
    20  C    0.244460
    21  C    0.180872
    22  N   -0.119393
    23  H    0.111029
    24  H    0.117817
    25  N   -0.303251
    26  C    0.240713
    27  N   -0.125638
    28  H    0.119126
    29  C    0.153952
    30  O   -0.324145
    31  C   -0.001674
    32  N   -0.226386
    33  C    0.124473
    34  H    0.030305
    35  H    0.030407
    36  H    0.026987
    37  H    0.022171
    38  H    0.052530
    39  H    0.063980
    40  H    0.074652
    41  H    0.030362
    42  C   -0.091869
    43  O   -0.277486
    44  C    0.184379
    45  H    0.135090
    46  N   -0.128985
    47  O   -0.352049
    48  C    0.350053
    49  H    0.045831
    50  C    0.168532
    51  C    0.037827
    52  N   -0.290992
    53  H    0.031151
    54  H    0.037953
    55  H    0.017427
    56  H    0.117198
    57  H    0.120007
    58  N   -0.045537
    59  C    0.124621
    60  C    0.236759
    61  N   -0.268713
    62  H    0.041701
    63  C    0.151870
    64  N   -0.302913
    65  H    0.023723
    66  C    0.117661
    67  N   -0.252767
    68  C    0.009505
    69  C    0.179138
    70  N   -0.304287
 Sum of Mulliken charges =  -0.00000

 Dipole moment (field-independent basis, Debye):
    X=              5.5561    Y=              5.8680    Z=              3.5528  Tot=              8.8276
 Quadrupole moment (field-independent basis, Debye-Ang):
   XX=           -138.2287   YY=           -226.7265   ZZ=           -253.8155
   XY=             13.5241   XZ=             21.8042   YZ=             -1.6847

 Normal termination of Gaussian 16 at Fri Jan 19 17:32:48 2018.
