 Gaussian 16, Revision A.03,
 Gaussian 16:  EM64L-G16RevA.03 25-Dec-2016

 ---------------------------------------
 #p wb97xd/cc-pvdz sp scf=(maxcycles=20)
 ---------------------------------------

 ------------------
 Base pair stacking
 ------------------
 Symbolic Z-matrix:
 Charge =  0 Multiplicity = 1

                         Standard orientation:
 ---------------------------------------------------------------------
 Center     Atomic      Atomic             Coordinates (Angstroms)
 Number     Number       Type             X           Y           Z
 ---------------------------------------------------------------------
      1          7           0       -7.103375   -0.831442    0.197284
      2          6           0       -8.386249   -0.101973    0.185822
      3          6           0       -4.977695   -1.351556    0.416950
      4          7           0       -5.614315   -2.500687   -0.029083
      5          6           0       -6.869480   -2.141342   -0.143568
      6          1           0       -7.674499   -2.797679   -0.475415
      7          7           0       -3.334329    0.173948    1.148471
      8          6           0       -4.318960    1.073899    1.238767
      9          1           0       -4.015346    2.062681    1.579923
     10          7           0       -5.616240    0.936468    0.972168
     11          6           0       -5.882627   -0.314344    0.561153
     12          6           0       -3.634725   -1.075579    0.731906
     13          7           0       -2.653205   -1.975337    0.641124
     14          1           0       -2.829721   -2.912212    0.337285
     15          1           0       -1.708500   -1.743726    0.873593
     16          1           0       -9.031759   -0.550373    0.804224
     17          1           0       -8.237738    0.839755    0.486179
     18          1           0       -8.762195   -0.099147   -0.740822
     19          7           0       -2.857568    1.689246   -1.505975
     20          6           0       -1.512271    1.743539   -1.231578
     21          6           0       -3.834625    2.753766   -1.201231
     22          7           0        1.229010    3.444975    0.053817
     23          1           0        2.209945    3.287132    0.163748
     24          1           0        0.869894    4.317702    0.385637
     25          7           0       -0.862171    2.770228   -0.642221
     26          6           0        0.430227    2.528136   -0.512977
     27          7           0        1.041205    1.369851   -0.928438
     28          1           0        2.035086    1.271116   -0.789122
     29          6           0        0.391997    0.300354   -1.537177
     30          8           0        1.036841   -0.700258   -1.874369
     31          6           0       -0.997043    0.545753   -1.682845
     32          7           0       -1.998712   -0.244610   -2.229537
     33          6           0       -3.082031    0.472772   -2.103009
     34          1           0       -4.074803    0.161166   -2.429461
     35          1           0       -4.535558    2.398361   -0.583830
     36          1           0       -3.364564    3.519579   -0.764388
     37          1           0       -4.263961    3.066709   -2.047728
     38          1           0        6.873287    1.131872    0.768164
     39          1           0        7.206084    1.588294   -0.900835
     40          1           0        5.720133    2.128971   -0.119199
     41          1           0        6.337250   -3.114027   -1.429921
     42          6           0        5.786543   -2.184454   -1.285520
     43          8           0        3.702331   -3.100675   -1.951670
     44          6           0        4.381870   -2.153384   -1.557122
     45          1           0        2.789849   -0.867840   -1.523018
     46          7           0        3.781912   -0.929052   -1.341936
     47          8           0        3.769657    1.262055   -0.745190
     48          6           0        4.386272    0.223535   -0.906239
     49          1           0        7.470284   -1.047505   -0.638869
     50          6           0        6.404039   -1.076433   -0.859392
     51          6           0        6.430803    1.319801   -0.198772
     52          7           0        5.741784    0.113691   -0.665991
     53          1           0        3.904034    2.554125    3.298642
     54          1           0        2.793641    2.901956    2.154897
     55          1           0        4.354323    2.674547    1.734612
     56          1           0        0.585109   -3.675789    1.009884
     57          1           0        2.222691   -3.622711    1.484881
     58          7           0        1.377198   -3.128312    1.280091
     59          6           0        1.310043   -1.798047    1.363913
     60          6           0        2.170482    0.380954    1.780264
     61          7           0        1.021797    1.018171    1.499370
     62          1           0       -0.893188    0.580348    0.914786
     63          6           0        0.075056    0.145766    1.159498
     64          7           0        0.140350   -1.186965    1.074956
     65          1           0        5.268320    0.054522    2.645722
     66          6           0        4.235101   -0.105527    2.336219
     67          7           0        3.703371   -1.278345    2.092393
     68          6           0        2.394485   -0.984192    1.738836
     69          6           0        3.624796    2.383508    2.353694
     70          7           0        3.364033    0.942959    2.167036
 ---------------------------------------------------------------------

 SCF Done:  E(RwB97XD) =  -2048.72076493     A.U. after   15 cycles

 The electronic state is 1-A.
 Alpha  occ. eigenvalues --  -19.26143 -19.21930 -19.20477 -14.52664 -14.51290
 Alpha  occ. eigenvalues --  -14.50056 -14.48244 -14.47868 -14.46588 -14.46340
 Alpha  occ. eigenvalues --  -14.46234 -14.44274 -14.43282 -14.42979 -14.42723
 Alpha  occ. eigenvalues --  -14.42428 -14.42356 -14.41926 -14.41423 -14.40590
 Alpha  occ. eigenvalues --  -10.45686 -10.40894 -10.40037 -10.38466 -10.38022
 Alpha  occ. eigenvalues --  -10.37735 -10.36932 -10.36704 -10.36075 -10.35855
 Alpha  occ. eigenvalues --  -10.35353 -10.34776 -10.34427 -10.34394 -10.34072
 Alpha  occ. eigenvalues --  -10.33562 -10.32976 -10.32004 -10.31301 -10.31065
 Alpha  occ. eigenvalues --  -10.29908 -10.29667 -10.27925  -1.19715  -1.14062
 Alpha  occ. eigenvalues --   -1.13082  -1.12971  -1.12683  -1.10298  -1.09527
 Alpha  occ. eigenvalues --   -1.08428  -1.07808  -1.06342  -1.03428  -1.02542
 Alpha  occ. eigenvalues --   -1.01751  -0.99895  -0.99503  -0.98339  -0.98206
 Alpha  occ. eigenvalues --   -0.96218  -0.95437  -0.93958  -0.91108  -0.86601
 Alpha  occ. eigenvalues --   -0.85285  -0.85110  -0.84153  -0.83782  -0.83532
 Alpha  occ. eigenvalues --   -0.81897  -0.78960  -0.75858  -0.74497  -0.74150
 Alpha  occ. eigenvalues --   -0.73632  -0.73471  -0.73304  -0.72442  -0.69281
 Alpha  occ. eigenvalues --   -0.67572  -0.67227  -0.66626  -0.65621  -0.64510
 Alpha  occ. eigenvalues --   -0.64031  -0.63489  -0.63127  -0.62605  -0.61523
 Alpha  occ. eigenvalues --   -0.61377  -0.60627  -0.59586  -0.59501  -0.58823
 Alpha  occ. eigenvalues --   -0.58491  -0.58166  -0.57743  -0.57597  -0.56841
 Alpha  occ. eigenvalues --   -0.56381  -0.55990  -0.55129  -0.54488  -0.54424
 Alpha  occ. eigenvalues --   -0.53940  -0.53382  -0.53118  -0.52943  -0.52668
 Alpha  occ. eigenvalues --   -0.52459  -0.52061  -0.51740  -0.51648  -0.51244
 Alpha  occ. eigenvalues --   -0.50236  -0.49910  -0.49482  -0.48938  -0.48547
 Alpha  occ. eigenvalues --   -0.48515  -0.48279  -0.48059  -0.47743  -0.47535
 Alpha  occ. eigenvalues --   -0.47259  -0.46076  -0.45387  -0.44125  -0.42918
 Alpha  occ. eigenvalues --   -0.42146  -0.39840  -0.39655  -0.38560  -0.37199
 Alpha  occ. eigenvalues --   -0.37124  -0.36945  -0.35938  -0.35349  -0.34811
 Alpha  occ. eigenvalues --   -0.34791  -0.34547  -0.33154  -0.33083  -0.32909
 Alpha  occ. eigenvalues --   -0.32594  -0.32425  -0.31933  -0.31779  -0.31695
 Alpha  occ. eigenvalues --   -0.31337  -0.27976  -0.26977  -0.25292
 Alpha virt. eigenvalues --    0.03158   0.04836   0.06530   0.08122   0.08486
 Alpha virt. eigenvalues --    0.09110   0.09613   0.09873   0.11091   0.12207
 Alpha virt. eigenvalues --    0.12796   0.13014   0.14485   0.14790   0.14902

 Mulliken charges:
               1
     1  N   -0.311526
     2  C    0.180369
     3  C    0.042359
     4  N   -0.256649
     5  C    0.133451
     6  H    0.030814
     7  N   -0.265267
     8  C    0.119867
     9  H    0.024806
    10  N   -0.291484
    11  C    0.234232
    12  C    0.093404
    13  N   -0.040533
    14  H    0.107729
    15  H    0.088857
    16  H    0.028812
    17  H    0.035469
    18  H    0.027286
    19  N   -0.289714
    20  C    0.228666
    21  C    0.180392
    22  N   -0.087008
    23  H    0.102751
    24  H    0.114338
    25  N   -0.286050
    26  C    0.207209
    27  N   -0.107672
    28  H    0.121525
    29  C    0.128189
    30  O   -0.322045
    31  C    0.013810
    32  N   -0.223349
    33  C    0.116149
    34  H    0.027431
    35  H    0.019362
    36  H    0.024666
    37  H    0.018783
    38  H    0.051355
    39  H    0.066568
    40  H    0.080418
    41  H    0.031756
    42  C   -0.100963
    43  O   -0.267564
    44  C    0.185834
    45  H    0.134116
    46  N   -0.129869
    47  O   -0.349168
    48  C    0.348396
    49  H    0.046107
    50  C    0.170723
    51  C    0.029538
    52  N   -0.287937
    53  H    0.033112
    54  H    0.023148
    55  H    0.009667
    56  H    0.117569
    57  H    0.120456
    58  N   -0.064761
    59  C    0.135180
    60  C    0.220857
    61  N   -0.270532
    62  H    0.059300
    63  C    0.147074
    64  N   -0.301853
    65  H    0.024135
    66  C    0.110851
    67  N   -0.250822
    68  C    0.016485
    69  C    0.179969
    70  N   -0.288573
 Sum of Mulliken charges =  -0.00000

 Dipole moment (field-independent basis, Debye):
    X=              4.8983    Y=              5.6955    Z=              4.2796  Tot=              8.6457
 Quadrupole moment (field-independent basis, Debye-Ang):
   XX=           -137.5977   YY=           -228.5116   ZZ=           -257.2798
   XY=             17.7350   XZ=             18.5883   YZ=             -7.2078

 Normal termination of Gaussian 16 at Fri Jan 19 17:08:50 2018.
