 Gaussian 16, Revision A.03,
 Gaussian 16:  EM64L-G16RevA.03 25-Dec-2016

 ---------------------------------------
 #p wb97xd/cc-pvdz sp scf=(maxcycles=20)
 ---------------------------------------

 ------------------
 Base pair stacking
 ------------------
 Symbolic Z-matrix:
 Charge =  0 Multiplicity = 1

                         Standard orientation:
 ---------------------------------------------------------------------
 Center     Atomic      Atomic             Coordinates (Angstroms)
 Number     Number       Type             X           Y           Z
 ---------------------------------------------------------------------
      1          7           0       -7.169179   -0.928314    0.050360
      2          6           0       -8.481544   -0.367979    0.426835
      3          6           0       -5.019624   -1.386393   -0.032577
      4          7           0       -5.616014   -2.140574   -1.032716
      5          6           0       -6.887170   -1.834408   -0.942719
      6          1           0       -7.670239   -2.243820   -1.581565
      7          7           0       -3.427793   -0.423801    1.417397
      8          6           0       -4.447410    0.238566    1.973468
      9          1           0       -4.178985    0.899321    2.796652
     10          7           0       -5.742741    0.207418    1.666809
     11          6           0       -5.964347   -0.634124    0.643507
     12          6           0       -3.683522   -1.262823    0.389911
     13          7           0       -2.667032   -1.924901   -0.166485
     14          1           0       -2.809942   -2.556340   -0.929424
     15          1           0       -1.728527   -1.812379    0.160133
     16          1           0       -9.095412   -1.108400    0.700927
     17          1           0       -8.366877    0.268130    1.189290
     18          1           0       -8.875356    0.117464   -0.353709
     19          7           0       -2.731322    2.335122   -1.227512
     20          6           0       -1.379631    2.304883   -0.982408
     21          6           0       -3.646473    3.424545   -0.832067
     22          7           0        1.470580    3.781443    0.343418
     23          1           0        2.444273    3.568476    0.419585
     24          1           0        1.163244    4.647400    0.738871
     25          7           0       -0.666134    3.257628   -0.344255
     26          6           0        0.614669    2.944046   -0.261641
     27          7           0        1.157234    1.786487   -0.764821
     28          1           0        2.147473    1.629886   -0.655870
     29          6           0        0.442051    0.792283   -1.425070
     30          8           0        1.028067   -0.214906   -1.840879
     31          6           0       -0.935420    1.115009   -1.521545
     32          7           0       -1.987062    0.412382   -2.093620
     33          6           0       -3.029645    1.172678   -1.895629
     34          1           0       -4.043504    0.932441   -2.217565
     35          1           0       -4.351694    3.064784   -0.222112
     36          1           0       -3.129154    4.136124   -0.358462
     37          1           0       -4.076696    3.812764   -1.646314
     38          1           0        7.003406    1.150577    0.773400
     39          1           0        7.324508    1.697655   -0.870456
     40          1           0        5.884419    2.259100   -0.020571
     41          1           0        6.206859   -2.911531   -1.678404
     42          6           0        5.707246   -1.967245   -1.461728
     43          8           0        3.565839   -2.734016   -2.135196
     44          6           0        4.300676   -1.849169   -1.697174
     45          1           0        2.777150   -0.491451   -1.542910
     46          7           0        3.768335   -0.613284   -1.389851
     47          8           0        3.879868    1.532249   -0.654016
     48          6           0        4.439400    0.477212   -0.895843
     49          1           0        7.459620   -0.959428   -0.784025
     50          6           0        6.388966   -0.921198   -0.980434
     51          6           0        6.551208    1.422688   -0.168692
     52          7           0        5.792239    0.285082   -0.695536
     53          1           0        3.744894    0.748119    4.557694
     54          1           0        2.598679    1.607001    3.776284
     55          1           0        4.159005    1.714517    3.309491
     56          1           0        0.646472   -3.404388   -0.754752
     57          1           0        2.289364   -3.541017   -0.316183
     58          7           0        1.419994   -3.053774   -0.226664
     59          6           0        1.298663   -1.984106    0.562176
     60          6           0        2.074777   -0.338081    2.095136
     61          7           0        0.895051    0.296361    2.195887
     62          1           0       -1.010934    0.156079    1.455513
     63          6           0       -0.020668   -0.296814    1.432670
     64          7           0        0.098894   -1.368239    0.641888
     65          1           0        5.199948   -0.937429    2.666303
     66          6           0        4.168508   -0.952283    2.312961
     67          7           0        3.681853   -1.830741    1.470843
     68          6           0        2.355087   -1.452744    1.324104
     69          6           0        3.454616    1.102115    3.668644
     70          7           0        3.251002   -0.019756    2.731657
 ---------------------------------------------------------------------

 SCF Done:  E(RwB97XD) =  -2048.74979662     A.U. after   15 cycles

 The electronic state is 1-A.
 Alpha  occ. eigenvalues --  -19.26121 -19.22349 -19.20874 -14.52623 -14.50794
 Alpha  occ. eigenvalues --  -14.49553 -14.48749 -14.47956 -14.47154 -14.46986
 Alpha  occ. eigenvalues --  -14.45047 -14.43762 -14.42417 -14.42255 -14.42213
 Alpha  occ. eigenvalues --  -14.42202 -14.41980 -14.41569 -14.40908 -14.40730
 Alpha  occ. eigenvalues --  -10.45680 -10.41445 -10.40405 -10.38490 -10.37731
 Alpha  occ. eigenvalues --  -10.37494 -10.36366 -10.35948 -10.35778 -10.35266
 Alpha  occ. eigenvalues --  -10.34880 -10.34480 -10.34138 -10.33810 -10.33698
 Alpha  occ. eigenvalues --  -10.33285 -10.32798 -10.31609 -10.31062 -10.30668
 Alpha  occ. eigenvalues --  -10.30595 -10.29305 -10.28270  -1.19655  -1.13506
 Alpha  occ. eigenvalues --   -1.13405  -1.13314  -1.12149  -1.10697  -1.09521
 Alpha  occ. eigenvalues --   -1.08823  -1.06868  -1.05596  -1.02685  -1.02373
 Alpha  occ. eigenvalues --   -1.00970  -1.00019  -0.99123  -0.98708  -0.97658
 Alpha  occ. eigenvalues --   -0.96614  -0.94524  -0.93184  -0.91070  -0.85847
 Alpha  occ. eigenvalues --   -0.84666  -0.84340  -0.84170  -0.83977  -0.83003
 Alpha  occ. eigenvalues --   -0.82457  -0.78980  -0.75016  -0.74712  -0.73866
 Alpha  occ. eigenvalues --   -0.73522  -0.73503  -0.72733  -0.71706  -0.68329
 Alpha  occ. eigenvalues --   -0.67569  -0.66903  -0.66692  -0.64687  -0.64535
 Alpha  occ. eigenvalues --   -0.63875  -0.63299  -0.62826  -0.62141  -0.61919
 Alpha  occ. eigenvalues --   -0.60700  -0.60011  -0.59643  -0.58629  -0.58563
 Alpha  occ. eigenvalues --   -0.58229  -0.57690  -0.57137  -0.56905  -0.56557
 Alpha  occ. eigenvalues --   -0.56188  -0.55773  -0.54556  -0.54326  -0.53784
 Alpha  occ. eigenvalues --   -0.53691  -0.53593  -0.53034  -0.52775  -0.52480
 Alpha  occ. eigenvalues --   -0.52134  -0.51853  -0.51487  -0.50997  -0.50763
 Alpha  occ. eigenvalues --   -0.50333  -0.49645  -0.49625  -0.49051  -0.48573
 Alpha  occ. eigenvalues --   -0.48416  -0.48161  -0.47909  -0.47735  -0.47557
 Alpha  occ. eigenvalues --   -0.47403  -0.45712  -0.44897  -0.44118  -0.42778
 Alpha  occ. eigenvalues --   -0.41845  -0.39695  -0.38887  -0.37845  -0.37458
 Alpha  occ. eigenvalues --   -0.37347  -0.36701  -0.35653  -0.35143  -0.34614
 Alpha  occ. eigenvalues --   -0.34299  -0.34150  -0.33503  -0.32991  -0.32637
 Alpha  occ. eigenvalues --   -0.32491  -0.32241  -0.32037  -0.31870  -0.31657
 Alpha  occ. eigenvalues --   -0.30901  -0.27662  -0.26294  -0.25623
 Alpha virt. eigenvalues --    0.03050   0.05786   0.07262   0.08148   0.08954
 Alpha virt. eigenvalues --    0.09275   0.09611   0.10356   0.10816   0.12585
 Alpha virt. eigenvalues --    0.12974   0.13414   0.14436   0.14776   0.15962

 Mulliken charges:
               1
     1  N   -0.309869
     2  C    0.180708
     3  C    0.027966
     4  N   -0.256009
     5  C    0.129930
     6  H    0.028468
     7  N   -0.283244
     8  C    0.130244
     9  H    0.016764
    10  N   -0.290021
    11  C    0.233974
    12  C    0.096122
    13  N   -0.033412
    14  H    0.107667
    15  H    0.090810
    16  H    0.027783
    17  H    0.036123
    18  H    0.024894
    19  N   -0.306593
    20  C    0.250992
    21  C    0.180002
    22  N   -0.124032
    23  H    0.112199
    24  H    0.118835
    25  N   -0.307458
    26  C    0.248210
    27  N   -0.133983
    28  H    0.118083
    29  C    0.170262
    30  O   -0.326073
    31  C   -0.008416
    32  N   -0.228100
    33  C    0.127441
    34  H    0.031659
    35  H    0.033985
    36  H    0.027804
    37  H    0.022920
    38  H    0.053463
    39  H    0.063205
    40  H    0.073937
    41  H    0.029969
    42  C   -0.084278
    43  O   -0.287128
    44  C    0.188290
    45  H    0.135675
    46  N   -0.128219
    47  O   -0.352912
    48  C    0.352812
    49  H    0.046011
    50  C    0.167415
    51  C    0.040093
    52  N   -0.292126
    53  H    0.030255
    54  H    0.040128
    55  H    0.017959
    56  H    0.115062
    57  H    0.118197
    58  N   -0.029985
    59  C    0.112023
    60  C    0.243554
    61  N   -0.274093
    62  H    0.034591
    63  C    0.155326
    64  N   -0.303860
    65  H    0.022847
    66  C    0.120092
    67  N   -0.255057
    68  C    0.007614
    69  C    0.180955
    70  N   -0.308452
 Sum of Mulliken charges =  -0.00000

 Dipole moment (field-independent basis, Debye):
    X=              5.9571    Y=              5.8704    Z=              3.4704  Tot=              9.0550
 Quadrupole moment (field-independent basis, Debye-Ang):
   XX=           -138.2453   YY=           -227.2831   ZZ=           -251.2899
   XY=              9.4905   XZ=             23.0120   YZ=              1.8023

 Normal termination of Gaussian 16 at Sat Jan 20 02:28:30 2018.
