 Gaussian 16, Revision A.03,
 Gaussian 16:  EM64L-G16RevA.03 25-Dec-2016

 ---------------------------------------
 #p wb97xd/cc-pvdz sp scf=(maxcycles=20)
 ---------------------------------------

 ------------------
 Base pair stacking
 ------------------
 Symbolic Z-matrix:
 Charge =  0 Multiplicity = 1

                         Standard orientation:
 ---------------------------------------------------------------------
 Center     Atomic      Atomic             Coordinates (Angstroms)
 Number     Number       Type             X           Y           Z
 ---------------------------------------------------------------------
      1          7           0        5.166199   -1.201139   -1.427792
      2          6           0        6.487278   -0.570865   -1.616275
      3          6           0        2.998927   -1.551721   -1.296211
      4          7           0        3.606845   -2.761393   -0.993122
      5          6           0        4.888215   -2.501758   -1.084524
      6          1           0        5.682071   -3.228685   -0.910382
      7          7           0        1.384207    0.119270   -1.700432
      8          6           0        2.408888    0.945633   -1.934349
      9          1           0        2.132864    1.966588   -2.194582
     10          7           0        3.717208    0.701329   -1.895262
     11          6           0        3.947301   -0.580584   -1.566345
     12          6           0        1.648749   -1.164114   -1.371770
     13          7           0        0.627221   -1.990531   -1.137888
     14          1           0        0.776280   -2.948826   -0.891578
     15          1           0       -0.321372   -1.680114   -1.200870
     16          1           0        6.982131   -1.042698   -2.346112
     17          1           0        6.366711    0.390030   -1.863798
     18          1           0        7.011934   -0.631280   -0.767108
     19          7           0        4.954664    1.255537    1.047745
     20          6           0        3.591194    1.420893    1.007091
     21          6           0        5.949242    2.254564    0.607893
     22          7           0        0.819087    3.370460    0.247888
     23          1           0       -0.175876    3.290882    0.302193
     24          1           0        1.186528    4.225725   -0.118486
     25          7           0        2.936228    2.514977    0.562079
     26          6           0        1.625203    2.375531    0.648135
     27          7           0        1.001348    1.251447    1.132639
     28          1           0       -0.006516    1.232846    1.161646
     29          6           0        1.655238    0.114024    1.595840
     30          8           0        0.997662   -0.847449    2.012864
     31          6           0        3.064226    0.248902    1.509640
     32          7           0        4.076497   -0.634446    1.858769
     33          6           0        5.177435    0.003954    1.567894
     34          1           0        6.182559   -0.393333    1.713340
     35          1           0        6.506193    1.871196   -0.128072
     36          1           0        5.475752    3.069431    0.276144
     37          1           0        6.537852    2.502198    1.376671
     38          1           0       -5.032384    1.515747    0.445180
     39          1           0       -5.043564    1.932401    2.157170
     40          1           0       -3.670761    2.389303    1.148207
     41          1           0       -4.478837   -2.838458    2.415213
     42          6           0       -3.887225   -1.948003    2.202363
     43          8           0       -1.801332   -3.042451    2.482345
     44          6           0       -2.459015   -2.032640    2.232286
     45          1           0       -0.797125   -0.869709    1.960125
     46          7           0       -1.807167   -0.849473    1.948600
     47          8           0       -1.719041    1.355536    1.412547
     48          6           0       -2.381377    0.360828    1.650295
     49          1           0       -5.558609   -0.664368    1.879051
     50          6           0       -4.476312   -0.781484    1.914615
     51          6           0       -4.420735    1.633272    1.327303
     52          7           0       -3.762368    0.362089    1.640971
     53          1           0       -5.897048    3.115081   -2.531607
     54          1           0       -4.586682    3.335174   -1.584719
     55          1           0       -6.068214    3.209697   -0.911369
     56          1           0       -2.753069   -3.428229   -0.993416
     57          1           0       -4.437407   -3.234595   -1.182113
     58          7           0       -3.532645   -2.813086   -1.111701
     59          6           0       -3.373879   -1.489372   -1.172934
     60          6           0       -4.114079    0.762190   -1.383444
     61          7           0       -2.887189    1.300399   -1.285987
     62          1           0       -0.942819    0.698433   -1.045866
     63          6           0       -1.970080    0.347241   -1.133323
     64          7           0       -2.127099   -0.979079   -1.071746
     65          1           0       -7.329101    0.701905   -1.718323
     66          6           0       -6.274905    0.453255   -1.592714
     67          7           0       -5.805791   -0.764513   -1.471614
     68          6           0       -4.436861   -0.582917   -1.338216
     69          6           0       -5.478283    2.888394   -1.652263
     70          7           0       -5.306482    1.426328   -1.548076
 ---------------------------------------------------------------------

 SCF Done:  E(RwB97XD) =  -2048.73777244     A.U. after   15 cycles

 The electronic state is 1-A.
 Alpha  occ. eigenvalues --  -19.25124 -19.21487 -19.20553 -14.52727 -14.51780
 Alpha  occ. eigenvalues --  -14.48998 -14.48931 -14.48266 -14.47220 -14.46584
 Alpha  occ. eigenvalues --  -14.46578 -14.45729 -14.44649 -14.44517 -14.42893
 Alpha  occ. eigenvalues --  -14.41790 -14.41452 -14.41276 -14.41114 -14.40852
 Alpha  occ. eigenvalues --  -10.44774 -10.41016 -10.40184 -10.39577 -10.38244
 Alpha  occ. eigenvalues --  -10.38161 -10.37421 -10.37112 -10.36174 -10.35945
 Alpha  occ. eigenvalues --  -10.34386 -10.34342 -10.34188 -10.34027 -10.33650
 Alpha  occ. eigenvalues --  -10.33638 -10.33490 -10.32890 -10.31657 -10.31059
 Alpha  occ. eigenvalues --  -10.30532 -10.28784 -10.28171  -1.18873  -1.15686
 Alpha  occ. eigenvalues --   -1.13134  -1.12492  -1.11561  -1.10650  -1.09579
 Alpha  occ. eigenvalues --   -1.08703  -1.08458  -1.05554  -1.05049  -1.01897
 Alpha  occ. eigenvalues --   -1.01345  -1.00925  -0.99616  -0.98450  -0.97335
 Alpha  occ. eigenvalues --   -0.97085  -0.96653  -0.93241  -0.90418  -0.87992
 Alpha  occ. eigenvalues --   -0.86304  -0.84434  -0.84087  -0.83057  -0.82866
 Alpha  occ. eigenvalues --   -0.82512  -0.78265  -0.77336  -0.75158  -0.74646
 Alpha  occ. eigenvalues --   -0.73547  -0.73289  -0.72782  -0.71461  -0.70683
 Alpha  occ. eigenvalues --   -0.67351  -0.67054  -0.66722  -0.66030  -0.64527
 Alpha  occ. eigenvalues --   -0.64289  -0.63634  -0.63168  -0.62539  -0.62015
 Alpha  occ. eigenvalues --   -0.61732  -0.60918  -0.60708  -0.59818  -0.59007
 Alpha  occ. eigenvalues --   -0.58532  -0.58332  -0.57993  -0.57015  -0.56100
 Alpha  occ. eigenvalues --   -0.55811  -0.55640  -0.55524  -0.54200  -0.54060
 Alpha  occ. eigenvalues --   -0.54001  -0.53817  -0.53374  -0.53147  -0.53117
 Alpha  occ. eigenvalues --   -0.52907  -0.52175  -0.51790  -0.50925  -0.50478
 Alpha  occ. eigenvalues --   -0.50334  -0.50043  -0.49335  -0.49144  -0.48835
 Alpha  occ. eigenvalues --   -0.48525  -0.48269  -0.48154  -0.47908  -0.47295
 Alpha  occ. eigenvalues --   -0.47078  -0.45987  -0.45195  -0.45035  -0.42760
 Alpha  occ. eigenvalues --   -0.41342  -0.41020  -0.38879  -0.37925  -0.37760
 Alpha  occ. eigenvalues --   -0.37543  -0.37138  -0.36919  -0.36001  -0.34920
 Alpha  occ. eigenvalues --   -0.34581  -0.34265  -0.33952  -0.33501  -0.32888
 Alpha  occ. eigenvalues --   -0.32531  -0.32397  -0.31822  -0.31353  -0.31157
 Alpha  occ. eigenvalues --   -0.30774  -0.30034  -0.26516  -0.25056
 Alpha virt. eigenvalues --    0.03369   0.03906   0.06936   0.07389   0.08542
 Alpha virt. eigenvalues --    0.09025   0.09821   0.10093   0.10926   0.12740
 Alpha virt. eigenvalues --    0.13093   0.13415   0.14171   0.14369   0.14500

 Mulliken charges:
               1
     1  N   -0.298828
     2  C    0.174806
     3  C    0.076550
     4  N   -0.252602
     5  C    0.139096
     6  H    0.025759
     7  N   -0.283361
     8  C    0.131909
     9  H    0.008849
    10  N   -0.273897
    11  C    0.219702
    12  C    0.070789
    13  N   -0.046648
    14  H    0.112068
    15  H    0.084200
    16  H    0.028370
    17  H    0.040315
    18  H    0.013009
    19  N   -0.293094
    20  C    0.244374
    21  C    0.192241
    22  N   -0.114567
    23  H    0.120156
    24  H    0.117639
    25  N   -0.286178
    26  C    0.208266
    27  N   -0.118964
    28  H    0.115390
    29  C    0.170639
    30  O   -0.321227
    31  C   -0.003421
    32  N   -0.213630
    33  C    0.103279
    34  H    0.021682
    35  H    0.002085
    36  H    0.033475
    37  H    0.023653
    38  H    0.047463
    39  H    0.051344
    40  H    0.076826
    41  H    0.023268
    42  C   -0.100365
    43  O   -0.269798
    44  C    0.168666
    45  H    0.128629
    46  N   -0.109946
    47  O   -0.342777
    48  C    0.327664
    49  H    0.045004
    50  C    0.164628
    51  C    0.051398
    52  N   -0.274907
    53  H    0.037281
    54  H    0.042575
    55  H    0.027262
    56  H    0.124678
    57  H    0.118901
    58  N   -0.057800
    59  C    0.097242
    60  C    0.176326
    61  N   -0.254755
    62  H    0.013636
    63  C    0.172012
    64  N   -0.301317
    65  H    0.035644
    66  C    0.122170
    67  N   -0.249940
    68  C    0.057260
    69  C    0.177943
    70  N   -0.298105
 Sum of Mulliken charges =  -0.00000

 Dipole moment (field-independent basis, Debye):
    X=             -5.7675    Y=              6.9234    Z=             -3.5818  Tot=              9.6967
 Quadrupole moment (field-independent basis, Debye-Ang):
   XX=           -148.8629   YY=           -227.3860   ZZ=           -259.9049
   XY=             -7.4091   XZ=             -4.3446   YZ=             11.7721

 Normal termination of Gaussian 16 at Fri Jan 19 14:56:04 2018.
