 Gaussian 16, Revision A.03,
 Gaussian 16:  EM64L-G16RevA.03 25-Dec-2016

 ---------------------------------------
 #p wb97xd/cc-pvdz sp scf=(maxcycles=20)
 ---------------------------------------

 ------------------
 Base pair stacking
 ------------------
 Symbolic Z-matrix:
 Charge =  0 Multiplicity = 1

                         Standard orientation:
 ---------------------------------------------------------------------
 Center     Atomic      Atomic             Coordinates (Angstroms)
 Number     Number       Type             X           Y           Z
 ---------------------------------------------------------------------
      1          7           0        5.460115   -1.052586   -1.231463
      2          6           0        6.778162   -0.389146   -1.256021
      3          6           0        3.295087   -1.438550   -1.262946
      4          7           0        3.907583   -2.674748   -1.116712
      5          6           0        5.187418   -2.392746   -1.103594
      6          1           0        5.983854   -3.130550   -1.002209
      7          7           0        1.674343    0.259940   -1.489383
      8          6           0        2.695334    1.121441   -1.543891
      9          1           0        2.415357    2.167590   -1.659838
     10          7           0        4.004118    0.885780   -1.476988
     11          6           0        4.239225   -0.429133   -1.335074
     12          6           0        1.943895   -1.056086   -1.346227
     13          7           0        0.926056   -1.917600   -1.291621
     14          1           0        1.078868   -2.900840   -1.186253
     15          1           0       -0.023392   -1.609744   -1.354129
     16          1           0        7.315183   -0.739956   -2.023311
     17          1           0        6.653822    0.597105   -1.360770
     18          1           0        7.262370   -0.573372   -0.400694
     19          7           0        4.662241    1.209165    1.156501
     20          6           0        3.299401    1.359073    1.065746
     21          6           0        5.661339    2.210571    0.732587
     22          7           0        0.535746    3.264455    0.174978
     23          1           0       -0.459655    3.175199    0.196403
     24          1           0        0.907012    4.116751   -0.194464
     25          7           0        2.649240    2.437699    0.577983
     26          6           0        1.337503    2.285773    0.621361
     27          7           0        0.708607    1.164140    1.105020
     28          1           0       -0.299417    1.135238    1.099572
     29          6           0        1.357494    0.042506    1.611725
     30          8           0        0.695603   -0.918152    2.023743
     31          6           0        2.767198    0.190920    1.571669
     32          7           0        3.775621   -0.674938    1.971999
     33          6           0        4.879469   -0.030191    1.707378
     34          1           0        5.882914   -0.413911    1.894831
     35          1           0        6.247330    1.819766    0.023587
     36          1           0        5.191434    3.014077    0.369500
     37          1           0        6.220392    2.478601    1.516444
     38          1           0       -5.300001    1.350894    0.204978
     39          1           0       -5.374788    1.798774    1.907460
     40          1           0       -3.972487    2.251806    0.938074
     41          1           0       -4.771159   -2.960189    2.274130
     42          6           0       -4.181540   -2.067492    2.065181
     43          8           0       -2.095674   -3.134127    2.437404
     44          6           0       -2.754455   -2.136197    2.145943
     45          1           0       -1.095968   -0.960674    1.909545
     46          7           0       -2.105150   -0.951511    1.862800
     47          8           0       -2.020757    1.244101    1.288908
     48          6           0       -2.680874    0.246869    1.522250
     49          1           0       -5.853603   -0.808056    1.660412
     50          6           0       -4.772060   -0.912851    1.735487
     51          6           0       -4.720551    1.491173    1.105318
     52          7           0       -4.060645    0.233109    1.465266
     53          1           0       -5.606935    3.281890   -2.219544
     54          1           0       -4.347335    3.367078   -1.185982
     55          1           0       -5.857208    3.127300   -0.614276
     56          1           0       -2.433153   -3.390810   -1.535720
     57          1           0       -4.109443   -3.185830   -1.776782
     58          7           0       -3.216174   -2.771846   -1.598191
     59          6           0       -3.076447   -1.452858   -1.450098
     60          6           0       -3.842649    0.797775   -1.353641
     61          7           0       -2.630880    1.325869   -1.114587
     62          1           0       -0.690632    0.711847   -0.871663
     63          6           0       -1.706596    0.368857   -1.062527
     64          7           0       -1.844544   -0.952748   -1.210598
     65          1           0       -7.036463    0.760310   -1.853951
     66          6           0       -5.985564    0.504910   -1.714979
     67          7           0       -5.502820   -0.712836   -1.756563
     68          6           0       -4.145049   -0.541381   -1.528973
     69          6           0       -5.227188    2.927796   -1.364912
     70          7           0       -5.036540    1.468504   -1.475060
 ---------------------------------------------------------------------

 SCF Done:  E(RwB97XD) =  -2048.68172856     A.U. after   15 cycles

 The electronic state is 1-A.
 Alpha  occ. eigenvalues --  -19.24953 -19.21355 -19.20593 -14.52684 -14.51753
 Alpha  occ. eigenvalues --  -14.49166 -14.48558 -14.48255 -14.47220 -14.46838
 Alpha  occ. eigenvalues --  -14.46657 -14.45999 -14.44744 -14.44492 -14.43028
 Alpha  occ. eigenvalues --  -14.41878 -14.41652 -14.40993 -14.40877 -14.40597
 Alpha  occ. eigenvalues --  -10.44589 -10.41134 -10.40177 -10.39480 -10.38393
 Alpha  occ. eigenvalues --  -10.38190 -10.37462 -10.37087 -10.36222 -10.35994
 Alpha  occ. eigenvalues --  -10.34677 -10.34316 -10.34209 -10.33705 -10.33431
 Alpha  occ. eigenvalues --  -10.33351 -10.33266 -10.32983 -10.31907 -10.30564
 Alpha  occ. eigenvalues --  -10.30518 -10.28775 -10.28116  -1.18994  -1.16090
 Alpha  occ. eigenvalues --   -1.13250  -1.12413  -1.11729  -1.10499  -1.09676
 Alpha  occ. eigenvalues --   -1.08720  -1.08586  -1.05583  -1.05126  -1.01936
 Alpha  occ. eigenvalues --   -1.01663  -1.01076  -0.99786  -0.98547  -0.97507
 Alpha  occ. eigenvalues --   -0.97197  -0.96513  -0.93267  -0.90407  -0.88204
 Alpha  occ. eigenvalues --   -0.86625  -0.84564  -0.84052  -0.83152  -0.83024
 Alpha  occ. eigenvalues --   -0.82262  -0.78278  -0.77509  -0.75370  -0.74597
 Alpha  occ. eigenvalues --   -0.73667  -0.73412  -0.72838  -0.71567  -0.70882
 Alpha  occ. eigenvalues --   -0.67471  -0.67224  -0.66861  -0.66220  -0.64830
 Alpha  occ. eigenvalues --   -0.64501  -0.63976  -0.63302  -0.62683  -0.62475
 Alpha  occ. eigenvalues --   -0.61802  -0.61132  -0.60868  -0.59994  -0.59167
 Alpha  occ. eigenvalues --   -0.58597  -0.58305  -0.58170  -0.57180  -0.56495
 Alpha  occ. eigenvalues --   -0.56026  -0.55945  -0.55470  -0.54418  -0.54176
 Alpha  occ. eigenvalues --   -0.53964  -0.53880  -0.53366  -0.53332  -0.52898
 Alpha  occ. eigenvalues --   -0.52767  -0.52217  -0.51844  -0.51125  -0.50639
 Alpha  occ. eigenvalues --   -0.50277  -0.49795  -0.49414  -0.49121  -0.48859
 Alpha  occ. eigenvalues --   -0.48531  -0.48082  -0.47969  -0.47756  -0.47047
 Alpha  occ. eigenvalues --   -0.46917  -0.45769  -0.45397  -0.44873  -0.42659
 Alpha  occ. eigenvalues --   -0.41312  -0.41274  -0.38997  -0.37930  -0.37818
 Alpha  occ. eigenvalues --   -0.37564  -0.37142  -0.36685  -0.36048  -0.35146
 Alpha  occ. eigenvalues --   -0.34774  -0.34288  -0.34051  -0.33430  -0.32842
 Alpha  occ. eigenvalues --   -0.32415  -0.31992  -0.31720  -0.31194  -0.31124
 Alpha  occ. eigenvalues --   -0.30754  -0.29455  -0.26240  -0.25203
 Alpha virt. eigenvalues --    0.03147   0.03880   0.06852   0.07712   0.08749
 Alpha virt. eigenvalues --    0.08999   0.09458   0.09866   0.10899   0.12770
 Alpha virt. eigenvalues --    0.13257   0.13481   0.14060   0.14352   0.14416

 Mulliken charges:
               1
     1  N   -0.300537
     2  C    0.173387
     3  C    0.085834
     4  N   -0.255119
     5  C    0.133232
     6  H    0.025604
     7  N   -0.280086
     8  C    0.137940
     9  H    0.009731
    10  N   -0.284141
    11  C    0.213254
    12  C    0.072426
    13  N   -0.048916
    14  H    0.109270
    15  H    0.084147
    16  H    0.028101
    17  H    0.046210
    18  H    0.017258
    19  N   -0.269643
    20  C    0.205876
    21  C    0.204629
    22  N   -0.104305
    23  H    0.118914
    24  H    0.117815
    25  N   -0.283097
    26  C    0.203436
    27  N   -0.112932
    28  H    0.114078
    29  C    0.166972
    30  O   -0.320164
    31  C    0.014381
    32  N   -0.214270
    33  C    0.105504
    34  H    0.016414
    35  H   -0.016222
    36  H    0.031703
    37  H    0.022224
    38  H    0.060081
    39  H    0.045707
    40  H    0.070802
    41  H    0.025796
    42  C   -0.104256
    43  O   -0.268299
    44  C    0.171841
    45  H    0.128978
    46  N   -0.113152
    47  O   -0.330219
    48  C    0.323544
    49  H    0.043926
    50  C    0.168106
    51  C    0.042386
    52  N   -0.270515
    53  H    0.037854
    54  H    0.044011
    55  H    0.027362
    56  H    0.123245
    57  H    0.120140
    58  N   -0.062609
    59  C    0.100388
    60  C    0.154379
    61  N   -0.240440
    62  H    0.010379
    63  C    0.164379
    64  N   -0.294277
    65  H    0.036492
    66  C    0.113201
    67  N   -0.245489
    68  C    0.068214
    69  C    0.174718
    70  N   -0.295578
 Sum of Mulliken charges =  -0.00000

 Dipole moment (field-independent basis, Debye):
    X=             -5.6487    Y=              6.9485    Z=             -4.2006  Tot=              9.8911
 Quadrupole moment (field-independent basis, Debye-Ang):
   XX=           -149.3426   YY=           -228.9432   ZZ=           -260.9798
   XY=             -8.5201   XZ=             -0.7297   YZ=             13.8864

 Normal termination of Gaussian 16 at Fri Jan 19 23:02:25 2018.
