 Gaussian 16, Revision A.03,
 Gaussian 16:  EM64L-G16RevA.03 25-Dec-2016

 ---------------------------------------
 #p wb97xd/cc-pvdz sp scf=(maxcycles=20)
 ---------------------------------------

 ------------------
 Base pair stacking
 ------------------
 Symbolic Z-matrix:
 Charge =  0 Multiplicity = 1

                         Standard orientation:
 ---------------------------------------------------------------------
 Center     Atomic      Atomic             Coordinates (Angstroms)
 Number     Number       Type             X           Y           Z
 ---------------------------------------------------------------------
      1          7           0        5.465845   -1.464665   -1.095941
      2          6           0        6.785319   -0.905291   -1.448193
      3          6           0        3.299286   -1.779789   -0.886126
      4          7           0        3.910666   -2.844715   -0.240469
      5          6           0        5.191474   -2.612244   -0.392719
      6          1           0        5.987451   -3.251010   -0.008876
      7          7           0        1.679679   -0.310866   -1.770498
      8          6           0        2.702179    0.420599   -2.225508
      9          1           0        2.423259    1.320049   -2.772722
     10          7           0        4.011342    0.208804   -2.106594
     11          6           0        4.245061   -0.920873   -1.418371
     12          6           0        1.947851   -1.441754   -1.081822
     13          7           0        0.928514   -2.173249   -0.626815
     14          1           0        1.080267   -3.017807   -0.112117
     15          1           0       -0.021065   -1.902173   -0.784819
     16          1           0        7.290156   -1.564301   -2.005879
     17          1           0        6.662049   -0.058361   -1.964574
     18          1           0        7.301610   -0.712751   -0.613703
     19          7           0        4.650743    1.604233    0.986676
     20          6           0        3.286981    1.745354    0.895587
     21          6           0        5.645106    2.555008    0.450059
     22          7           0        0.513691    3.550695   -0.158626
     23          1           0       -0.481407    3.465222   -0.117237
     24          1           0        0.880859    4.359517   -0.618743
     25          7           0        2.631499    2.768076    0.305308
     26          6           0        1.320322    2.622898    0.378465
     27          7           0        0.696773    1.558361    0.982999
     28          1           0       -0.311239    1.530141    0.991514
     29          6           0        1.351207    0.494837    1.596611
     30          8           0        0.693891   -0.417015    2.113509
     31          6           0        2.760374    0.636758    1.526058
     32          7           0        3.773151   -0.183836    2.003365
     33          6           0        4.874024    0.428694    1.661138
     34          1           0        5.879460    0.065472    1.876625
     35          1           0        6.223367    2.091917   -0.220734
     36          1           0        5.171236    3.316884    0.010444
     37          1           0        6.212643    2.902549    1.195667
     38          1           0       -5.321285    1.656941    0.133572
     39          1           0       -5.377547    2.279620    1.780920
     40          1           0       -3.985916    2.627804    0.754519
     41          1           0       -4.769714   -2.416015    2.634248
     42          6           0       -4.182451   -1.550529    2.327161
     43          8           0       -2.092594   -2.574901    2.785736
     44          6           0       -2.754561   -1.612009    2.399169
     45          1           0       -1.098812   -0.469256    2.023766
     46          7           0       -2.108449   -0.463913    1.987266
     47          8           0       -2.030430    1.659973    1.187127
     48          6           0       -2.687902    0.693148    1.530127
     49          1           0       -5.858886   -0.338236    1.811676
     50          6           0       -4.776585   -0.435826    1.885525
     51          6           0       -4.732066    1.889514    1.008100
     52          7           0       -4.068215    0.675026    1.489832
     53          1           0       -5.608937    2.255943   -3.493818
     54          1           0       -4.309515    2.751679   -2.640687
     55          1           0       -5.797126    2.814604   -1.972015
     56          1           0       -2.445191   -3.534975   -0.099496
     57          1           0       -4.128545   -3.418097   -0.349997
     58          7           0       -3.226861   -2.986885   -0.397371
     59          6           0       -3.074686   -1.736464   -0.838341
     60          6           0       -3.824969    0.351359   -1.698445
     61          7           0       -2.602088    0.904731   -1.751141
     62          1           0       -0.657010    0.414085   -1.330954
     63          6           0       -1.681407    0.044235   -1.321265
     64          7           0       -1.831815   -1.208574   -0.879200
     65          1           0       -7.036034    0.170360   -2.027766
     66          6           0       -5.981829   -0.022608   -1.826858
     67          7           0       -5.507347   -1.149151   -1.354176
     68          6           0       -4.140861   -0.925507   -1.267938
     69          6           0       -5.197927    2.297232   -2.583128
     70          7           0       -5.019229    0.929536   -2.058257
 ---------------------------------------------------------------------

 SCF Done:  E(RwB97XD) =  -2048.75291417     A.U. after   15 cycles

 The electronic state is 1-A.
 Alpha  occ. eigenvalues --  -19.25426 -19.21715 -19.20588 -14.52478 -14.52030
 Alpha  occ. eigenvalues --  -14.49008 -14.48802 -14.47762 -14.47443 -14.46801
 Alpha  occ. eigenvalues --  -14.46604 -14.45459 -14.44221 -14.44219 -14.42589
 Alpha  occ. eigenvalues --  -14.41948 -14.41437 -14.41267 -14.40959 -14.40627
 Alpha  occ. eigenvalues --  -10.45024 -10.41174 -10.39825 -10.39726 -10.38218
 Alpha  occ. eigenvalues --  -10.37992 -10.37250 -10.37134 -10.35749 -10.35727
 Alpha  occ. eigenvalues --  -10.34907 -10.34353 -10.34181 -10.34110 -10.33604
 Alpha  occ. eigenvalues --  -10.33465 -10.33391 -10.32569 -10.31563 -10.30897
 Alpha  occ. eigenvalues --  -10.30667 -10.28727 -10.28126  -1.19062  -1.15267
 Alpha  occ. eigenvalues --   -1.13157  -1.12737  -1.11537  -1.10592  -1.09147
 Alpha  occ. eigenvalues --   -1.08937  -1.08510  -1.05358  -1.04620  -1.02144
 Alpha  occ. eigenvalues --   -1.00977  -1.00738  -0.99672  -0.98493  -0.97208
 Alpha  occ. eigenvalues --   -0.96698  -0.96589  -0.93031  -0.90616  -0.87623
 Alpha  occ. eigenvalues --   -0.85975  -0.84253  -0.84107  -0.83386  -0.82709
 Alpha  occ. eigenvalues --   -0.82468  -0.78456  -0.76952  -0.74769  -0.74608
 Alpha  occ. eigenvalues --   -0.73574  -0.73179  -0.73004  -0.71327  -0.70297
 Alpha  occ. eigenvalues --   -0.67353  -0.66668  -0.66597  -0.66173  -0.64309
 Alpha  occ. eigenvalues --   -0.64111  -0.63652  -0.63015  -0.62573  -0.61745
 Alpha  occ. eigenvalues --   -0.61436  -0.60668  -0.60371  -0.59447  -0.59105
 Alpha  occ. eigenvalues --   -0.58507  -0.58323  -0.57451  -0.56876  -0.56113
 Alpha  occ. eigenvalues --   -0.55804  -0.55693  -0.55286  -0.54281  -0.54059
 Alpha  occ. eigenvalues --   -0.53780  -0.53534  -0.53499  -0.53187  -0.52901
 Alpha  occ. eigenvalues --   -0.52785  -0.52157  -0.52152  -0.50994  -0.50561
 Alpha  occ. eigenvalues --   -0.50121  -0.49976  -0.49234  -0.49160  -0.48807
 Alpha  occ. eigenvalues --   -0.48754  -0.48303  -0.48260  -0.47552  -0.47248
 Alpha  occ. eigenvalues --   -0.47192  -0.46062  -0.45036  -0.44873  -0.43118
 Alpha  occ. eigenvalues --   -0.41306  -0.40673  -0.39090  -0.37772  -0.37479
 Alpha  occ. eigenvalues --   -0.37368  -0.37209  -0.37103  -0.36102  -0.34527
 Alpha  occ. eigenvalues --   -0.34365  -0.34108  -0.33720  -0.33499  -0.32999
 Alpha  occ. eigenvalues --   -0.32609  -0.32248  -0.31828  -0.31676  -0.31179
 Alpha  occ. eigenvalues --   -0.30742  -0.29581  -0.26213  -0.25279
 Alpha virt. eigenvalues --    0.03468   0.04089   0.07165   0.07615   0.08583
 Alpha virt. eigenvalues --    0.09185   0.09744   0.10430   0.10683   0.12387
 Alpha virt. eigenvalues --    0.13233   0.13431   0.14076   0.14370   0.14834

 Mulliken charges:
               1
     1  N   -0.304162
     2  C    0.175457
     3  C    0.069424
     4  N   -0.248691
     5  C    0.132646
     6  H    0.025620
     7  N   -0.290043
     8  C    0.134681
     9  H    0.011220
    10  N   -0.284259
    11  C    0.223710
    12  C    0.085754
    13  N   -0.045346
    14  H    0.112616
    15  H    0.084971
    16  H    0.028580
    17  H    0.037818
    18  H    0.017675
    19  N   -0.297112
    20  C    0.252812
    21  C    0.185845
    22  N   -0.121606
    23  H    0.118632
    24  H    0.117741
    25  N   -0.305277
    26  C    0.240441
    27  N   -0.138928
    28  H    0.115979
    29  C    0.183157
    30  O   -0.323543
    31  C   -0.015939
    32  N   -0.215295
    33  C    0.114791
    34  H    0.017702
    35  H    0.017554
    36  H    0.031477
    37  H    0.022552
    38  H    0.045672
    39  H    0.059646
    40  H    0.075670
    41  H    0.021916
    42  C   -0.102825
    43  O   -0.271662
    44  C    0.161184
    45  H    0.129879
    46  N   -0.108063
    47  O   -0.343036
    48  C    0.333452
    49  H    0.044716
    50  C    0.171519
    51  C    0.044755
    52  N   -0.276042
    53  H    0.035658
    54  H    0.042181
    55  H    0.021705
    56  H    0.126292
    57  H    0.117555
    58  N   -0.051193
    59  C    0.084427
    60  C    0.206965
    61  N   -0.259977
    62  H    0.026970
    63  C    0.158610
    64  N   -0.296750
    65  H    0.035132
    66  C    0.116003
    67  N   -0.250514
    68  C    0.050728
    69  C    0.180050
    70  N   -0.299274
 Sum of Mulliken charges =  -0.00000

 Dipole moment (field-independent basis, Debye):
    X=             -5.7314    Y=              6.3738    Z=             -4.1189  Tot=              9.5100
 Quadrupole moment (field-independent basis, Debye-Ang):
   XX=           -147.4532   YY=           -224.1733   ZZ=           -260.8512
   XY=             -9.3044   XZ=              1.2831   YZ=              3.9620

 Normal termination of Gaussian 16 at Fri Jan 19 11:40:03 2018.
