 Gaussian 16, Revision A.03,
 Gaussian 16:  EM64L-G16RevA.03 25-Dec-2016

 ---------------------------------------
 #p wb97xd/cc-pvdz sp scf=(maxcycles=20)
 ---------------------------------------

 ------------------
 Base pair stacking
 ------------------
 Symbolic Z-matrix:
 Charge =  0 Multiplicity = 1

                         Standard orientation:
 ---------------------------------------------------------------------
 Center     Atomic      Atomic             Coordinates (Angstroms)
 Number     Number       Type             X           Y           Z
 ---------------------------------------------------------------------
      1          7           0        4.251135   -1.148174   -1.991792
      2          6           0        5.554558   -0.547576   -2.335831
      3          6           0        2.105066   -1.454323   -1.620351
      4          7           0        2.721878   -2.668389   -1.355183
      5          6           0        3.990123   -2.435355   -1.589580
      6          1           0        4.785904   -3.173288   -1.484105
      7          7           0        0.484215    0.237874   -1.889209
      8          6           0        1.491381    1.039147   -2.251370
      9          1           0        1.205974    2.059190   -2.504959
     10          7           0        2.792070    0.770826   -2.346853
     11          6           0        3.034883   -0.507664   -2.013796
     12          6           0        0.761228   -1.042762   -1.560076
     13          7           0       -0.242809   -1.844145   -1.198295
     14          1           0       -0.084061   -2.799438   -0.946439
     15          1           0       -1.187374   -1.517142   -1.166703
     16          1           0        5.960126   -1.044773   -3.102956
     17          1           0        5.424050    0.409751   -2.592010
     18          1           0        6.166438   -0.599222   -1.546567
     19          7           0        5.814494    1.058621    0.736626
     20          6           0        4.458651    1.252774    0.846473
     21          6           0        6.797155    2.093703    0.357570
     22          7           0        1.692942    3.343115    0.639050
     23          1           0        0.704684    3.274340    0.772674
     24          1           0        2.053219    4.236481    0.369211
     25          7           0        3.801610    2.412411    0.628337
     26          6           0        2.499628    2.285438    0.813633
     27          7           0        1.886052    1.113379    1.184215
     28          1           0        0.884640    1.108886    1.303005
     29          6           0        2.542275   -0.091783    1.414030
     30          8           0        1.894290   -1.092436    1.745004
     31          6           0        3.941644    0.028918    1.218888
     32          7           0        4.952555   -0.914574    1.340406
     33          6           0        6.042955   -0.260082    1.045617
     34          1           0        7.044002   -0.692630    1.038168
     35          1           0        7.274412    1.813733   -0.474682
     36          1           0        6.322036    2.957178    0.193490
     37          1           0        7.459027    2.213914    1.096687
     38          1           0       -4.173531    1.585645    1.102111
     39          1           0       -4.019965    1.743921    2.850258
     40          1           0       -2.728198    2.320541    1.796590
     41          1           0       -3.585009   -3.021862    2.355545
     42          6           0       -2.986828   -2.120520    2.221392
     43          8           0       -0.919823   -3.281875    2.144960
     44          6           0       -1.564957   -2.234430    2.106802
     45          1           0        0.102066   -1.074216    1.855313
     46          7           0       -0.903890   -1.034254    1.940065
     47          8           0       -0.794228    1.223918    1.725980
     48          6           0       -1.463890    0.217086    1.875970
     49          1           0       -4.639064   -0.773155    2.244548
     50          6           0       -3.562089   -0.913778    2.162669
     51          6           0       -3.482792    1.559978    1.931737
     52          7           0       -2.839554    0.244654    1.994316
     53          1           0       -6.793398    3.353098   -2.007051
     54          1           0       -5.385305    3.568991   -1.211595
     55          1           0       -6.787691    3.486734   -0.380547
     56          1           0       -3.611367   -3.213487   -0.657950
     57          1           0       -5.302777   -2.991932   -0.669675
     58          7           0       -4.388813   -2.586323   -0.706753
     59          6           0       -4.215573   -1.267564   -0.816420
     60          6           0       -4.936608    0.992520   -1.000400
     61          7           0       -3.697590    1.509226   -1.047931
     62          1           0       -1.748938    0.875687   -1.003157
     63          6           0       -2.785341    0.542335   -0.971572
     64          7           0       -2.956841   -0.779062   -0.861695
     65          1           0       -8.169563    0.986269   -0.987292
     66          6           0       -7.112249    0.720367   -0.969438
     67          7           0       -6.653129   -0.503164   -0.870102
     68          6           0       -5.274966   -0.344840   -0.888555
     69          6           0       -6.286301    3.137940   -1.172458
     70          7           0       -6.128605    1.675514   -1.052212
 ---------------------------------------------------------------------

 SCF Done:  E(RwB97XD) =  -2048.74847340     A.U. after   15 cycles

 The electronic state is 1-A.
 Alpha  occ. eigenvalues --  -19.25118 -19.21398 -19.20717 -14.52816 -14.51522
 Alpha  occ. eigenvalues --  -14.49543 -14.48537 -14.48532 -14.47125 -14.46929
 Alpha  occ. eigenvalues --  -14.46767 -14.45638 -14.44859 -14.44834 -14.42951
 Alpha  occ. eigenvalues --  -14.42134 -14.41780 -14.41338 -14.41010 -14.40874
 Alpha  occ. eigenvalues --  -10.44688 -10.41384 -10.40423 -10.39468 -10.38450
 Alpha  occ. eigenvalues --  -10.38230 -10.37637 -10.36936 -10.36341 -10.35919
 Alpha  occ. eigenvalues --  -10.34876 -10.34127 -10.34126 -10.33837 -10.33714
 Alpha  occ. eigenvalues --  -10.33496 -10.33491 -10.33189 -10.31675 -10.30788
 Alpha  occ. eigenvalues --  -10.30323 -10.28703 -10.28627  -1.18664  -1.15577
 Alpha  occ. eigenvalues --   -1.13456  -1.12390  -1.11212  -1.11145  -1.09849
 Alpha  occ. eigenvalues --   -1.08726  -1.08401  -1.05493  -1.05342  -1.01727
 Alpha  occ. eigenvalues --   -1.01258  -1.00887  -0.99865  -0.98864  -0.97448
 Alpha  occ. eigenvalues --   -0.97180  -0.96823  -0.93187  -0.90215  -0.88049
 Alpha  occ. eigenvalues --   -0.86195  -0.84715  -0.83948  -0.83143  -0.82572
 Alpha  occ. eigenvalues --   -0.82326  -0.78117  -0.77403  -0.75329  -0.75063
 Alpha  occ. eigenvalues --   -0.73825  -0.73092  -0.72586  -0.71320  -0.70795
 Alpha  occ. eigenvalues --   -0.67653  -0.67204  -0.66508  -0.65817  -0.64693
 Alpha  occ. eigenvalues --   -0.64583  -0.63340  -0.62974  -0.62804  -0.62032
 Alpha  occ. eigenvalues --   -0.60921  -0.60806  -0.60538  -0.59843  -0.58913
 Alpha  occ. eigenvalues --   -0.58854  -0.58475  -0.57986  -0.56764  -0.55921
 Alpha  occ. eigenvalues --   -0.55751  -0.55675  -0.55542  -0.54699  -0.54315
 Alpha  occ. eigenvalues --   -0.53977  -0.53939  -0.53343  -0.53222  -0.53055
 Alpha  occ. eigenvalues --   -0.52421  -0.51747  -0.51469  -0.50763  -0.50538
 Alpha  occ. eigenvalues --   -0.50490  -0.50204  -0.49685  -0.49358  -0.49073
 Alpha  occ. eigenvalues --   -0.48811  -0.48310  -0.48175  -0.47492  -0.47157
 Alpha  occ. eigenvalues --   -0.47092  -0.45673  -0.45539  -0.45241  -0.42609
 Alpha  occ. eigenvalues --   -0.41471  -0.41099  -0.38927  -0.38151  -0.37964
 Alpha  occ. eigenvalues --   -0.37820  -0.37438  -0.37160  -0.35390  -0.35102
 Alpha  occ. eigenvalues --   -0.34802  -0.34144  -0.33722  -0.33620  -0.33205
 Alpha  occ. eigenvalues --   -0.32924  -0.32538  -0.32061  -0.31057  -0.30978
 Alpha  occ. eigenvalues --   -0.30762  -0.30585  -0.26468  -0.25561
 Alpha virt. eigenvalues --    0.02600   0.04843   0.06298   0.07702   0.08513
 Alpha virt. eigenvalues --    0.09072   0.09540   0.10091   0.10639   0.12406
 Alpha virt. eigenvalues --    0.13219   0.13644   0.14023   0.14461   0.14784

 Mulliken charges:
               1
     1  N   -0.299082
     2  C    0.187291
     3  C    0.051567
     4  N   -0.249238
     5  C    0.152386
     6  H    0.028318
     7  N   -0.290726
     8  C    0.123737
     9  H    0.006517
    10  N   -0.276075
    11  C    0.231457
    12  C    0.079411
    13  N   -0.061321
    14  H    0.117418
    15  H    0.086785
    16  H    0.024879
    17  H    0.032387
    18  H    0.010409
    19  N   -0.305039
    20  C    0.249214
    21  C    0.183432
    22  N   -0.117460
    23  H    0.119833
    24  H    0.119125
    25  N   -0.302234
    26  C    0.236994
    27  N   -0.133755
    28  H    0.119158
    29  C    0.187419
    30  O   -0.317666
    31  C   -0.010556
    32  N   -0.217439
    33  C    0.096323
    34  H    0.026247
    35  H    0.017995
    36  H    0.034022
    37  H    0.027504
    38  H    0.057525
    39  H    0.049889
    40  H    0.073661
    41  H    0.017992
    42  C   -0.104062
    43  O   -0.272062
    44  C    0.170931
    45  H    0.132126
    46  N   -0.123869
    47  O   -0.348415
    48  C    0.337393
    49  H    0.046104
    50  C    0.161515
    51  C    0.050619
    52  N   -0.273750
    53  H    0.035880
    54  H    0.041349
    55  H    0.030679
    56  H    0.123930
    57  H    0.118975
    58  N   -0.055986
    59  C    0.088398
    60  C    0.214032
    61  N   -0.262575
    62  H    0.035527
    63  C    0.159110
    64  N   -0.304084
    65  H    0.040181
    66  C    0.141502
    67  N   -0.258548
    68  C    0.037951
    69  C    0.179008
    70  N   -0.310162
 Sum of Mulliken charges =  -0.00000

 Dipole moment (field-independent basis, Debye):
    X=             -6.0673    Y=              7.7372    Z=             -1.6159  Tot=              9.9643
 Quadrupole moment (field-independent basis, Debye-Ang):
   XX=           -149.2459   YY=           -229.9571   ZZ=           -254.2070
   XY=             -0.9212   XZ=            -14.3170   YZ=             13.6156

 Normal termination of Gaussian 16 at Fri Jan 19 13:16:54 2018.
