 Gaussian 16, Revision A.03,
 Gaussian 16:  EM64L-G16RevA.03 25-Dec-2016

 ---------------------------------------
 #p wb97xd/cc-pvdz sp scf=(maxcycles=20)
 ---------------------------------------

 ------------------
 Base pair stacking
 ------------------
 Symbolic Z-matrix:
 Charge =  0 Multiplicity = 1

                         Standard orientation:
 ---------------------------------------------------------------------
 Center     Atomic      Atomic             Coordinates (Angstroms)
 Number     Number       Type             X           Y           Z
 ---------------------------------------------------------------------
      1          7           0        4.849913   -1.659456   -1.412131
      2          6           0        6.160610   -1.177074   -1.888990
      3          6           0        2.693238   -1.875104   -1.038594
      4          7           0        3.310502   -2.916546   -0.361007
      5          6           0        4.585117   -2.744940   -0.613168
      6          1           0        5.383139   -3.386533   -0.238381
      7          7           0        1.068210   -0.407999   -1.916009
      8          6           0        2.081675    0.250480   -2.487738
      9          1           0        1.796959    1.120735   -3.077546
     10          7           0        3.387893   -0.003440   -2.440517
     11          6           0        3.629285   -1.091848   -1.691167
     12          6           0        1.343954   -1.498906   -1.168368
     13          7           0        0.333645   -2.157554   -0.596836
     14          1           0        0.491219   -2.970341   -0.034922
     15          1           0       -0.614677   -1.861162   -0.710795
     16          1           0        6.603344   -1.891672   -2.430769
     17          1           0        6.031411   -0.363142   -2.454614
     18          1           0        6.738977   -0.948358   -1.105925
     19          7           0        5.253235    1.452314    0.722963
     20          6           0        3.892236    1.641231    0.716252
     21          6           0        6.246440    2.377717    0.141683
     22          7           0        1.125786    3.557408   -0.142099
     23          1           0        0.132547    3.505119   -0.042169
     24          1           0        1.492893    4.360966   -0.611392
     25          7           0        3.238847    2.695511    0.181796
     26          6           0        1.930092    2.593757    0.331582
     27          7           0        1.306907    1.540926    0.956640
     28          1           0        0.300829    1.546847    1.025400
     29          6           0        1.959212    0.445529    1.513839
     30          8           0        1.302437   -0.452100    2.055728
     31          6           0        3.365768    0.540640    1.360700
     32          7           0        4.375912   -0.321871    1.763895
     33          6           0        5.475138    0.258593    1.365182
     34          1           0        6.478335   -0.142186    1.514320
     35          1           0        6.767121    1.906684   -0.569531
     36          1           0        5.774098    3.162603   -0.257218
     37          1           0        6.869241    2.693062    0.856858
     38          1           0       -4.743978    1.858386    0.472592
     39          1           0       -4.680083    2.454593    2.129429
     40          1           0       -3.340841    2.772632    1.026413
     41          1           0       -4.186888   -2.272784    2.874598
     42          6           0       -3.589103   -1.422675    2.545642
     43          8           0       -1.512688   -2.525116    2.862275
     44          6           0       -2.162483   -1.533865    2.530639
     45          1           0       -0.493149   -0.441848    2.073309
     46          7           0       -1.502366   -0.401570    2.097731
     47          8           0       -1.398046    1.731701    1.326066
     48          6           0       -2.067275    0.782098    1.693584
     49          1           0       -5.249909   -0.145543    2.150125
     50          6           0       -4.169206   -0.281099    2.157227
     51          6           0       -4.095878    2.055930    1.313431
     52          7           0       -3.447317    0.811593    1.736184
     53          1           0       -6.229000    2.316822   -3.333144
     54          1           0       -4.858151    2.818637   -2.604408
     55          1           0       -6.293594    2.984740   -1.845478
     56          1           0       -3.040771   -3.348034    0.245965
     57          1           0       -4.732319   -3.183155    0.099076
     58          7           0       -3.821756   -2.791545   -0.037800
     59          6           0       -3.657363   -1.580921   -0.574959
     60          6           0       -4.392780    0.471062   -1.529055
     61          7           0       -3.158140    0.971602   -1.700961
     62          1           0       -1.206832    0.435484   -1.376017
     63          6           0       -2.240227    0.107252   -1.272911
     64          7           0       -2.402860   -1.105742   -0.734609
     65          1           0       -7.623153    0.392989   -1.632913
     66          6           0       -6.564913    0.173327   -1.488647
     67          7           0       -6.098057   -0.936006   -0.969874
     68          6           0       -4.722021   -0.760278   -0.989675
     69          6           0       -5.755586    2.404033   -2.456635
     70          7           0       -5.588350    1.069367   -1.849444
 ---------------------------------------------------------------------

 SCF Done:  E(RwB97XD) =  -2048.75089675     A.U. after   15 cycles

 The electronic state is 1-A.
 Alpha  occ. eigenvalues --  -19.25340 -19.21807 -19.20696 -14.52680 -14.51850
 Alpha  occ. eigenvalues --  -14.49203 -14.48633 -14.48032 -14.47327 -14.46871
 Alpha  occ. eigenvalues --  -14.46707 -14.45559 -14.44579 -14.44523 -14.42528
 Alpha  occ. eigenvalues --  -14.42047 -14.41354 -14.41139 -14.41024 -14.40626
 Alpha  occ. eigenvalues --  -10.44923 -10.41278 -10.40036 -10.39798 -10.38341
 Alpha  occ. eigenvalues --  -10.38124 -10.37406 -10.37021 -10.36065 -10.35652
 Alpha  occ. eigenvalues --  -10.34601 -10.34588 -10.34084 -10.33840 -10.33808
 Alpha  occ. eigenvalues --  -10.33396 -10.33314 -10.32874 -10.31353 -10.31188
 Alpha  occ. eigenvalues --  -10.30563 -10.28536 -10.28382  -1.18920  -1.15428
 Alpha  occ. eigenvalues --   -1.13313  -1.12752  -1.11213  -1.10880  -1.09500
 Alpha  occ. eigenvalues --   -1.08762  -1.08604  -1.05264  -1.04946  -1.02018
 Alpha  occ. eigenvalues --   -1.01117  -1.00612  -0.99792  -0.98676  -0.97108
 Alpha  occ. eigenvalues --   -0.96920  -0.96787  -0.92947  -0.90491  -0.87825
 Alpha  occ. eigenvalues --   -0.86070  -0.84441  -0.83944  -0.83123  -0.82827
 Alpha  occ. eigenvalues --   -0.82399  -0.78340  -0.77180  -0.75017  -0.74860
 Alpha  occ. eigenvalues --   -0.73714  -0.72977  -0.72872  -0.71163  -0.70523
 Alpha  occ. eigenvalues --   -0.67527  -0.66922  -0.66390  -0.66052  -0.64491
 Alpha  occ. eigenvalues --   -0.64332  -0.63588  -0.62830  -0.62702  -0.61920
 Alpha  occ. eigenvalues --   -0.60976  -0.60649  -0.60466  -0.59611  -0.58993
 Alpha  occ. eigenvalues --   -0.58840  -0.58446  -0.57548  -0.56679  -0.55975
 Alpha  occ. eigenvalues --   -0.55750  -0.55685  -0.55374  -0.54287  -0.54059
 Alpha  occ. eigenvalues --   -0.53886  -0.53761  -0.53509  -0.53225  -0.53100
 Alpha  occ. eigenvalues --   -0.52945  -0.51903  -0.51848  -0.50710  -0.50446
 Alpha  occ. eigenvalues --   -0.50341  -0.50078  -0.49379  -0.49108  -0.48981
 Alpha  occ. eigenvalues --   -0.48817  -0.48405  -0.48188  -0.48062  -0.47266
 Alpha  occ. eigenvalues --   -0.47045  -0.45972  -0.45469  -0.44865  -0.42681
 Alpha  occ. eigenvalues --   -0.41219  -0.40873  -0.39042  -0.38089  -0.37716
 Alpha  occ. eigenvalues --   -0.37438  -0.37329  -0.37113  -0.35908  -0.34788
 Alpha  occ. eigenvalues --   -0.34433  -0.34145  -0.33535  -0.33411  -0.33109
 Alpha  occ. eigenvalues --   -0.32818  -0.32677  -0.31964  -0.31370  -0.30937
 Alpha  occ. eigenvalues --   -0.30587  -0.30117  -0.26382  -0.25186
 Alpha virt. eigenvalues --    0.03233   0.04048   0.07044   0.07718   0.08617
 Alpha virt. eigenvalues --    0.08976   0.09702   0.10297   0.10946   0.12326
 Alpha virt. eigenvalues --    0.13007   0.13376   0.14196   0.14489   0.14885

 Mulliken charges:
               1
     1  N   -0.301478
     2  C    0.181093
     3  C    0.056582
     4  N   -0.248027
     5  C    0.146028
     6  H    0.025278
     7  N   -0.290995
     8  C    0.128579
     9  H    0.009776
    10  N   -0.281800
    11  C    0.234154
    12  C    0.078422
    13  N   -0.049727
    14  H    0.116163
    15  H    0.085558
    16  H    0.026788
    17  H    0.034168
    18  H    0.010886
    19  N   -0.306986
    20  C    0.258930
    21  C    0.184051
    22  N   -0.123646
    23  H    0.119183
    24  H    0.118814
    25  N   -0.306871
    26  C    0.243466
    27  N   -0.138936
    28  H    0.120768
    29  C    0.183574
    30  O   -0.320554
    31  C   -0.013550
    32  N   -0.215182
    33  C    0.106853
    34  H    0.023535
    35  H    0.018400
    36  H    0.033208
    37  H    0.025471
    38  H    0.047972
    39  H    0.055611
    40  H    0.076009
    41  H    0.018045
    42  C   -0.098515
    43  O   -0.274317
    44  C    0.168250
    45  H    0.129168
    46  N   -0.113151
    47  O   -0.349770
    48  C    0.334628
    49  H    0.044933
    50  C    0.161041
    51  C    0.049847
    52  N   -0.274977
    53  H    0.036200
    54  H    0.042038
    55  H    0.027715
    56  H    0.125946
    57  H    0.116667
    58  N   -0.053305
    59  C    0.090629
    60  C    0.210476
    61  N   -0.260539
    62  H    0.028810
    63  C    0.166309
    64  N   -0.306305
    65  H    0.037693
    66  C    0.131718
    67  N   -0.255273
    68  C    0.039976
    69  C    0.178357
    70  N   -0.303861
 Sum of Mulliken charges =  -0.00000

 Dipole moment (field-independent basis, Debye):
    X=             -5.8914    Y=              6.8786    Z=             -3.6113  Tot=              9.7502
 Quadrupole moment (field-independent basis, Debye-Ang):
   XX=           -148.5623   YY=           -224.2921   ZZ=           -259.5663
   XY=             -7.5822   XZ=             -5.9331   YZ=              3.7403

 Normal termination of Gaussian 16 at Sat Jan 20 05:30:54 2018.
