 Gaussian 16, Revision A.03,
 Gaussian 16:  EM64L-G16RevA.03 25-Dec-2016

 ---------------------------------------
 #p wb97xd/cc-pvdz sp scf=(maxcycles=20)
 ---------------------------------------

 ------------------
 Base pair stacking
 ------------------
 Symbolic Z-matrix:
 Charge =  0 Multiplicity = 1

                         Standard orientation:
 ---------------------------------------------------------------------
 Center     Atomic      Atomic             Coordinates (Angstroms)
 Number     Number       Type             X           Y           Z
 ---------------------------------------------------------------------
      1          7           0       -6.898980   -1.006604    0.241354
      2          6           0       -8.206976   -0.385868    0.527463
      3          6           0       -4.750242   -1.475146    0.214998
      4          7           0       -5.358595   -2.396051   -0.625570
      5          6           0       -6.628780   -2.076923   -0.576053
      6          1           0       -7.419518   -2.593453   -1.120901
      7          7           0       -3.141016   -0.269698    1.447981
      8          6           0       -4.154098    0.483304    1.888695
      9          1           0       -3.875852    1.280949    2.576160
     10          7           0       -5.453194    0.399322    1.609024
     11          6           0       -5.686989   -0.612222    0.756652
     12          6           0       -3.409006   -1.279466    0.591451
     13          7           0       -2.399056   -2.032237    0.150411
     14          1           0       -2.551068   -2.790394   -0.484655
     15          1           0       -1.456585   -1.864111    0.439588
     16          1           0       -8.816647   -1.064060    0.937985
     17          1           0       -8.083218    0.376833    1.161574
     18          1           0       -8.611082   -0.048167   -0.322619
     19          7           0       -3.063120    2.100152   -1.332360
     20          6           0       -1.710226    2.115399   -1.092560
     21          6           0       -4.010565    3.165101   -0.946442
     22          7           0        1.097153    3.696999    0.203160
     23          1           0        2.077339    3.515672    0.277849
     24          1           0        0.764239    4.557705    0.589269
     25          7           0       -1.024627    3.097893   -0.469112
     26          6           0        0.265702    2.825730   -0.388025
     27          7           0        0.842493    1.679655   -0.879269
     28          1           0        1.837570    1.555573   -0.772562
     29          6           0        0.156432    0.655395   -1.524309
     30          8           0        0.772252   -0.337956   -1.930223
     31          6           0       -1.230858    0.933488   -1.618957
     32          7           0       -2.262053    0.191177   -2.177985
     33          6           0       -3.327266    0.920740   -1.984955
     34          1           0       -4.334293    0.644832   -2.299678
     35          1           0       -4.701811    2.790940   -0.329194
     36          1           0       -3.514093    3.898374   -0.483746
     37          1           0       -4.455884    3.529528   -1.763571
     38          1           0        6.711588    1.246686    0.642135
     39          1           0        7.009068    1.783225   -1.009623
     40          1           0        5.555270    2.309632   -0.160649
     41          1           0        6.033874   -2.868423   -1.756444
     42          6           0        5.505633   -1.937687   -1.549245
     43          8           0        3.386855   -2.779580   -2.204308
     44          6           0        4.095157   -1.866756   -1.780230
     45          1           0        2.530276   -0.555743   -1.636213
     46          7           0        3.525385   -0.644489   -1.485819
     47          8           0        3.572183    1.512417   -0.776764
     48          6           0        4.163694    0.472562   -1.008003
     49          1           0        7.228008   -0.867044   -0.891269
     50          6           0        6.155941   -0.864879   -1.083645
     51          6           0        6.247468    1.492800   -0.301313
     52          7           0        5.522652    0.325501   -0.811025
     53          1           0        4.069858    1.437856    4.235421
     54          1           0        2.913060    2.143812    3.326835
     55          1           0        4.467242    2.163433    2.828629
     56          1           0        0.908048   -3.598020   -0.203994
     57          1           0        2.556490   -3.655852    0.231197
     58          7           0        1.687887   -3.159240    0.242615
     59          6           0        1.575610   -1.964974    0.827676
     60          6           0        2.369628   -0.071172    2.029665
     61          7           0        1.190707    0.572693    2.029573
     62          1           0       -0.724393    0.304207    1.350650
     63          6           0        0.265913   -0.146797    1.397123
     64          7           0        0.376398   -1.343137    0.810484
     65          1           0        5.502325   -0.562394    2.659783
     66          6           0        4.466507   -0.639113    2.327940
     67          7           0        3.969991   -1.654015    1.663751
     68          6           0        2.641128   -1.306721    1.468205
     69          6           0        3.768012    1.626603    3.300939
     70          7           0        3.553540    0.354788    2.583642
 ---------------------------------------------------------------------

 SCF Done:  E(RwB97XD) =  -2048.75153547     A.U. after   15 cycles

 The electronic state is 1-A.
 Alpha  occ. eigenvalues --  -19.26063 -19.22163 -19.20677 -14.52540 -14.51205
 Alpha  occ. eigenvalues --  -14.49605 -14.48588 -14.47915 -14.46908 -14.46732
 Alpha  occ. eigenvalues --  -14.45908 -14.44143 -14.42661 -14.42589 -14.42547
 Alpha  occ. eigenvalues --  -14.42257 -14.42040 -14.41732 -14.40834 -14.40765
 Alpha  occ. eigenvalues --  -10.45616 -10.41228 -10.40202 -10.38274 -10.38082
 Alpha  occ. eigenvalues --  -10.37621 -10.36782 -10.36058 -10.35798 -10.35698
 Alpha  occ. eigenvalues --  -10.34898 -10.34325 -10.34285 -10.34192 -10.33805
 Alpha  occ. eigenvalues --  -10.33182 -10.33182 -10.31687 -10.31067 -10.30960
 Alpha  occ. eigenvalues --  -10.30429 -10.29346 -10.28097  -1.19594  -1.13854
 Alpha  occ. eigenvalues --   -1.13241  -1.13170  -1.12194  -1.10521  -1.09426
 Alpha  occ. eigenvalues --   -1.08597  -1.07453  -1.05690  -1.02983  -1.02599
 Alpha  occ. eigenvalues --   -1.01079  -0.99789  -0.99583  -0.98529  -0.97714
 Alpha  occ. eigenvalues --   -0.96441  -0.95090  -0.93301  -0.90982  -0.86285
 Alpha  occ. eigenvalues --   -0.84787  -0.84704  -0.84033  -0.83931  -0.83063
 Alpha  occ. eigenvalues --   -0.82258  -0.78891  -0.75515  -0.74555  -0.73680
 Alpha  occ. eigenvalues --   -0.73592  -0.73424  -0.73243  -0.71789  -0.68856
 Alpha  occ. eigenvalues --   -0.67378  -0.66988  -0.66604  -0.65175  -0.64488
 Alpha  occ. eigenvalues --   -0.63722  -0.63402  -0.62669  -0.62663  -0.61725
 Alpha  occ. eigenvalues --   -0.60805  -0.60249  -0.59542  -0.59061  -0.58431
 Alpha  occ. eigenvalues --   -0.58342  -0.58145  -0.57227  -0.57096  -0.56418
 Alpha  occ. eigenvalues --   -0.56080  -0.55914  -0.54496  -0.54440  -0.54125
 Alpha  occ. eigenvalues --   -0.53606  -0.53534  -0.52878  -0.52741  -0.52629
 Alpha  occ. eigenvalues --   -0.52313  -0.52132  -0.51532  -0.51451  -0.50864
 Alpha  occ. eigenvalues --   -0.50132  -0.49733  -0.49531  -0.48873  -0.48685
 Alpha  occ. eigenvalues --   -0.48477  -0.48245  -0.47805  -0.47683  -0.47650
 Alpha  occ. eigenvalues --   -0.47411  -0.45690  -0.45195  -0.43988  -0.43182
 Alpha  occ. eigenvalues --   -0.41908  -0.39609  -0.39354  -0.37927  -0.37284
 Alpha  occ. eigenvalues --   -0.37182  -0.36822  -0.36107  -0.35406  -0.34415
 Alpha  occ. eigenvalues --   -0.34306  -0.34222  -0.33341  -0.33081  -0.32782
 Alpha  occ. eigenvalues --   -0.32639  -0.32260  -0.31911  -0.31856  -0.31682
 Alpha  occ. eigenvalues --   -0.31039  -0.28110  -0.26484  -0.25417
 Alpha virt. eigenvalues --    0.03133   0.05294   0.07216   0.08257   0.08764
 Alpha virt. eigenvalues --    0.09140   0.09690   0.10273   0.10662   0.12051
 Alpha virt. eigenvalues --    0.12994   0.13374   0.14521   0.14746   0.15623

 Mulliken charges:
               1
     1  N   -0.310225
     2  C    0.180466
     3  C    0.037910
     4  N   -0.254483
     5  C    0.129531
     6  H    0.028721
     7  N   -0.279968
     8  C    0.130726
     9  H    0.016995
    10  N   -0.292112
    11  C    0.231821
    12  C    0.100088
    13  N   -0.038634
    14  H    0.108698
    15  H    0.089138
    16  H    0.028083
    17  H    0.035354
    18  H    0.024928
    19  N   -0.303570
    20  C    0.252442
    21  C    0.181238
    22  N   -0.118331
    23  H    0.111616
    24  H    0.117455
    25  N   -0.305042
    26  C    0.240842
    27  N   -0.129970
    28  H    0.117443
    29  C    0.159705
    30  O   -0.324139
    31  C   -0.002796
    32  N   -0.226933
    33  C    0.122850
    34  H    0.028389
    35  H    0.028415
    36  H    0.027050
    37  H    0.021703
    38  H    0.049939
    39  H    0.064162
    40  H    0.075302
    41  H    0.028930
    42  C   -0.083790
    43  O   -0.278199
    44  C    0.174863
    45  H    0.136655
    46  N   -0.128464
    47  O   -0.349637
    48  C    0.346303
    49  H    0.044964
    50  C    0.170553
    51  C    0.037891
    52  N   -0.286479
    53  H    0.031676
    54  H    0.038759
    55  H    0.017445
    56  H    0.119176
    57  H    0.118928
    58  N   -0.040287
    59  C    0.112193
    60  C    0.237028
    61  N   -0.274316
    62  H    0.037559
    63  C    0.160393
    64  N   -0.302759
    65  H    0.025779
    66  C    0.117902
    67  N   -0.250844
    68  C    0.007507
    69  C    0.180555
    70  N   -0.305091
 Sum of Mulliken charges =  -0.00000

 Dipole moment (field-independent basis, Debye):
    X=              5.6425    Y=              5.7973    Z=              3.7385  Tot=              8.9120
 Quadrupole moment (field-independent basis, Debye-Ang):
   XX=           -140.1409   YY=           -226.0286   ZZ=           -255.0066
   XY=             11.8626   XZ=             19.3949   YZ=             -0.6396

 Normal termination of Gaussian 16 at Fri Jan 19 16:45:02 2018.
