 Gaussian 16, Revision A.03,
 Gaussian 16:  EM64L-G16RevA.03 25-Dec-2016

 ---------------------------------------
 #p wb97xd/cc-pvdz sp scf=(maxcycles=20)
 ---------------------------------------

 ------------------
 Base pair stacking
 ------------------
 Symbolic Z-matrix:
 Charge =  0 Multiplicity = 1

                         Standard orientation:
 ---------------------------------------------------------------------
 Center     Atomic      Atomic             Coordinates (Angstroms)
 Number     Number       Type             X           Y           Z
 ---------------------------------------------------------------------
      1          7           0        6.811439   -0.869773   -0.337202
      2          6           0        8.092060   -0.142410   -0.242594
      3          6           0        4.685339   -1.366122   -0.602989
      4          7           0        5.329930   -2.560827   -0.316796
      5          6           0        6.585035   -2.213975   -0.168118
      6          1           0        7.395334   -2.904471    0.067627
      7          7           0        3.030057    0.234570   -1.113653
      8          6           0        4.010931    1.142936   -1.094874
      9          1           0        3.700857    2.166450   -1.301147
     10          7           0        5.311196    0.977589   -0.860654
     11          6           0        5.585553   -0.314989   -0.618989
     12          6           0        3.338468   -1.057304   -0.866628
     13          7           0        2.360731   -1.965517   -0.884917
     14          1           0        2.543165   -2.933265   -0.707683
     15          1           0        1.413054   -1.709705   -1.076306
     16          1           0        8.732856   -0.503401   -0.920268
     17          1           0        7.937647    0.829805   -0.416006
     18          1           0        8.477111   -0.258918    0.672916
     19          7           0        3.197262    1.536437    1.446534
     20          6           0        1.850062    1.612326    1.187047
     21          6           0        4.194821    2.564810    1.088704
     22          7           0       -0.867573    3.328270   -0.128917
     23          1           0       -1.853323    3.189827   -0.220435
     24          1           0       -0.492596    4.178782   -0.498701
     25          7           0        1.216359    2.630903    0.566575
     26          6           0       -0.082970    2.415005    0.462897
     27          7           0       -0.715299    1.288467    0.930438
     28          1           0       -1.712995    1.208262    0.807441
     29          6           0       -0.083234    0.227891    1.571946
     30          8           0       -0.746770   -0.743336    1.955594
     31          6           0        1.312995    0.445409    1.690690
     32          7           0        2.303111   -0.347133    2.255010
     33          6           0        3.401137    0.338743    2.087330
     34          1           0        4.390624    0.016238    2.413193
     35          1           0        4.878918    2.169307    0.476822
     36          1           0        3.737026    3.324323    0.628456
     37          1           0        4.642649    2.899640    1.917041
     38          1           0       -6.573523    1.125127   -0.682863
     39          1           0       -6.873192    1.653078    0.971253
     40          1           0       -5.385575    2.127674    0.150824
     41          1           0       -6.107725   -3.044908    1.670938
     42          6           0       -5.537371   -2.134998    1.483849
     43          8           0       -3.466477   -3.074572    2.158901
     44          6           0       -4.128854   -2.127136    1.736504
     45          1           0       -2.507758   -0.882296    1.632866
     46          7           0       -3.503314   -0.926658    1.466672
     47          8           0       -3.447731    1.239004    0.785521
     48          6           0       -4.086291    0.222487    0.994284
     49          1           0       -7.202526   -0.983752    0.814741
     50          6           0       -6.134391   -1.029689    1.022907
     51          6           0       -6.113869    1.339379    0.270477
     52          7           0       -5.447099    0.135950    0.775380
     53          1           0       -4.236576    2.843188   -2.866771
     54          1           0       -3.116067    3.043619   -1.697850
     55          1           0       -4.671802    2.756428   -1.296268
     56          1           0       -0.875711   -3.617531   -1.442229
     57          1           0       -2.518047   -3.510103   -1.890876
     58          7           0       -1.672135   -3.042951   -1.631211
     59          6           0       -1.609989   -1.712832   -1.541247
     60          6           0       -2.481331    0.498057   -1.661447
     61          7           0       -1.331941    1.098196   -1.310519
     62          1           0        0.590082    0.596247   -0.806045
     63          6           0       -0.379162    0.193072   -1.096346
     64          7           0       -0.439431   -1.139566   -1.185932
     65          1           0       -5.586505    0.273761   -2.533079
     66          6           0       -4.549790    0.079223   -2.256809
     67          7           0       -4.012006   -1.113032   -2.173195
     68          6           0       -2.700618   -0.861798   -1.796524
     69          6           0       -3.947506    2.551908   -1.954851
     70          7           0       -3.680392    1.100483   -1.960332
 ---------------------------------------------------------------------

 SCF Done:  E(RwB97XD) =  -2048.66929591     A.U. after   15 cycles

 The electronic state is 1-A.
 Alpha  occ. eigenvalues --  -19.26086 -19.21933 -19.20439 -14.52714 -14.51476
 Alpha  occ. eigenvalues --  -14.50107 -14.47964 -14.47951 -14.47114 -14.46057
 Alpha  occ. eigenvalues --  -14.45719 -14.44468 -14.43394 -14.43371 -14.42715
 Alpha  occ. eigenvalues --  -14.42385 -14.42336 -14.41876 -14.41403 -14.40492
 Alpha  occ. eigenvalues --  -10.45684 -10.40545 -10.40049 -10.38899 -10.37869
 Alpha  occ. eigenvalues --  -10.37753 -10.37194 -10.36714 -10.36165 -10.36156
 Alpha  occ. eigenvalues --  -10.35345 -10.35106 -10.34851 -10.34489 -10.33970
 Alpha  occ. eigenvalues --  -10.33900 -10.32929 -10.32128 -10.31451 -10.31084
 Alpha  occ. eigenvalues --  -10.29900 -10.28258 -10.27811  -1.19819  -1.14347
 Alpha  occ. eigenvalues --   -1.13157  -1.12989  -1.12742  -1.10250  -1.09579
 Alpha  occ. eigenvalues --   -1.08590  -1.08039  -1.06459  -1.03885  -1.02614
 Alpha  occ. eigenvalues --   -1.01992  -1.00177  -0.99260  -0.98348  -0.98264
 Alpha  occ. eigenvalues --   -0.96172  -0.95710  -0.94135  -0.91168  -0.87023
 Alpha  occ. eigenvalues --   -0.85581  -0.85475  -0.84268  -0.83635  -0.83568
 Alpha  occ. eigenvalues --   -0.81422  -0.79010  -0.76318  -0.74573  -0.74241
 Alpha  occ. eigenvalues --   -0.73978  -0.73513  -0.73269  -0.72580  -0.69763
 Alpha  occ. eigenvalues --   -0.67742  -0.67115  -0.66656  -0.66136  -0.64705
 Alpha  occ. eigenvalues --   -0.64285  -0.63634  -0.63252  -0.62762  -0.61523
 Alpha  occ. eigenvalues --   -0.61338  -0.61282  -0.60153  -0.59696  -0.59122
 Alpha  occ. eigenvalues --   -0.58407  -0.58198  -0.58070  -0.57734  -0.56949
 Alpha  occ. eigenvalues --   -0.56503  -0.56010  -0.55519  -0.54917  -0.54723
 Alpha  occ. eigenvalues --   -0.54308  -0.53380  -0.53263  -0.53022  -0.52494
 Alpha  occ. eigenvalues --   -0.52228  -0.51977  -0.51805  -0.51652  -0.50843
 Alpha  occ. eigenvalues --   -0.50307  -0.49840  -0.49584  -0.48962  -0.48595
 Alpha  occ. eigenvalues --   -0.48459  -0.48238  -0.47960  -0.47759  -0.47336
 Alpha  occ. eigenvalues --   -0.47150  -0.45770  -0.45666  -0.44242  -0.42929
 Alpha  occ. eigenvalues --   -0.41501  -0.40550  -0.39733  -0.38742  -0.37365
 Alpha  occ. eigenvalues --   -0.37276  -0.37018  -0.36208  -0.35253  -0.35034
 Alpha  occ. eigenvalues --   -0.34738  -0.34353  -0.33575  -0.33131  -0.33014
 Alpha  occ. eigenvalues --   -0.32522  -0.32212  -0.31869  -0.31798  -0.31593
 Alpha  occ. eigenvalues --   -0.31132  -0.27826  -0.26850  -0.25041
 Alpha virt. eigenvalues --    0.03107   0.04626   0.06294   0.07975   0.08296
 Alpha virt. eigenvalues --    0.09183   0.09557   0.10211   0.11252   0.11984
 Alpha virt. eigenvalues --    0.12643   0.13205   0.14387   0.14548   0.15145

 Mulliken charges:
               1
     1  N   -0.314144
     2  C    0.179507
     3  C    0.056389
     4  N   -0.256033
     5  C    0.132888
     6  H    0.030634
     7  N   -0.258036
     8  C    0.127368
     9  H    0.025474
    10  N   -0.298949
    11  C    0.239685
    12  C    0.094082
    13  N   -0.045371
    14  H    0.107695
    15  H    0.087696
    16  H    0.029343
    17  H    0.035510
    18  H    0.027698
    19  N   -0.288323
    20  C    0.234114
    21  C    0.177770
    22  N   -0.065469
    23  H    0.105235
    24  H    0.108191
    25  N   -0.281458
    26  C    0.183509
    27  N   -0.117565
    28  H    0.128649
    29  C    0.130696
    30  O   -0.322861
    31  C    0.025926
    32  N   -0.222014
    33  C    0.111142
    34  H    0.023054
    35  H    0.022283
    36  H    0.018454
    37  H    0.008408
    38  H    0.043332
    39  H    0.066702
    40  H    0.084935
    41  H    0.031902
    42  C   -0.102214
    43  O   -0.264711
    44  C    0.184473
    45  H    0.132810
    46  N   -0.127259
    47  O   -0.345347
    48  C    0.346637
    49  H    0.045842
    50  C    0.173455
    51  C    0.028736
    52  N   -0.281382
    53  H    0.033970
    54  H    0.018058
    55  H   -0.003302
    56  H    0.118385
    57  H    0.120381
    58  N   -0.068202
    59  C    0.129408
    60  C    0.219954
    61  N   -0.305443
    62  H    0.037892
    63  C    0.194073
    64  N   -0.309082
    65  H    0.030959
    66  C    0.104625
    67  N   -0.248473
    68  C    0.015982
    69  C    0.195754
    70  N   -0.284027
 Sum of Mulliken charges =  -0.00000

 Dipole moment (field-independent basis, Debye):
    X=             -4.8286    Y=              5.5942    Z=             -4.8284  Tot=              8.8275
 Quadrupole moment (field-independent basis, Debye-Ang):
   XX=           -139.6183   YY=           -229.8315   ZZ=           -259.6874
   XY=            -17.4110   XZ=             13.5888   YZ=              9.1520

 Normal termination of Gaussian 16 at Sat Jan 20 01:16:30 2018.
