 Gaussian 16, Revision A.03,
 Gaussian 16:  EM64L-G16RevA.03 25-Dec-2016

 ---------------------------------------
 #p wb97xd/cc-pvdz sp scf=(maxcycles=20)
 ---------------------------------------

 ------------------
 Base pair stacking
 ------------------
 Symbolic Z-matrix:
 Charge =  0 Multiplicity = 1

                         Standard orientation:
 ---------------------------------------------------------------------
 Center     Atomic      Atomic             Coordinates (Angstroms)
 Number     Number       Type             X           Y           Z
 ---------------------------------------------------------------------
      1          7           0       -5.781775   -1.714935    0.522325
      2          6           0       -7.100015   -1.361042    1.083581
      3          6           0       -3.615886   -1.919741    0.199363
      4          7           0       -4.229657   -2.581516   -0.854229
      5          6           0       -5.509965   -2.431649   -0.617481
      6          1           0       -6.307386   -2.826959   -1.247403
      7          7           0       -1.992982   -1.009863    1.648940
      8          6           0       -3.013862   -0.549794    2.379499
      9          1           0       -2.732930    0.010068    3.270500
     10          7           0       -4.323518   -0.676866    2.175628
     11          6           0       -4.559759   -1.380468    1.056000
     12          6           0       -2.263693   -1.714089    0.528281
     13          7           0       -1.245972   -2.174176   -0.202298
     14          1           0       -1.399612   -2.700279   -1.039447
     15          1           0       -0.295775   -2.008750    0.062108
     16          1           0       -7.611522   -2.195651    1.288490
     17          1           0       -6.974856   -0.833352    1.923220
     18          1           0       -7.610700   -0.813457    0.420754
     19          7           0       -4.314064    2.116766   -0.601720
     20          6           0       -2.949139    2.198817   -0.466492
     21          6           0       -5.294438    2.966221    0.103972
     22          7           0       -0.152070    3.675934    0.967471
     23          1           0        0.841232    3.573178    0.922302
     24          1           0       -0.507623    4.384604    1.577448
     25          7           0       -2.279625    3.062273    0.327383
     26          6           0       -0.971280    2.898791    0.243013
     27          7           0       -0.363121    1.961967   -0.556991
     28          1           0        0.643895    1.908248   -0.558208
     29          6           0       -1.032146    1.063266   -1.381988
     30          8           0       -0.388069    0.257223   -2.064772
     31          6           0       -2.438468    1.226791   -1.302078
     32          7           0       -3.462206    0.548168   -1.948874
     33          6           0       -4.553781    1.108837   -1.503524
     34          1           0       -5.563742    0.824689   -1.801053
     35          1           0       -5.895890    2.393002    0.659387
     36          1           0       -4.810114    3.609880    0.695069
     37          1           0       -5.839738    3.473112   -0.562758
     38          1           0        5.639197    1.720280    0.371457
     39          1           0        5.740463    2.661932   -1.114364
     40          1           0        4.339419    2.833281   -0.056496
     41          1           0        5.033560   -1.744908   -2.910648
     42          6           0        4.462171   -0.943697   -2.441815
     43          8           0        2.356536   -1.795845   -3.125368
     44          6           0        3.034739   -0.949872   -2.543009
     45          1           0        1.400897    0.138418   -1.964637
     46          7           0        2.409533    0.108385   -1.914943
     47          8           0        2.368997    2.027496   -0.701452
     48          6           0        3.008739    1.132419   -1.225119
     49          1           0        6.158137    0.092306   -1.669665
     50          6           0        5.075286    0.041614   -1.775588
     51          6           0        5.071768    2.141348   -0.445108
     52          7           0        4.387247    1.068413   -1.171735
     53          1           0        5.300308    0.467972    4.351944
     54          1           0        4.008295    1.301154    3.805486
     55          1           0        5.499840    1.644108    3.238249
     56          1           0        2.122945   -3.183799   -1.272504
     57          1           0        3.805539   -3.203036   -0.992149
     58          7           0        2.906015   -2.831322   -0.759963
     59          6           0        2.758389   -1.906707    0.191070
     60          6           0        3.515563   -0.425394    1.892285
     61          7           0        2.295504    0.055715    2.182827
     62          1           0        0.350047   -0.182304    1.583551
     63          6           0        1.372409   -0.516748    1.412714
     64          7           0        1.518257   -1.443007    0.459636
     65          1           0        6.723751   -0.757737    2.114301
     66          6           0        5.669592   -0.833338    1.845985
     67          7           0        5.191429   -1.628294    0.920193
     68          6           0        3.826695   -1.379553    0.939243
     69          6           0        4.894475    0.913258    3.553801
     70          7           0        4.711048   -0.076587    2.474660
 ---------------------------------------------------------------------

 SCF Done:  E(RwB97XD) =  -2048.74310798     A.U. after   15 cycles

 The electronic state is 1-A.
 Alpha  occ. eigenvalues --  -19.25857 -19.21776 -19.20779 -14.52402 -14.52030
 Alpha  occ. eigenvalues --  -14.48883 -14.48882 -14.47827 -14.47061 -14.46795
 Alpha  occ. eigenvalues --  -14.46698 -14.44992 -14.43628 -14.43502 -14.42170
 Alpha  occ. eigenvalues --  -14.42119 -14.41315 -14.41024 -14.40967 -14.40310
 Alpha  occ. eigenvalues --  -10.45447 -10.41363 -10.40217 -10.39029 -10.38391
 Alpha  occ. eigenvalues --  -10.37586 -10.37548 -10.36654 -10.35441 -10.35411
 Alpha  occ. eigenvalues --  -10.35177 -10.34468 -10.34056 -10.33667 -10.33446
 Alpha  occ. eigenvalues --  -10.33418 -10.33167 -10.32030 -10.31338 -10.30950
 Alpha  occ. eigenvalues --  -10.30804 -10.28521 -10.28223  -1.19430  -1.14730
 Alpha  occ. eigenvalues --   -1.13333  -1.13204  -1.11398  -1.10702  -1.09286
 Alpha  occ. eigenvalues --   -1.08699  -1.08467  -1.05077  -1.03988  -1.02546
 Alpha  occ. eigenvalues --   -1.00457  -1.00428  -0.99870  -0.98655  -0.97003
 Alpha  occ. eigenvalues --   -0.96681  -0.96068  -0.92725  -0.90901  -0.87104
 Alpha  occ. eigenvalues --   -0.85475  -0.84212  -0.84054  -0.83732  -0.82597
 Alpha  occ. eigenvalues --   -0.82449  -0.78793  -0.76387  -0.74747  -0.74183
 Alpha  occ. eigenvalues --   -0.73757  -0.73364  -0.72951  -0.71103  -0.69715
 Alpha  occ. eigenvalues --   -0.67506  -0.66496  -0.66347  -0.66100  -0.64505
 Alpha  occ. eigenvalues --   -0.63860  -0.63512  -0.62758  -0.62733  -0.61877
 Alpha  occ. eigenvalues --   -0.60769  -0.60339  -0.59819  -0.59374  -0.58873
 Alpha  occ. eigenvalues --   -0.58652  -0.58495  -0.57025  -0.56624  -0.56360
 Alpha  occ. eigenvalues --   -0.56005  -0.55444  -0.54983  -0.54785  -0.54354
 Alpha  occ. eigenvalues --   -0.53779  -0.53620  -0.53097  -0.53049  -0.52765
 Alpha  occ. eigenvalues --   -0.52510  -0.52249  -0.51927  -0.50947  -0.50337
 Alpha  occ. eigenvalues --   -0.50283  -0.49763  -0.49537  -0.49463  -0.48941
 Alpha  occ. eigenvalues --   -0.48841  -0.48483  -0.47735  -0.47585  -0.47503
 Alpha  occ. eigenvalues --   -0.47025  -0.45957  -0.44974  -0.43973  -0.43185
 Alpha  occ. eigenvalues --   -0.41164  -0.40148  -0.39443  -0.37524  -0.37372
 Alpha  occ. eigenvalues --   -0.37326  -0.37144  -0.36886  -0.35970  -0.34405
 Alpha  occ. eigenvalues --   -0.34095  -0.33742  -0.33527  -0.33378  -0.33258
 Alpha  occ. eigenvalues --   -0.32709  -0.32407  -0.31972  -0.31858  -0.30954
 Alpha  occ. eigenvalues --   -0.30481  -0.28879  -0.25867  -0.25463
 Alpha virt. eigenvalues --    0.03335   0.04554   0.07632   0.07816   0.08144
 Alpha virt. eigenvalues --    0.09048   0.09632   0.10598   0.10999   0.12030
 Alpha virt. eigenvalues --    0.13338   0.13379   0.14289   0.14354   0.14882

 Mulliken charges:
               1
     1  N   -0.308675
     2  C    0.179633
     3  C    0.058548
     4  N   -0.244517
     5  C    0.124836
     6  H    0.024977
     7  N   -0.293539
     8  C    0.135678
     9  H    0.011923
    10  N   -0.291246
    11  C    0.231326
    12  C    0.092809
    13  N   -0.042613
    14  H    0.113711
    15  H    0.088915
    16  H    0.027434
    17  H    0.034202
    18  H    0.019214
    19  N   -0.306467
    20  C    0.259308
    21  C    0.182549
    22  N   -0.122877
    23  H    0.116973
    24  H    0.118731
    25  N   -0.310640
    26  C    0.246155
    27  N   -0.148649
    28  H    0.120657
    29  C    0.192730
    30  O   -0.326670
    31  C   -0.023064
    32  N   -0.216002
    33  C    0.127131
    34  H    0.019226
    35  H    0.026271
    36  H    0.030226
    37  H    0.022929
    38  H    0.049546
    39  H    0.061522
    40  H    0.075432
    41  H    0.022861
    42  C   -0.102204
    43  O   -0.285634
    44  C    0.146573
    45  H    0.133362
    46  N   -0.105782
    47  O   -0.346010
    48  C    0.341245
    49  H    0.043971
    50  C    0.186444
    51  C    0.043186
    52  N   -0.278880
    53  H    0.033847
    54  H    0.042011
    55  H    0.020216
    56  H    0.128960
    57  H    0.114581
    58  N   -0.035851
    59  C    0.080546
    60  C    0.239871
    61  N   -0.271472
    62  H    0.031393
    63  C    0.160683
    64  N   -0.300105
    65  H    0.033222
    66  C    0.115323
    67  N   -0.253850
    68  C    0.028991
    69  C    0.181982
    70  N   -0.307114
 Sum of Mulliken charges =  -0.00000

 Dipole moment (field-independent basis, Debye):
    X=              5.9132    Y=              5.6716    Z=              4.8629  Tot=              9.5279
 Quadrupole moment (field-independent basis, Debye-Ang):
   XX=           -145.8119   YY=           -226.1888   ZZ=           -255.9847
   XY=              7.4355   XZ=              8.3571   YZ=              6.9495

 Normal termination of Gaussian 16 at Fri Jan 19 18:09:20 2018.
