 Gaussian 16, Revision A.03,
 Gaussian 16:  EM64L-G16RevA.03 25-Dec-2016

 ---------------------------------------
 #p wb97xd/cc-pvdz sp scf=(maxcycles=20)
 ---------------------------------------

 ------------------
 Base pair stacking
 ------------------
 Symbolic Z-matrix:
 Charge =  0 Multiplicity = 1

                         Standard orientation:
 ---------------------------------------------------------------------
 Center     Atomic      Atomic             Coordinates (Angstroms)
 Number     Number       Type             X           Y           Z
 ---------------------------------------------------------------------
      1          7           0        4.228358   -1.680241   -1.771306
      2          6           0        5.517651   -1.230873   -2.331473
      3          6           0        2.095650   -1.839838   -1.258079
      4          7           0        2.727499   -2.900614   -0.625418
      5          6           0        3.987088   -2.761998   -0.959939
      6          1           0        4.790264   -3.426486   -0.640078
      7          7           0        0.457017   -0.325637   -2.022931
      8          6           0        1.448378    0.308165   -2.657819
      9          1           0        1.149356    1.188497   -3.225144
     10          7           0        2.747541    0.019150   -2.696916
     11          6           0        3.007882   -1.078850   -1.968181
     12          6           0        0.751432   -1.427049   -1.298175
     13          7           0       -0.236804   -2.061103   -0.663701
     14          1           0       -0.064879   -2.880461   -0.115702
     15          1           0       -1.182185   -1.738896   -0.714490
     16          1           0        5.904573   -1.954504   -2.903183
     17          1           0        5.373812   -0.411116   -2.885036
     18          1           0        6.151910   -1.021426   -1.587266
     19          7           0        5.824116    1.253689    0.519625
     20          6           0        4.471547    1.479399    0.607199
     21          6           0        6.813547    2.200348   -0.033154
     22          7           0        1.725664    3.539662    0.080731
     23          1           0        0.738149    3.505619    0.232068
     24          1           0        2.092414    4.371960   -0.335793
     25          7           0        3.824361    2.594929    0.206202
     26          6           0        2.523080    2.515736    0.420719
     27          7           0        1.901200    1.428198    0.984669
     28          1           0        0.901048    1.455262    1.110890
     29          6           0        2.547206    0.269709    1.404720
     30          8           0        1.892289   -0.654901    1.901616
     31          6           0        3.945699    0.339939    1.180711
     32          7           0        4.947973   -0.582559    1.447818
     33          6           0        6.042030    0.001367    1.040049
     34          1           0        7.038428   -0.438370    1.095745
     35          1           0        7.279396    1.781338   -0.811748
     36          1           0        6.345741    3.030539   -0.333494
     37          1           0        7.484100    2.432905    0.670474
     38          1           0       -4.153688    1.952464    0.876117
     39          1           0       -3.980744    2.394971    2.572854
     40          1           0       -2.693847    2.774574    1.427803
     41          1           0       -3.600209   -2.391977    2.867621
     42          6           0       -2.994130   -1.532269    2.581631
     43          8           0       -0.940141   -2.714821    2.680681
     44          6           0       -1.574742   -1.680414    2.475592
     45          1           0        0.101561   -0.597434    2.022297
     46          7           0       -0.903005   -0.532093    2.107645
     47          8           0       -0.772151    1.658407    1.523027
     48          6           0       -1.450651    0.698109    1.842625
     49          1           0       -4.631999   -0.179979    2.395899
     50          6           0       -3.557427   -0.344971    2.329400
     51          6           0       -3.454862    2.055722    1.692845
     52          7           0       -2.824678    0.761175    1.966229
     53          1           0       -6.840895    2.600207   -2.951465
     54          1           0       -5.412311    3.061703   -2.312519
     55          1           0       -6.790092    3.262579   -1.460797
     56          1           0       -3.579876   -3.164792    0.394575
     57          1           0       -5.272332   -2.953994    0.359180
     58          7           0       -4.362416   -2.586255    0.164175
     59          6           0       -4.200821   -1.377949   -0.379008
     60          6           0       -4.941280    0.697457   -1.276865
     61          7           0       -3.707443    1.165577   -1.527713
     62          1           0       -1.754269    0.575889   -1.332737
     63          6           0       -2.787210    0.274954   -1.163200
     64          7           0       -2.947035   -0.935782   -0.618998
     65          1           0       -8.172466    0.706374   -1.169349
     66          6           0       -7.113381    0.457791   -1.095288
     67          7           0       -6.643780   -0.666068   -0.611453
     68          6           0       -5.267739   -0.527155   -0.720738
     69          6           0       -6.309045    2.670578   -2.107560
     70          7           0       -6.138621    1.329060   -1.516567
 ---------------------------------------------------------------------

 SCF Done:  E(RwB97XD) =  -2048.74899469     A.U. after   15 cycles

 The electronic state is 1-A.
 Alpha  occ. eigenvalues --  -19.25279 -19.21659 -19.20802 -14.52653 -14.51741
 Alpha  occ. eigenvalues --  -14.49574 -14.48319 -14.48318 -14.47285 -14.47075
 Alpha  occ. eigenvalues --  -14.46879 -14.45524 -14.44787 -14.44731 -14.42622
 Alpha  occ. eigenvalues --  -14.42294 -14.41803 -14.41101 -14.40727 -14.40623
 Alpha  occ. eigenvalues --  -10.44855 -10.41532 -10.40236 -10.39693 -10.38536
 Alpha  occ. eigenvalues --  -10.38129 -10.37541 -10.37044 -10.36231 -10.35645
 Alpha  occ. eigenvalues --  -10.34951 -10.34326 -10.34160 -10.33983 -10.33573
 Alpha  occ. eigenvalues --  -10.33261 -10.33260 -10.33056 -10.31663 -10.30682
 Alpha  occ. eigenvalues --  -10.30432 -10.28701 -10.28446  -1.18824  -1.15428
 Alpha  occ. eigenvalues --   -1.13546  -1.12637  -1.11200  -1.10971  -1.09712
 Alpha  occ. eigenvalues --   -1.08846  -1.08586  -1.05242  -1.05161  -1.01917
 Alpha  occ. eigenvalues --   -1.01129  -1.00612  -0.99994  -0.98962  -0.97274
 Alpha  occ. eigenvalues --   -0.97243  -0.96584  -0.92926  -0.90410  -0.87906
 Alpha  occ. eigenvalues --   -0.86057  -0.84753  -0.83726  -0.83188  -0.82865
 Alpha  occ. eigenvalues --   -0.82122  -0.78304  -0.77270  -0.75162  -0.75133
 Alpha  occ. eigenvalues --   -0.73942  -0.72860  -0.72764  -0.71070  -0.70654
 Alpha  occ. eigenvalues --   -0.67758  -0.67068  -0.66261  -0.66004  -0.64756
 Alpha  occ. eigenvalues --   -0.64463  -0.63522  -0.62915  -0.62710  -0.62138
 Alpha  occ. eigenvalues --   -0.60756  -0.60599  -0.60260  -0.59647  -0.59017
 Alpha  occ. eigenvalues --   -0.58958  -0.58598  -0.57663  -0.56523  -0.55845
 Alpha  occ. eigenvalues --   -0.55815  -0.55660  -0.55374  -0.54625  -0.54339
 Alpha  occ. eigenvalues --   -0.53913  -0.53821  -0.53503  -0.53296  -0.53009
 Alpha  occ. eigenvalues --   -0.52690  -0.51775  -0.51549  -0.50680  -0.50560
 Alpha  occ. eigenvalues --   -0.50352  -0.50024  -0.49710  -0.49399  -0.48998
 Alpha  occ. eigenvalues --   -0.48842  -0.48408  -0.48361  -0.47671  -0.47312
 Alpha  occ. eigenvalues --   -0.46874  -0.45749  -0.45637  -0.45078  -0.42679
 Alpha  occ. eigenvalues --   -0.41260  -0.40958  -0.39085  -0.38112  -0.37835
 Alpha  occ. eigenvalues --   -0.37793  -0.37565  -0.37000  -0.35468  -0.35058
 Alpha  occ. eigenvalues --   -0.34719  -0.34259  -0.33432  -0.33377  -0.33260
 Alpha  occ. eigenvalues --   -0.33087  -0.32724  -0.32136  -0.31174  -0.30789
 Alpha  occ. eigenvalues --   -0.30534  -0.30393  -0.26282  -0.25573
 Alpha virt. eigenvalues --    0.02458   0.04800   0.06570   0.07968   0.08512
 Alpha virt. eigenvalues --    0.09013   0.09475   0.10270   0.10855   0.12263
 Alpha virt. eigenvalues --    0.13187   0.13446   0.14098   0.14508   0.14960

 Mulliken charges:
               1
     1  N   -0.302484
     2  C    0.185891
     3  C    0.044953
     4  N   -0.245773
     5  C    0.153097
     6  H    0.027322
     7  N   -0.296190
     8  C    0.127241
     9  H    0.008569
    10  N   -0.281962
    11  C    0.237545
    12  C    0.081368
    13  N   -0.062387
    14  H    0.119315
    15  H    0.088949
    16  H    0.024210
    17  H    0.031725
    18  H    0.013089
    19  N   -0.309278
    20  C    0.256678
    21  C    0.182720
    22  N   -0.122731
    23  H    0.119394
    24  H    0.119570
    25  N   -0.310363
    26  C    0.250880
    27  N   -0.143367
    28  H    0.120145
    29  C    0.192972
    30  O   -0.317149
    31  C   -0.014724
    32  N   -0.220097
    33  C    0.103673
    34  H    0.025841
    35  H    0.020967
    36  H    0.033378
    37  H    0.027132
    38  H    0.057610
    39  H    0.054482
    40  H    0.074558
    41  H    0.015273
    42  C   -0.106729
    43  O   -0.274766
    44  C    0.170147
    45  H    0.131830
    46  N   -0.123640
    47  O   -0.351979
    48  C    0.345030
    49  H    0.045801
    50  C    0.165698
    51  C    0.044929
    52  N   -0.275648
    53  H    0.035135
    54  H    0.041817
    55  H    0.029840
    56  H    0.126259
    57  H    0.117494
    58  N   -0.051361
    59  C    0.078385
    60  C    0.225153
    61  N   -0.263128
    62  H    0.035180
    63  C    0.162941
    64  N   -0.305028
    65  H    0.039800
    66  C    0.140853
    67  N   -0.259989
    68  C    0.035935
    69  C    0.179182
    70  N   -0.311186
 Sum of Mulliken charges =  -0.00000

 Dipole moment (field-independent basis, Debye):
    X=             -5.9465    Y=              7.6175    Z=             -2.4850  Tot=              9.9781
 Quadrupole moment (field-independent basis, Debye-Ang):
   XX=           -149.0291   YY=           -225.5159   ZZ=           -256.6541
   XY=             -4.6282   XZ=            -13.1641   YZ=              6.0854

 Normal termination of Gaussian 16 at Fri Jan 19 17:44:47 2018.
