 Gaussian 16, Revision A.03,
 Gaussian 16:  EM64L-G16RevA.03 25-Dec-2016

 ---------------------------------------
 #p wb97xd/cc-pvdz sp scf=(maxcycles=20)
 ---------------------------------------

 ------------------
 Base pair stacking
 ------------------
 Symbolic Z-matrix:
 Charge =  0 Multiplicity = 1

                         Standard orientation:
 ---------------------------------------------------------------------
 Center     Atomic      Atomic             Coordinates (Angstroms)
 Number     Number       Type             X           Y           Z
 ---------------------------------------------------------------------
      1          7           0       -6.876971   -0.951902    0.305952
      2          6           0       -8.176493   -0.268322    0.454112
      3          6           0       -4.735229   -1.445683    0.386146
      4          7           0       -5.354792   -2.508552   -0.255086
      5          6           0       -6.620321   -2.168529   -0.277733
      6          1           0       -7.417110   -2.773280   -0.711713
      7          7           0       -3.111741   -0.038880    1.359884
      8          6           0       -4.114859    0.801325    1.634459
      9          1           0       -3.826762    1.717170    2.148732
     10          7           0       -5.414320    0.680629    1.370374
     11          6           0       -5.660672   -0.478538    0.737867
     12          6           0       -3.392240   -1.196683    0.722774
     13          7           0       -2.392254   -2.036679    0.447815
     14          1           0       -2.553684   -2.905038   -0.022405
     15          1           0       -1.448177   -1.826752    0.702336
     16          1           0       -8.797037   -0.841473    0.989455
     17          1           0       -8.043253    0.604690    0.922336
     18          1           0       -8.573473   -0.103213   -0.448744
     19          7           0       -3.102605    1.865311   -1.445254
     20          6           0       -1.751844    1.909439   -1.197153
     21          6           0       -4.068870    2.927783   -1.101489
     22          7           0        1.021843    3.576585    0.063422
     23          1           0        2.004125    3.413010    0.150616
     24          1           0        0.673139    4.444452    0.418282
     25          7           0       -1.085727    2.922671   -0.602430
     26          6           0        0.207984    2.673330   -0.503735
     27          7           0        0.805632    1.520530   -0.952507
     28          1           0        1.801693    1.415464   -0.835111
     29          6           0        0.139842    0.464834   -1.567397
     30          8           0        0.773573   -0.531883   -1.935741
     31          6           0       -1.250811    0.718159   -1.680488
     32          7           0       -2.266582   -0.058241   -2.221159
     33          6           0       -3.344124    0.660836   -2.059708
     34          1           0       -4.344556    0.359044   -2.371676
     35          1           0       -4.758716    2.563816   -0.476641
     36          1           0       -3.586911    3.683673   -0.660336
     37          1           0       -4.513841    3.257816   -1.933290
     38          1           0        6.669631    1.229277    0.621330
     39          1           0        6.970682    1.714907   -1.045459
     40          1           0        5.503032    2.246843   -0.224230
     41          1           0        6.071713   -2.973581   -1.642508
     42          6           0        5.527911   -2.044717   -1.470099
     43          8           0        3.426913   -2.940628   -2.110603
     44          6           0        4.118199   -2.003326   -1.712661
     45          1           0        2.532579   -0.712558   -1.622974
     46          7           0        3.527822   -0.780856   -1.463116
     47          8           0        3.536741    1.398985   -0.826398
     48          6           0        4.145638    0.361246   -1.018778
     49          1           0        7.229066   -0.926225   -0.836966
     50          6           0        6.158483   -0.947047   -1.036395
     51          6           0        6.208565    1.436563   -0.332877
     52          7           0        5.505245    0.241845   -0.807994
     53          1           0        4.116136    2.095640    3.785556
     54          1           0        2.972063    2.619993    2.747174
     55          1           0        4.527629    2.517478    2.263673
     56          1           0        0.892567   -3.687135    0.433908
     57          1           0        2.538875   -3.678821    0.880776
     58          7           0        1.677583   -3.178172    0.787244
     59          6           0        1.581225   -1.889121    1.119245
     60          6           0        2.399709    0.196845    1.919614
     61          7           0        1.230293    0.843662    1.783481
     62          1           0       -0.686771    0.470341    1.162122
     63          6           0        0.296729    0.024340    1.303828
     64          7           0        0.391263   -1.267038    0.970690
     65          1           0        5.523295   -0.200483    2.652732
     66          6           0        4.487310   -0.328192    2.337516
     67          7           0        3.977761   -1.449134    1.888590
     68          6           0        2.654601   -1.130082    1.619906
     69          6           0        3.819448    2.096455    2.830587
     70          7           0        3.588288    0.709312    2.382909
 ---------------------------------------------------------------------

 SCF Done:  E(RwB97XD) =  -2048.74934446     A.U. after   15 cycles

 The electronic state is 1-A.
 Alpha  occ. eigenvalues --  -19.26054 -19.22008 -19.20559 -14.52552 -14.51378
 Alpha  occ. eigenvalues --  -14.49784 -14.48411 -14.47871 -14.46647 -14.46520
 Alpha  occ. eigenvalues --  -14.46437 -14.44313 -14.42889 -14.42887 -14.42820
 Alpha  occ. eigenvalues --  -14.42422 -14.42019 -14.41930 -14.41061 -14.40647
 Alpha  occ. eigenvalues --  -10.45604 -10.41023 -10.40086 -10.38442 -10.38124
 Alpha  occ. eigenvalues --  -10.37637 -10.36968 -10.36314 -10.35931 -10.35907
 Alpha  occ. eigenvalues --  -10.35063 -10.34573 -10.34407 -10.34180 -10.34044
 Alpha  occ. eigenvalues --  -10.33433 -10.33075 -10.31829 -10.31297 -10.30967
 Alpha  occ. eigenvalues --  -10.30070 -10.29560 -10.27970  -1.19600  -1.14054
 Alpha  occ. eigenvalues --   -1.13115  -1.13025  -1.12380  -1.10380  -1.09425
 Alpha  occ. eigenvalues --   -1.08435  -1.07794  -1.05935  -1.03338  -1.02539
 Alpha  occ. eigenvalues --   -1.01345  -0.99834  -0.99594  -0.98392  -0.97905
 Alpha  occ. eigenvalues --   -0.96276  -0.95420  -0.93559  -0.91001  -0.86537
 Alpha  occ. eigenvalues --   -0.85034  -0.84910  -0.84037  -0.83824  -0.83245
 Alpha  occ. eigenvalues --   -0.82031  -0.78883  -0.75813  -0.74426  -0.73812
 Alpha  occ. eigenvalues --   -0.73564  -0.73507  -0.73375  -0.72025  -0.69179
 Alpha  occ. eigenvalues --   -0.67233  -0.67209  -0.66575  -0.65502  -0.64454
 Alpha  occ. eigenvalues --   -0.63651  -0.63567  -0.63001  -0.62565  -0.61569
 Alpha  occ. eigenvalues --   -0.61026  -0.60518  -0.59520  -0.59385  -0.58526
 Alpha  occ. eigenvalues --   -0.58361  -0.58205  -0.57414  -0.57337  -0.56415
 Alpha  occ. eigenvalues --   -0.56137  -0.56014  -0.54688  -0.54397  -0.54393
 Alpha  occ. eigenvalues --   -0.53691  -0.53450  -0.52890  -0.52778  -0.52661
 Alpha  occ. eigenvalues --   -0.52455  -0.52175  -0.51689  -0.51606  -0.51061
 Alpha  occ. eigenvalues --   -0.49965  -0.49940  -0.49467  -0.48807  -0.48631
 Alpha  occ. eigenvalues --   -0.48565  -0.48140  -0.47887  -0.47817  -0.47610
 Alpha  occ. eigenvalues --   -0.47319  -0.45796  -0.45294  -0.44036  -0.43308
 Alpha  occ. eigenvalues --   -0.42068  -0.39703  -0.39550  -0.38172  -0.37165
 Alpha  occ. eigenvalues --   -0.37126  -0.36872  -0.36258  -0.35444  -0.34533
 Alpha  occ. eigenvalues --   -0.34431  -0.34262  -0.33285  -0.33193  -0.32973
 Alpha  occ. eigenvalues --   -0.32598  -0.32276  -0.31865  -0.31799  -0.31711
 Alpha  occ. eigenvalues --   -0.31288  -0.28347  -0.26724  -0.25289
 Alpha virt. eigenvalues --    0.03171   0.05036   0.06957   0.08286   0.08599
 Alpha virt. eigenvalues --    0.09138   0.09746   0.10081   0.10799   0.11814
 Alpha virt. eigenvalues --    0.12958   0.13158   0.14582   0.14756   0.15254

 Mulliken charges:
               1
     1  N   -0.310867
     2  C    0.180272
     3  C    0.043800
     4  N   -0.254951
     5  C    0.130995
     6  H    0.029552
     7  N   -0.274096
     8  C    0.128743
     9  H    0.018988
    10  N   -0.291952
    11  C    0.232146
    12  C    0.098596
    13  N   -0.040833
    14  H    0.108493
    15  H    0.088651
    16  H    0.028479
    17  H    0.035131
    18  H    0.025820
    19  N   -0.298462
    20  C    0.248474
    21  C    0.181240
    22  N   -0.108811
    23  H    0.110654
    24  H    0.115545
    25  N   -0.298920
    26  C    0.228212
    27  N   -0.122377
    28  H    0.118039
    29  C    0.145358
    30  O   -0.323088
    31  C    0.004282
    32  N   -0.225126
    33  C    0.118752
    34  H    0.026633
    35  H    0.021906
    36  H    0.025651
    37  H    0.020689
    38  H    0.047923
    39  H    0.065466
    40  H    0.078049
    41  H    0.029964
    42  C   -0.092793
    43  O   -0.271919
    44  C    0.178102
    45  H    0.135570
    46  N   -0.128575
    47  O   -0.347582
    48  C    0.343944
    49  H    0.045107
    50  C    0.171792
    51  C    0.033886
    52  N   -0.284339
    53  H    0.032661
    54  H    0.035354
    55  H    0.013192
    56  H    0.119706
    57  H    0.119998
    58  N   -0.054103
    59  C    0.123445
    60  C    0.229725
    61  N   -0.274293
    62  H    0.041145
    63  C    0.162424
    64  N   -0.302492
    65  H    0.027242
    66  C    0.114530
    67  N   -0.249371
    68  C    0.009178
    69  C    0.181011
    70  N   -0.299563
 Sum of Mulliken charges =  -0.00000

 Dipole moment (field-independent basis, Debye):
    X=              5.3378    Y=              5.7747    Z=              3.9479  Tot=              8.7991
 Quadrupole moment (field-independent basis, Debye-Ang):
   XX=           -140.0547   YY=           -226.4683   ZZ=           -256.9271
   XY=             14.6969   XZ=             17.6173   YZ=             -4.2886

 Normal termination of Gaussian 16 at Fri Jan 19 12:41:09 2018.
