 Gaussian 16, Revision A.03,
 Gaussian 16:  EM64L-G16RevA.03 25-Dec-2016

 ---------------------------------------
 #p wb97xd/cc-pvdz sp scf=(maxcycles=20)
 ---------------------------------------

 ------------------
 Base pair stacking
 ------------------
 Symbolic Z-matrix:
 Charge =  0 Multiplicity = 1

                         Standard orientation:
 ---------------------------------------------------------------------
 Center     Atomic      Atomic             Coordinates (Angstroms)
 Number     Number       Type             X           Y           Z
 ---------------------------------------------------------------------
      1          7           0        4.550700   -1.317811   -1.787589
      2          6           0        5.860261   -0.741601   -2.149605
      3          6           0        2.396942   -1.603442   -1.445472
      4          7           0        3.011381   -2.785910   -1.059517
      5          6           0        4.284346   -2.566507   -1.281080
      6          1           0        5.079984   -3.287528   -1.091258
      7          7           0        0.777074    0.048875   -1.902458
      8          6           0        1.790168    0.821584   -2.307604
      9          1           0        1.507470    1.813810   -2.656628
     10          7           0        3.093917    0.553896   -2.346148
     11          6           0        3.332970   -0.689106   -1.896458
     12          6           0        1.050411   -1.196394   -1.455619
     13          7           0        0.040468   -1.969232   -1.050762
     14          1           0        0.196327   -2.897889   -0.712345
     15          1           0       -0.905862   -1.646497   -1.071921
     16          1           0        6.287452   -1.301432   -2.859731
     17          1           0        5.732731    0.188864   -2.491784
     18          1           0        6.451725   -0.720376   -1.343547
     19          7           0        5.537838    1.181109    0.801715
     20          6           0        4.178873    1.375824    0.859652
     21          6           0        6.525973    2.185095    0.358670
     22          7           0        1.411400    3.423137    0.399908
     23          1           0        0.420290    3.360264    0.513868
     24          1           0        1.775083    4.291699    0.062197
     25          7           0        3.523212    2.507936    0.524273
     26          6           0        2.217369    2.389695    0.686803
     27          7           0        1.598953    1.250767    1.142776
     28          1           0        0.594828    1.250553    1.236006
     29          6           0        2.253661    0.074317    1.493750
     30          8           0        1.601201   -0.897537    1.894412
     31          6           0        3.657131    0.186053    1.324437
     32          7           0        4.668201   -0.737035    1.553692
     33          6           0        5.763311   -0.104145    1.230594
     34          1           0        6.765892   -0.529574    1.286467
     35          1           0        7.025667    1.836424   -0.433498
     36          1           0        6.051914    3.028024    0.107653
     37          1           0        7.168038    2.373460    1.101022
     38          1           0       -4.458255    1.677035    0.865643
     39          1           0       -4.350559    1.988349    2.596579
     40          1           0       -3.034212    2.478600    1.529690
     41          1           0       -3.884566   -2.799678    2.531900
     42          6           0       -3.286600   -1.909865    2.334661
     43          8           0       -1.213838   -3.060821    2.412698
     44          6           0       -1.861808   -2.024673    2.266664
     45          1           0       -0.193334   -0.880696    1.957103
     46          7           0       -1.201292   -0.839627    2.012431
     47          8           0       -1.094848    1.391840    1.604476
     48          6           0       -1.764269    0.397879    1.824898
     49          1           0       -4.944070   -0.575742    2.197844
     50          6           0       -3.864813   -0.716404    2.155991
     51          6           0       -3.789107    1.728156    1.711627
     52          7           0       -3.142630    0.427279    1.905366
     53          1           0       -6.507038    3.097394   -2.477358
     54          1           0       -5.120830    3.390542   -1.668298
     55          1           0       -6.543902    3.372636   -0.869165
     56          1           0       -3.335625   -3.306683   -0.478512
     57          1           0       -5.027009   -3.097331   -0.552573
     58          7           0       -4.113965   -2.690938   -0.601744
     59          6           0       -3.943039   -1.385767   -0.821918
     60          6           0       -4.667807    0.845165   -1.221181
     61          7           0       -3.429974    1.363292   -1.282215
     62          1           0       -1.480696    0.748010   -1.132665
     63          6           0       -2.516278    0.412356   -1.098395
     64          7           0       -2.685461   -0.895414   -0.877736
     65          1           0       -7.899967    0.820333   -1.289773
     66          6           0       -6.842450    0.563468   -1.221850
     67          7           0       -6.381323   -0.643877   -1.004220
     68          6           0       -5.003766   -0.479358   -1.001408
     69          6           0       -6.020867    2.959064   -1.614521
     70          7           0       -5.860680    1.513727   -1.362832
 ---------------------------------------------------------------------

 SCF Done:  E(RwB97XD) =  -2048.74991023     A.U. after   15 cycles

 The electronic state is 1-A.
 Alpha  occ. eigenvalues --  -19.25207 -19.21512 -19.20688 -14.52836 -14.51674
 Alpha  occ. eigenvalues --  -14.49370 -14.48618 -14.48347 -14.47195 -14.46856
 Alpha  occ. eigenvalues --  -14.46713 -14.45665 -14.44740 -14.44682 -14.42785
 Alpha  occ. eigenvalues --  -14.42029 -14.41563 -14.41260 -14.41056 -14.40767
 Alpha  occ. eigenvalues --  -10.44791 -10.41279 -10.40298 -10.39566 -10.38368
 Alpha  occ. eigenvalues --  -10.38245 -10.37583 -10.36986 -10.36246 -10.35816
 Alpha  occ. eigenvalues --  -10.34700 -10.34172 -10.34074 -10.33949 -10.33884
 Alpha  occ. eigenvalues --  -10.33475 -10.33426 -10.33100 -10.31522 -10.31046
 Alpha  occ. eigenvalues --  -10.30382 -10.28640 -10.28475  -1.18776  -1.15586
 Alpha  occ. eigenvalues --   -1.13355  -1.12494  -1.11243  -1.10996  -1.09714
 Alpha  occ. eigenvalues --   -1.08679  -1.08506  -1.05407  -1.05189  -1.01824
 Alpha  occ. eigenvalues --   -1.01258  -1.00784  -0.99794  -0.98733  -0.97311
 Alpha  occ. eigenvalues --   -0.97030  -0.96852  -0.93097  -0.90313  -0.88008
 Alpha  occ. eigenvalues --   -0.86202  -0.84573  -0.83967  -0.83021  -0.82752
 Alpha  occ. eigenvalues --   -0.82414  -0.78195  -0.77350  -0.75234  -0.74939
 Alpha  occ. eigenvalues --   -0.73738  -0.73063  -0.72689  -0.71273  -0.70721
 Alpha  occ. eigenvalues --   -0.67563  -0.67115  -0.66481  -0.65905  -0.64577
 Alpha  occ. eigenvalues --   -0.64513  -0.63427  -0.62940  -0.62723  -0.61952
 Alpha  occ. eigenvalues --   -0.61023  -0.60802  -0.60599  -0.59775  -0.58918
 Alpha  occ. eigenvalues --   -0.58861  -0.58444  -0.57865  -0.56760  -0.55858
 Alpha  occ. eigenvalues --   -0.55785  -0.55668  -0.55522  -0.54477  -0.54203
 Alpha  occ. eigenvalues --   -0.54008  -0.53904  -0.53378  -0.53159  -0.53065
 Alpha  occ. eigenvalues --   -0.52699  -0.51837  -0.51613  -0.50662  -0.50537
 Alpha  occ. eigenvalues --   -0.50389  -0.50183  -0.49513  -0.49243  -0.49045
 Alpha  occ. eigenvalues --   -0.48796  -0.48298  -0.48230  -0.47735  -0.47170
 Alpha  occ. eigenvalues --   -0.47109  -0.45818  -0.45564  -0.45091  -0.42516
 Alpha  occ. eigenvalues --   -0.41375  -0.41029  -0.38948  -0.38145  -0.37894
 Alpha  occ. eigenvalues --   -0.37661  -0.37358  -0.37105  -0.35641  -0.35020
 Alpha  occ. eigenvalues --   -0.34635  -0.34166  -0.33610  -0.33480  -0.33101
 Alpha  occ. eigenvalues --   -0.32927  -0.32602  -0.32005  -0.31079  -0.30959
 Alpha  occ. eigenvalues --   -0.30693  -0.30503  -0.26503  -0.25310
 Alpha virt. eigenvalues --    0.02859   0.04491   0.06582   0.07599   0.08643
 Alpha virt. eigenvalues --    0.09030   0.09661   0.10133   0.10758   0.12468
 Alpha virt. eigenvalues --    0.13013   0.13620   0.14050   0.14480   0.14715

 Mulliken charges:
               1
     1  N   -0.299349
     2  C    0.184468
     3  C    0.053715
     4  N   -0.249918
     5  C    0.150546
     6  H    0.026795
     7  N   -0.289841
     8  C    0.124440
     9  H    0.007836
    10  N   -0.276939
    11  C    0.233659
    12  C    0.079445
    13  N   -0.056629
    14  H    0.116387
    15  H    0.086707
    16  H    0.025872
    17  H    0.033498
    18  H    0.008034
    19  N   -0.305853
    20  C    0.255537
    21  C    0.184176
    22  N   -0.118728
    23  H    0.119788
    24  H    0.118967
    25  N   -0.300722
    26  C    0.231613
    27  N   -0.132040
    28  H    0.120411
    29  C    0.184536
    30  O   -0.319173
    31  C   -0.012411
    32  N   -0.215229
    33  C    0.099049
    34  H    0.026105
    35  H    0.016096
    36  H    0.034021
    37  H    0.026709
    38  H    0.049291
    39  H    0.051972
    40  H    0.075251
    41  H    0.018447
    42  C   -0.100457
    43  O   -0.273112
    44  C    0.171913
    45  H    0.130869
    46  N   -0.120001
    47  O   -0.348122
    48  C    0.332240
    49  H    0.046558
    50  C    0.155947
    51  C    0.055256
    52  N   -0.273339
    53  H    0.036592
    54  H    0.041645
    55  H    0.029987
    56  H    0.124917
    57  H    0.118105
    58  N   -0.055566
    59  C    0.095107
    60  C    0.201208
    61  N   -0.258658
    62  H    0.030335
    63  C    0.168370
    64  N   -0.307913
    65  H    0.039442
    66  C    0.137876
    67  N   -0.256712
    68  C    0.038602
    69  C    0.178165
    70  N   -0.305792
 Sum of Mulliken charges =  -0.00000

 Dipole moment (field-independent basis, Debye):
    X=             -6.0112    Y=              7.4668    Z=             -2.4465  Tot=              9.8931
 Quadrupole moment (field-independent basis, Debye-Ang):
   XX=           -148.9451   YY=           -227.4265   ZZ=           -257.1321
   XY=             -4.2725   XZ=            -10.9410   YZ=             11.1602

 Normal termination of Gaussian 16 at Fri Jan 19 12:53:05 2018.
