 Gaussian 16, Revision A.03,
 Gaussian 16:  EM64L-G16RevA.03 25-Dec-2016

 ---------------------------------------
 #p wb97xd/cc-pvdz sp scf=(maxcycles=20)
 ---------------------------------------

 ------------------
 Base pair stacking
 ------------------
 Symbolic Z-matrix:
 Charge =  0 Multiplicity = 1

                         Standard orientation:
 ---------------------------------------------------------------------
 Center     Atomic      Atomic             Coordinates (Angstroms)
 Number     Number       Type             X           Y           Z
 ---------------------------------------------------------------------
      1          7           0       -5.770801   -1.499023    0.810954
      2          6           0       -7.089837   -0.977099    1.218078
      3          6           0       -3.604677   -1.814236    0.596776
      4          7           0       -4.216476   -2.761341   -0.211562
      5          6           0       -5.496997   -2.533532   -0.050167
      6          1           0       -6.293168   -3.095233   -0.539609
      7          7           0       -1.984617   -0.519389    1.720045
      8          6           0       -3.006640    0.152637    2.259893
      9          1           0       -2.727341    0.956110    2.940101
     10          7           0       -4.315722   -0.018052    2.086478
     11          6           0       -4.549926   -1.028915    1.233416
     12          6           0       -2.253282   -1.530823    0.865702
     13          7           0       -1.234416   -2.202827    0.325789
     14          1           0       -1.386547   -2.958906   -0.311722
     15          1           0       -0.284846   -1.973567    0.540013
     16          1           0       -7.614749   -1.703511    1.661892
     17          1           0       -6.966193   -0.218465    1.857071
     18          1           0       -7.586137   -0.654336    0.412149
     19          7           0       -4.331517    1.846756   -0.959323
     20          6           0       -2.967935    1.952576   -0.827036
     21          6           0       -5.319950    2.782463   -0.386489
     22          7           0       -0.186649    3.627310    0.406454
     23          1           0        0.807282    3.523376    0.383276
     24          1           0       -0.549120    4.412839    0.908730
     25          7           0       -2.307278    2.921337   -0.156901
     26          6           0       -0.997816    2.753107   -0.208112
     27          7           0       -0.380571    1.716159   -0.864809
     28          1           0        0.626589    1.666979   -0.851205
     29          6           0       -1.040395    0.708157   -1.560820
     30          8           0       -0.388555   -0.182764   -2.119479
     31          6           0       -2.447796    0.875397   -1.514744
     32          7           0       -3.464380    0.108758   -2.067657
     33          6           0       -4.561110    0.721635   -1.713010
     34          1           0       -5.567845    0.394488   -1.975174
     35          1           0       -5.923897    2.290044    0.239272
     36          1           0       -4.842220    3.504451    0.112274
     37          1           0       -5.861636    3.188868   -1.121480
     38          1           0        5.615100    1.631626    0.131725
     39          1           0        5.724938    2.356681   -1.470425
     40          1           0        4.315221    2.668437   -0.457080
     41          1           0        5.045657   -2.260944   -2.637785
     42          6           0        4.468172   -1.404434   -2.289767
     43          8           0        2.370545   -2.352539   -2.862637
     44          6           0        3.041591   -1.430625   -2.399423
     45          1           0        1.399944   -0.278957   -1.990784
     46          7           0        2.408258   -0.297559   -1.930072
     47          8           0        2.352365    1.772198   -0.997241
     48          6           0        2.998926    0.815355   -1.385934
     49          1           0        6.154886   -0.263602   -1.657853
     50          6           0        5.073045   -0.333104   -1.763472
     51          6           0        5.052705    1.932005   -0.739793
     52          7           0        4.377160    0.765184   -1.314156
     53          1           0        5.299770    1.645110    3.941522
     54          1           0        4.024952    2.283028    3.147796
     55          1           0        5.526817    2.420753    2.523686
     56          1           0        2.131319   -3.525067   -0.335832
     57          1           0        3.810510   -3.473816   -0.039513
     58          7           0        2.913777   -3.040011    0.054834
     59          6           0        2.768934   -1.866773    0.674284
     60          6           0        3.528573    0.057605    1.849631
     61          7           0        2.312236    0.616571    1.961474
     62          1           0        0.370021    0.225206    1.436859
     63          6           0        1.389440   -0.155514    1.391184
     64          7           0        1.532516   -1.330913    0.770265
     65          1           0        6.729458   -0.221961    2.207840
     66          6           0        5.677209   -0.365931    1.960896
     67          7           0        5.197867   -1.401888    1.316926
     68          6           0        3.836523   -1.145967    1.239621
     69          6           0        4.908324    1.827959    3.039673
     70          7           0        4.722599    0.556575    2.313658
 ---------------------------------------------------------------------

 SCF Done:  E(RwB97XD) =  -2048.75382876     A.U. after   15 cycles

 The electronic state is 1-A.
 Alpha  occ. eigenvalues --  -19.25636 -19.21746 -19.20638 -14.52264 -14.52233
 Alpha  occ. eigenvalues --  -14.49082 -14.48733 -14.47600 -14.47289 -14.46903
 Alpha  occ. eigenvalues --  -14.46630 -14.45229 -14.43901 -14.43806 -14.42471
 Alpha  occ. eigenvalues --  -14.41978 -14.41527 -14.41254 -14.40858 -14.40518
 Alpha  occ. eigenvalues --  -10.45236 -10.41216 -10.39945 -10.39378 -10.38253
 Alpha  occ. eigenvalues --  -10.37786 -10.37433 -10.36902 -10.35682 -10.35408
 Alpha  occ. eigenvalues --  -10.35283 -10.34321 -10.34258 -10.33924 -10.33623
 Alpha  occ. eigenvalues --  -10.33354 -10.33339 -10.32298 -10.31532 -10.30756
 Alpha  occ. eigenvalues --  -10.30685 -10.28732 -10.28085  -1.19235  -1.14987
 Alpha  occ. eigenvalues --   -1.13188  -1.12856  -1.11599  -1.10559  -1.09109
 Alpha  occ. eigenvalues --   -1.08766  -1.08547  -1.05298  -1.04267  -1.02306
 Alpha  occ. eigenvalues --   -1.00712  -1.00682  -0.99707  -0.98511  -0.97221
 Alpha  occ. eigenvalues --   -0.96536  -0.96342  -0.92957  -0.90735  -0.87364
 Alpha  occ. eigenvalues --   -0.85736  -0.84254  -0.84064  -0.83598  -0.82673
 Alpha  occ. eigenvalues --   -0.82414  -0.78598  -0.76656  -0.74623  -0.74422
 Alpha  occ. eigenvalues --   -0.73604  -0.73162  -0.73155  -0.71312  -0.69999
 Alpha  occ. eigenvalues --   -0.67356  -0.66576  -0.66347  -0.66310  -0.64337
 Alpha  occ. eigenvalues --   -0.63805  -0.63693  -0.62977  -0.62601  -0.61735
 Alpha  occ. eigenvalues --   -0.61126  -0.60572  -0.60099  -0.59241  -0.59138
 Alpha  occ. eigenvalues --   -0.58478  -0.58337  -0.57223  -0.56844  -0.56247
 Alpha  occ. eigenvalues --   -0.55809  -0.55697  -0.55064  -0.54662  -0.54180
 Alpha  occ. eigenvalues --   -0.53672  -0.53542  -0.53265  -0.52902  -0.52862
 Alpha  occ. eigenvalues --   -0.52510  -0.52373  -0.52143  -0.51093  -0.50536
 Alpha  occ. eigenvalues --   -0.50106  -0.49771  -0.49345  -0.49120  -0.49078
 Alpha  occ. eigenvalues --   -0.48738  -0.48327  -0.48045  -0.47451  -0.47335
 Alpha  occ. eigenvalues --   -0.47203  -0.45926  -0.45114  -0.44366  -0.43275
 Alpha  occ. eigenvalues --   -0.41368  -0.40386  -0.39256  -0.37533  -0.37375
 Alpha  occ. eigenvalues --   -0.37238  -0.37214  -0.37119  -0.36071  -0.34381
 Alpha  occ. eigenvalues --   -0.34237  -0.33969  -0.33610  -0.33560  -0.33060
 Alpha  occ. eigenvalues --   -0.32607  -0.32275  -0.31852  -0.31733  -0.31164
 Alpha  occ. eigenvalues --   -0.30711  -0.29300  -0.25999  -0.25423
 Alpha virt. eigenvalues --    0.03497   0.04266   0.07388   0.07605   0.08385
 Alpha virt. eigenvalues --    0.09080   0.09780   0.10599   0.10828   0.12094
 Alpha virt. eigenvalues --    0.13316   0.13501   0.13984   0.14452   0.14955

 Mulliken charges:
               1
     1  N   -0.307626
     2  C    0.177650
     3  C    0.064489
     4  N   -0.247383
     5  C    0.127334
     6  H    0.026022
     7  N   -0.291005
     8  C    0.136197
     9  H    0.012167
    10  N   -0.289157
    11  C    0.226968
    12  C    0.092307
    13  N   -0.044563
    14  H    0.112490
    15  H    0.087563
    16  H    0.028387
    17  H    0.035804
    18  H    0.019878
    19  N   -0.299776
    20  C    0.254370
    21  C    0.184001
    22  N   -0.120369
    23  H    0.117151
    24  H    0.117850
    25  N   -0.308001
    26  C    0.239961
    27  N   -0.145010
    28  H    0.120457
    29  C    0.185836
    30  O   -0.325119
    31  C   -0.019424
    32  N   -0.216127
    33  C    0.123584
    34  H    0.017779
    35  H    0.022684
    36  H    0.030012
    37  H    0.021741
    38  H    0.044818
    39  H    0.061717
    40  H    0.075398
    41  H    0.022756
    42  C   -0.104421
    43  O   -0.275421
    44  C    0.157945
    45  H    0.132513
    46  N   -0.111207
    47  O   -0.342903
    48  C    0.336762
    49  H    0.043404
    50  C    0.179216
    51  C    0.043444
    52  N   -0.276849
    53  H    0.034955
    54  H    0.041616
    55  H    0.018368
    56  H    0.126602
    57  H    0.117382
    58  N   -0.045462
    59  C    0.086916
    60  C    0.227449
    61  N   -0.265212
    62  H    0.031905
    63  C    0.156553
    64  N   -0.298102
    65  H    0.034522
    66  C    0.112419
    67  N   -0.250246
    68  C    0.034856
    69  C    0.182174
    70  N   -0.302988
 Sum of Mulliken charges =  -0.00000

 Dipole moment (field-independent basis, Debye):
    X=              5.7679    Y=              6.0102    Z=              4.4228  Tot=              9.4315
 Quadrupole moment (field-independent basis, Debye-Ang):
   XX=           -146.1840   YY=           -224.1393   ZZ=           -259.7710
   XY=              9.4719   XZ=              6.4053   YZ=              0.1351

 Normal termination of Gaussian 16 at Sat Jan 20 03:04:19 2018.
