 Gaussian 16, Revision A.03,
 Gaussian 16:  EM64L-G16RevA.03 25-Dec-2016

 ---------------------------------------
 #p wb97xd/cc-pvdz sp scf=(maxcycles=20)
 ---------------------------------------

 ------------------
 Base pair stacking
 ------------------
 Symbolic Z-matrix:
 Charge =  0 Multiplicity = 1

                         Standard orientation:
 ---------------------------------------------------------------------
 Center     Atomic      Atomic             Coordinates (Angstroms)
 Number     Number       Type             X           Y           Z
 ---------------------------------------------------------------------
      1          7           0        5.173844   -1.005619   -1.430374
      2          6           0        6.495359   -0.349417   -1.461995
      3          6           0        3.006100   -1.377158   -1.418153
      4          7           0        3.613665   -2.622281   -1.345652
      5          6           0        4.895342   -2.348608   -1.355915
      6          1           0        5.689042   -3.094890   -1.310736
      7          7           0        1.391741    0.339285   -1.521219
      8          6           0        2.416900    1.196433   -1.565344
      9          1           0        2.141207    2.248390   -1.625642
     10          7           0        3.725330    0.950361   -1.546251
     11          6           0        3.954984   -0.371003   -1.470974
     12          6           0        1.655853   -0.983448   -1.445726
     13          7           0        0.633865   -1.840620   -1.401587
     14          1           0        0.782579   -2.828525   -1.345402
     15          1           0       -0.314762   -1.524730   -1.423172
     16          1           0        7.008202   -0.667943   -2.259309
     17          1           0        6.375135    0.641293   -1.518235
     18          1           0        7.001989   -0.575307   -0.629960
     19          7           0        4.949686    1.106087    1.076424
     20          6           0        3.585928    1.267892    1.031147
     21          6           0        5.943600    2.119975    0.670406
     22          7           0        0.812016    3.227975    0.306421
     23          1           0       -0.182995    3.143622    0.351897
     24          1           0        1.178835    4.094076   -0.034235
     25          7           0        2.930040    2.371425    0.611515
     26          6           0        1.618987    2.225295    0.684999
     27          7           0        0.995929    1.086424    1.134746
     28          1           0       -0.012032    1.063664    1.156498
     29          6           0        1.650768   -0.060921    1.571381
     30          8           0        0.993867   -1.035525    1.957841
     31          6           0        3.059817    0.080975    1.498277
     32          7           0        4.072880   -0.808100    1.830154
     33          6           0        5.173437   -0.158369    1.564021
     34          1           0        6.178986   -0.556069    1.705390
     35          1           0        6.506739    1.758546   -0.071912
     36          1           0        5.469430    2.941935    0.357658
     37          1           0        6.526250    2.348691    1.449520
     38          1           0       -5.034036    1.348982    0.414351
     39          1           0       -5.057980    1.719097    2.136875
     40          1           0       -3.680172    2.207754    1.149833
     41          1           0       -4.478094   -3.055069    2.269575
     42          6           0       -3.888237   -2.157200    2.084853
     43          8           0       -1.800380   -3.251816    2.349065
     44          6           0       -2.459973   -2.237815    2.122022
     45          1           0       -0.800445   -1.062377    1.892522
     46          7           0       -1.810458   -1.045231    1.874793
     47          8           0       -1.726585    1.173763    1.399168
     48          6           0       -2.386972    0.170771    1.605496
     49          1           0       -5.561987   -0.870902    1.785197
     50          6           0       -4.479545   -0.985306    1.824817
     51          6           0       -4.428639    1.444638    1.303401
     52          7           0       -3.767861    0.167648    1.586983
     53          1           0       -5.885501    3.433665   -1.907081
     54          1           0       -4.596905    3.464264   -0.906738
     55          1           0       -6.091855    3.207414   -0.304068
     56          1           0       -2.741226   -3.281627   -1.617351
     57          1           0       -4.422112   -3.056114   -1.801362
     58          7           0       -3.521275   -2.655908   -1.629460
     59          6           0       -3.368118   -1.345893   -1.425557
     60          6           0       -4.115341    0.902404   -1.205245
     61          7           0       -2.893644    1.411987   -0.976781
     62          1           0       -0.951762    0.776254   -0.816977
     63          6           0       -1.975075    0.448242   -0.994439
     64          7           0       -2.126472   -0.864398   -1.198490
     65          1           0       -7.322087    0.906373   -1.616247
     66          6           0       -6.269549    0.638793   -1.518798
     67          7           0       -5.796806   -0.578568   -1.629338
     68          6           0       -4.432017   -0.425572   -1.432665
     69          6           0       -5.484509    3.038720   -1.080504
     70          7           0       -5.307375    1.584902   -1.262240
 ---------------------------------------------------------------------

 SCF Done:  E(RwB97XD) =  -2048.67608281     A.U. after   15 cycles

 The electronic state is 1-A.
 Alpha  occ. eigenvalues --  -19.24879 -19.21288 -19.20616 -14.52799 -14.51576
 Alpha  occ. eigenvalues --  -14.48988 -14.48947 -14.48512 -14.47137 -14.46740
 Alpha  occ. eigenvalues --  -14.46438 -14.45980 -14.44880 -14.44547 -14.43081
 Alpha  occ. eigenvalues --  -14.41678 -14.41481 -14.41180 -14.40963 -14.40838
 Alpha  occ. eigenvalues --  -10.44578 -10.40947 -10.40433 -10.39406 -10.38486
 Alpha  occ. eigenvalues --  -10.38193 -10.37618 -10.37005 -10.36440 -10.36007
 Alpha  occ. eigenvalues --  -10.34692 -10.34342 -10.34154 -10.33736 -10.33602
 Alpha  occ. eigenvalues --  -10.33375 -10.33101 -10.32816 -10.31742 -10.30976
 Alpha  occ. eigenvalues --  -10.30415 -10.28668 -10.28248  -1.18881  -1.16216
 Alpha  occ. eigenvalues --   -1.13286  -1.12335  -1.11586  -1.10677  -1.09837
 Alpha  occ. eigenvalues --   -1.08685  -1.08506  -1.05639  -1.05348  -1.01850
 Alpha  occ. eigenvalues --   -1.01681  -1.01103  -0.99721  -0.98519  -0.97516
 Alpha  occ. eigenvalues --   -0.97282  -0.96690  -0.93351  -0.90274  -0.88346
 Alpha  occ. eigenvalues --   -0.86641  -0.84709  -0.84015  -0.83145  -0.82845
 Alpha  occ. eigenvalues --   -0.82438  -0.78156  -0.77643  -0.75494  -0.74722
 Alpha  occ. eigenvalues --   -0.73793  -0.73261  -0.72688  -0.71582  -0.71026
 Alpha  occ. eigenvalues --   -0.67535  -0.67368  -0.66783  -0.66108  -0.64842
 Alpha  occ. eigenvalues --   -0.64406  -0.64063  -0.63302  -0.62621  -0.62385
 Alpha  occ. eigenvalues --   -0.61843  -0.61208  -0.60980  -0.60140  -0.59098
 Alpha  occ. eigenvalues --   -0.58729  -0.58479  -0.58293  -0.57170  -0.56572
 Alpha  occ. eigenvalues --   -0.56016  -0.55724  -0.55489  -0.54841  -0.54313
 Alpha  occ. eigenvalues --   -0.54181  -0.53973  -0.53449  -0.53175  -0.52969
 Alpha  occ. eigenvalues --   -0.52568  -0.52026  -0.51666  -0.51095  -0.50525
 Alpha  occ. eigenvalues --   -0.50267  -0.49865  -0.49406  -0.49204  -0.48843
 Alpha  occ. eigenvalues --   -0.48469  -0.48130  -0.48038  -0.47791  -0.47387
 Alpha  occ. eigenvalues --   -0.46918  -0.45755  -0.45072  -0.44927  -0.42378
 Alpha  occ. eigenvalues --   -0.41303  -0.41268  -0.38871  -0.38039  -0.37755
 Alpha  occ. eigenvalues --   -0.37450  -0.37138  -0.36529  -0.35987  -0.35240
 Alpha  occ. eigenvalues --   -0.34937  -0.34372  -0.34098  -0.33429  -0.32894
 Alpha  occ. eigenvalues --   -0.32420  -0.32308  -0.31859  -0.31150  -0.31041
 Alpha  occ. eigenvalues --   -0.30519  -0.30040  -0.26517  -0.24855
 Alpha virt. eigenvalues --    0.03143   0.03943   0.06693   0.06996   0.08321
 Alpha virt. eigenvalues --    0.09056   0.09758   0.09897   0.11318   0.12842
 Alpha virt. eigenvalues --    0.13087   0.13352   0.14096   0.14351   0.14776

 Mulliken charges:
               1
     1  N   -0.297865
     2  C    0.175879
     3  C    0.084162
     4  N   -0.255972
     5  C    0.137278
     6  H    0.025118
     7  N   -0.276229
     8  C    0.132162
     9  H    0.004513
    10  N   -0.272036
    11  C    0.216773
    12  C    0.064285
    13  N   -0.048527
    14  H    0.110263
    15  H    0.083617
    16  H    0.028037
    17  H    0.041518
    18  H    0.011336
    19  N   -0.280899
    20  C    0.219284
    21  C    0.197340
    22  N   -0.097292
    23  H    0.120531
    24  H    0.118676
    25  N   -0.260582
    26  C    0.160757
    27  N   -0.096918
    28  H    0.115783
    29  C    0.159776
    30  O   -0.319375
    31  C    0.016871
    32  N   -0.211603
    33  C    0.098314
    34  H    0.023182
    35  H   -0.009535
    36  H    0.033542
    37  H    0.023246
    38  H    0.059565
    39  H    0.040668
    40  H    0.078418
    41  H    0.025001
    42  C   -0.101197
    43  O   -0.268865
    44  C    0.171954
    45  H    0.128374
    46  N   -0.111067
    47  O   -0.339616
    48  C    0.320983
    49  H    0.044571
    50  C    0.164765
    51  C    0.044465
    52  N   -0.272570
    53  H    0.039031
    54  H    0.043224
    55  H    0.028685
    56  H    0.123428
    57  H    0.120594
    58  N   -0.061438
    59  C    0.104358
    60  C    0.168708
    61  N   -0.252463
    62  H   -0.001056
    63  C    0.187678
    64  N   -0.300086
    65  H    0.036077
    66  C    0.118614
    67  N   -0.248445
    68  C    0.058963
    69  C    0.177613
    70  N   -0.304342
 Sum of Mulliken charges =  -0.00000

 Dipole moment (field-independent basis, Debye):
    X=             -5.7514    Y=              7.2007    Z=             -3.7569  Tot=              9.9520
 Quadrupole moment (field-independent basis, Debye-Ang):
   XX=           -149.5166   YY=           -230.5989   ZZ=           -259.4059
   XY=             -6.1898   XZ=             -4.1833   YZ=             15.4152

 Normal termination of Gaussian 16 at Fri Jan 19 23:51:27 2018.
