 Gaussian 16, Revision A.03,
 Gaussian 16:  EM64L-G16RevA.03 25-Dec-2016

 ---------------------------------------
 #p wb97xd/cc-pvdz sp scf=(maxcycles=20)
 ---------------------------------------

 ------------------
 Base pair stacking
 ------------------
 Symbolic Z-matrix:
 Charge =  0 Multiplicity = 1

                         Standard orientation:
 ---------------------------------------------------------------------
 Center     Atomic      Atomic             Coordinates (Angstroms)
 Number     Number       Type             X           Y           Z
 ---------------------------------------------------------------------
      1          7           0       -6.056833   -1.285829    0.738983
      2          6           0       -7.372725   -0.680153    1.021080
      3          6           0       -3.894682   -1.678067    0.646172
      4          7           0       -4.507606   -2.719123   -0.035946
      5          6           0       -5.785675   -2.441143    0.047278
      6          1           0       -6.581856   -3.050199   -0.381803
      7          7           0       -2.274292   -0.269917    1.623086
      8          6           0       -3.293302    0.496876    2.024616
      9          1           0       -3.012689    1.384677    2.589696
     10          7           0       -4.600761    0.332417    1.833805
     11          6           0       -4.836800   -0.786803    1.129494
     12          6           0       -2.544729   -1.389110    0.916444
     13          7           0       -1.528880   -2.155829    0.514740
     14          1           0       -1.682410   -2.993399   -0.010737
     15          1           0       -0.580255   -1.919302    0.725244
     16          1           0       -7.930441   -1.321716    1.547891
     17          1           0       -7.247629    0.160798    1.546693
     18          1           0       -7.835536   -0.467596    0.160484
     19          7           0       -4.026309    1.788462   -1.178557
     20          6           0       -2.665374    1.880389   -1.012833
     21          6           0       -5.013855    2.773265   -0.693154
     22          7           0        0.109015    3.583023    0.197770
     23          1           0        1.101201    3.461985    0.210268
     24          1           0       -0.253573    4.403603    0.640367
     25          7           0       -2.006936    2.877784   -0.383780
     26          6           0       -0.699739    2.685809   -0.386028
     27          7           0       -0.082588    1.600759   -0.959872
     28          1           0        0.922737    1.536409   -0.913624
     29          6           0       -0.740152    0.562598   -1.612322
     30          8           0       -0.088622   -0.371253   -2.096229
     31          6           0       -2.145105    0.754838   -1.618019
     32          7           0       -3.159009   -0.027964   -2.152929
     33          6           0       -4.254316    0.622997   -1.868743
     34          1           0       -5.258846    0.296504   -2.140042
     35          1           0       -5.644004    2.329918   -0.056634
     36          1           0       -4.537748    3.516784   -0.225443
     37          1           0       -5.527119    3.142381   -1.467190
     38          1           0        5.879878    1.481728    0.216207
     39          1           0        6.048085    2.105175   -1.423206
     40          1           0        4.615885    2.501078   -0.472714
     41          1           0        5.320364   -2.563959   -2.326615
     42          6           0        4.748523   -1.678571   -2.048583
     43          8           0        2.651523   -2.626403   -2.624196
     44          6           0        3.325391   -1.688639   -2.198435
     45          1           0        1.693509   -0.487949   -1.909256
     46          7           0        2.699199   -0.518903   -1.817841
     47          8           0        2.653576    1.604858   -1.014874
     48          6           0        3.293820    0.615736   -1.325344
     49          1           0        6.436583   -0.528205   -1.437910
     50          6           0        5.357125   -0.586759   -1.570931
     51          6           0        5.347911    1.736975   -0.688186
     52          7           0        4.668353    0.548025   -1.210056
     53          1           0        4.996536    2.030408    3.750513
     54          1           0        3.764100    2.574090    2.829857
     55          1           0        5.287256    2.584902    2.243389
     56          1           0        1.817767   -3.636690    0.166519
     57          1           0        3.488056   -3.580766    0.508717
     58          7           0        2.601108   -3.117575    0.508625
     59          6           0        2.469876   -1.863350    0.945528
     60          6           0        3.246236    0.194540    1.853310
     61          7           0        2.042847    0.791325    1.841526
     62          1           0        0.107293    0.371593    1.314195
     63          6           0        1.116830   -0.034750    1.358834
     64          7           0        1.246272   -1.291297    0.920733
     65          1           0        6.426049   -0.102183    2.356196
     66          6           0        5.378158   -0.256820    2.097461
     67          7           0        4.890209   -1.364699    1.595272
     68          6           0        3.539319   -1.092008    1.435663
     69          6           0        4.637530    2.088176    2.818967
     70          7           0        4.438982    0.728792    2.279828
 ---------------------------------------------------------------------

 SCF Done:  E(RwB97XD) =  -2048.75484560     A.U. after   15 cycles

 The electronic state is 1-A.
 Alpha  occ. eigenvalues --  -19.25638 -19.21766 -19.20572 -14.52310 -14.52172
 Alpha  occ. eigenvalues --  -14.49353 -14.48542 -14.47609 -14.47246 -14.46805
 Alpha  occ. eigenvalues --  -14.46486 -14.45134 -14.43774 -14.43648 -14.42697
 Alpha  occ. eigenvalues --  -14.41867 -14.41841 -14.41503 -14.40692 -14.40680
 Alpha  occ. eigenvalues --  -10.45278 -10.41090 -10.39907 -10.39295 -10.38143
 Alpha  occ. eigenvalues --  -10.37671 -10.37491 -10.36786 -10.35908 -10.35466
 Alpha  occ. eigenvalues --  -10.35281 -10.34542 -10.34140 -10.33918 -10.33869
 Alpha  occ. eigenvalues --  -10.33546 -10.33171 -10.32173 -10.31689 -10.30681
 Alpha  occ. eigenvalues --  -10.30395 -10.28988 -10.27920  -1.19271  -1.14873
 Alpha  occ. eigenvalues --   -1.13094  -1.12819  -1.11878  -1.10415  -1.09161
 Alpha  occ. eigenvalues --   -1.08624  -1.08440  -1.05514  -1.04147  -1.02319
 Alpha  occ. eigenvalues --   -1.00936  -1.00607  -0.99580  -0.98399  -0.97478
 Alpha  occ. eigenvalues --   -0.96354  -0.96215  -0.93170  -0.90763  -0.87289
 Alpha  occ. eigenvalues --   -0.85685  -0.84490  -0.83887  -0.83704  -0.82881
 Alpha  occ. eigenvalues --   -0.82177  -0.78636  -0.76569  -0.74504  -0.74296
 Alpha  occ. eigenvalues --   -0.73498  -0.73387  -0.73169  -0.71546  -0.69926
 Alpha  occ. eigenvalues --   -0.67223  -0.66808  -0.66340  -0.66250  -0.64296
 Alpha  occ. eigenvalues --   -0.63760  -0.63591  -0.63193  -0.62517  -0.61597
 Alpha  occ. eigenvalues --   -0.61235  -0.60745  -0.60063  -0.59275  -0.59098
 Alpha  occ. eigenvalues --   -0.58258  -0.58187  -0.57321  -0.57051  -0.56237
 Alpha  occ. eigenvalues --   -0.55887  -0.55771  -0.55020  -0.54774  -0.54179
 Alpha  occ. eigenvalues --   -0.53704  -0.53433  -0.53083  -0.52739  -0.52692
 Alpha  occ. eigenvalues --   -0.52448  -0.52402  -0.52333  -0.51287  -0.50730
 Alpha  occ. eigenvalues --   -0.49953  -0.49768  -0.49306  -0.49168  -0.49011
 Alpha  occ. eigenvalues --   -0.48597  -0.48287  -0.48090  -0.47453  -0.47304
 Alpha  occ. eigenvalues --   -0.47256  -0.45674  -0.45338  -0.44268  -0.43335
 Alpha  occ. eigenvalues --   -0.41662  -0.40289  -0.39267  -0.37653  -0.37348
 Alpha  occ. eigenvalues --   -0.37159  -0.37125  -0.37062  -0.35941  -0.34409
 Alpha  occ. eigenvalues --   -0.34119  -0.33977  -0.33740  -0.33671  -0.33022
 Alpha  occ. eigenvalues --   -0.32535  -0.32197  -0.31748  -0.31689  -0.31360
 Alpha  occ. eigenvalues --   -0.30934  -0.29252  -0.26206  -0.25282
 Alpha virt. eigenvalues --    0.03343   0.04457   0.07379   0.07534   0.08359
 Alpha virt. eigenvalues --    0.08911   0.09910   0.10610   0.10878   0.11995
 Alpha virt. eigenvalues --    0.13277   0.13646   0.13936   0.14517   0.15003

 Mulliken charges:
               1
     1  N   -0.308973
     2  C    0.177767
     3  C    0.062804
     4  N   -0.249731
     5  C    0.126823
     6  H    0.027374
     7  N   -0.286111
     8  C    0.135154
     9  H    0.013801
    10  N   -0.289185
    11  C    0.226693
    12  C    0.094658
    13  N   -0.043750
    14  H    0.111401
    15  H    0.089824
    16  H    0.028858
    17  H    0.036277
    18  H    0.022100
    19  N   -0.295867
    20  C    0.248782
    21  C    0.184404
    22  N   -0.115729
    23  H    0.115280
    24  H    0.116814
    25  N   -0.304333
    26  C    0.230596
    27  N   -0.143927
    28  H    0.125003
    29  C    0.176477
    30  O   -0.324781
    31  C   -0.014253
    32  N   -0.218396
    33  C    0.125330
    34  H    0.018889
    35  H    0.020157
    36  H    0.028297
    37  H    0.020276
    38  H    0.039731
    39  H    0.062478
    40  H    0.075541
    41  H    0.025196
    42  C   -0.101475
    43  O   -0.272451
    44  C    0.162068
    45  H    0.134182
    46  N   -0.119809
    47  O   -0.340346
    48  C    0.337114
    49  H    0.042988
    50  C    0.179229
    51  C    0.043836
    52  N   -0.277073
    53  H    0.035358
    54  H    0.040138
    55  H    0.014737
    56  H    0.124750
    57  H    0.118499
    58  N   -0.047780
    59  C    0.102693
    60  C    0.228890
    61  N   -0.265894
    62  H    0.038232
    63  C    0.148686
    64  N   -0.301573
    65  H    0.035006
    66  C    0.109368
    67  N   -0.246607
    68  C    0.023011
    69  C    0.182669
    70  N   -0.300196
 Sum of Mulliken charges =  -0.00000

 Dipole moment (field-independent basis, Debye):
    X=              5.6342    Y=              5.9373    Z=              4.3247  Tot=              9.2574
 Quadrupole moment (field-independent basis, Debye-Ang):
   XX=           -145.3012   YY=           -224.5907   ZZ=           -260.0415
   XY=             11.0038   XZ=              8.8794   YZ=             -3.1227

 Normal termination of Gaussian 16 at Fri Jan 19 11:27:07 2018.
