 Gaussian 16, Revision A.03,
 Gaussian 16:  EM64L-G16RevA.03 25-Dec-2016

 ---------------------------------------
 #p wb97xd/cc-pvdz sp scf=(maxcycles=20)
 ---------------------------------------

 ------------------
 Base pair stacking
 ------------------
 Symbolic Z-matrix:
 Charge =  0 Multiplicity = 1

                         Standard orientation:
 ---------------------------------------------------------------------
 Center     Atomic      Atomic             Coordinates (Angstroms)
 Number     Number       Type             X           Y           Z
 ---------------------------------------------------------------------
      1          7           0       -6.079910   -1.532312    0.440186
      2          6           0       -7.399253   -1.118774    0.956246
      3          6           0       -3.914272   -1.809245    0.174381
      4          7           0       -4.524042   -2.500038   -0.862784
      5          6           0       -5.804346   -2.305546   -0.661142
      6          1           0       -6.599102   -2.706638   -1.290769
      7          7           0       -2.297371   -0.880379    1.618601
      8          6           0       -3.320115   -0.361330    2.305743
      9          1           0       -3.042420    0.229455    3.177591
     10          7           0       -4.628243   -0.462035    2.078671
     11          6           0       -4.860490   -1.207641    0.985715
     12          6           0       -2.564049   -1.625724    0.523882
     13          7           0       -1.544467   -2.144690   -0.163353
     14          1           0       -1.695140   -2.702822   -0.980059
     15          1           0       -0.595775   -1.993374    0.114563
     16          1           0       -7.937930   -1.929507    1.185849
     17          1           0       -7.277052   -0.558182    1.774741
     18          1           0       -7.880535   -0.587365    0.259137
     19          7           0       -3.990594    2.201296   -0.759411
     20          6           0       -2.627033    2.252516   -0.597729
     21          6           0       -4.961512    3.107021   -0.113125
     22          7           0        0.179426    3.715642    0.832225
     23          1           0        1.170205    3.584353    0.813536
     24          1           0       -0.168967    4.459784    1.402843
     25          7           0       -1.950527    3.131785    0.172509
     26          6           0       -0.645755    2.929657    0.124267
     27          7           0       -0.047274    1.942523   -0.620657
     28          1           0        0.957655    1.861773   -0.597272
     29          6           0       -0.723639    1.026682   -1.420435
     30          8           0       -0.088085    0.174350   -2.053151
     31          6           0       -2.126233    1.231288   -1.378816
     32          7           0       -3.154686    0.552596   -2.018008
     33          6           0       -4.239323    1.161448   -1.621672
     34          1           0       -5.250351    0.891714   -1.928837
     35          1           0       -5.590146    2.575166    0.453225
     36          1           0       -4.471937    3.762823    0.460033
     37          1           0       -5.478434    3.598535   -0.813134
     38          1           0        5.925272    1.580767    0.449907
     39          1           0        6.083726    2.453052   -1.072812
     40          1           0        4.666171    2.708377   -0.054620
     41          1           0        5.292279   -2.008001   -2.691207
     42          6           0        4.733711   -1.171869   -2.270361
     43          8           0        2.619959   -1.996406   -2.962652
     44          6           0        3.309096   -1.144146   -2.402729
     45          1           0        1.694400    0.012053   -1.908430
     46          7           0        2.700560   -0.042858   -1.835182
     47          8           0        2.688034    1.928206   -0.707384
     48          6           0        3.313451    0.994080   -1.177402
     49          1           0        6.441317   -0.148824   -1.506623
     50          6           0        5.359928   -0.175020   -1.634162
     51          6           0        5.386963    1.980584   -0.396528
     52          7           0        4.688219    0.895483   -1.090830
     53          1           0        4.976070    0.518539    4.415473
     54          1           0        3.719436    1.361270    3.804913
     55          1           0        5.231473    1.638720    3.256431
     56          1           0        1.816714   -3.290593   -1.113956
     57          1           0        3.491890   -3.342667   -0.795896
     58          7           0        2.598391   -2.937062   -0.600018
     59          6           0        2.456684   -1.967853    0.306465
     60          6           0        3.219010   -0.433970    1.958069
     61          7           0        2.006991    0.092061    2.200405
     62          1           0        0.068618   -0.119746    1.569155
     63          6           0        1.084635   -0.488731    1.435650
     64          7           0        1.224575   -1.459620    0.527158
     65          1           0        6.411361   -0.842283    2.265190
     66          6           0        5.361360   -0.901282    1.977175
     67          7           0        4.880748   -1.723073    1.076429
     68          6           0        3.523354   -1.437169    1.054476
     69          6           0        4.599557    0.939001    3.589976
     70          7           0        4.411286   -0.092097    2.551040
 ---------------------------------------------------------------------

 SCF Done:  E(RwB97XD) =  -2048.74286669     A.U. after   15 cycles

 The electronic state is 1-A.
 Alpha  occ. eigenvalues --  -19.25947 -19.21866 -19.20779 -14.52551 -14.51773
 Alpha  occ. eigenvalues --  -14.49045 -14.48798 -14.47907 -14.47052 -14.46756
 Alpha  occ. eigenvalues --  -14.46327 -14.44732 -14.43273 -14.43100 -14.42231
 Alpha  occ. eigenvalues --  -14.42079 -14.41536 -14.41139 -14.40873 -14.40373
 Alpha  occ. eigenvalues --  -10.45568 -10.41317 -10.40191 -10.38691 -10.38359
 Alpha  occ. eigenvalues --  -10.37716 -10.37260 -10.36351 -10.35574 -10.35534
 Alpha  occ. eigenvalues --  -10.34902 -10.34390 -10.34254 -10.33556 -10.33502
 Alpha  occ. eigenvalues --  -10.33357 -10.33258 -10.31690 -10.31409 -10.30825
 Alpha  occ. eigenvalues --  -10.30801 -10.28668 -10.28156  -1.19526  -1.14441
 Alpha  occ. eigenvalues --   -1.13305  -1.13268  -1.11574  -1.10641  -1.09395
 Alpha  occ. eigenvalues --   -1.08670  -1.08093  -1.05168  -1.03625  -1.02636
 Alpha  occ. eigenvalues --   -1.00548  -1.00155  -0.99835  -0.98613  -0.97151
 Alpha  occ. eigenvalues --   -0.96603  -0.95708  -0.92806  -0.90961  -0.86828
 Alpha  occ. eigenvalues --   -0.85239  -0.84190  -0.84130  -0.83855  -0.82575
 Alpha  occ. eigenvalues --   -0.82485  -0.78883  -0.76080  -0.74685  -0.73872
 Alpha  occ. eigenvalues --   -0.73714  -0.73436  -0.73068  -0.71220  -0.69416
 Alpha  occ. eigenvalues --   -0.67458  -0.66588  -0.66460  -0.65775  -0.64522
 Alpha  occ. eigenvalues --   -0.63840  -0.63249  -0.62823  -0.62724  -0.61820
 Alpha  occ. eigenvalues --   -0.60666  -0.60389  -0.59552  -0.59469  -0.58599
 Alpha  occ. eigenvalues --   -0.58518  -0.58452  -0.56991  -0.56709  -0.56406
 Alpha  occ. eigenvalues --   -0.56042  -0.55505  -0.54978  -0.54617  -0.54394
 Alpha  occ. eigenvalues --   -0.53738  -0.53559  -0.52998  -0.52844  -0.52617
 Alpha  occ. eigenvalues --   -0.52508  -0.52026  -0.51971  -0.51070  -0.50423
 Alpha  occ. eigenvalues --   -0.50251  -0.49783  -0.49502  -0.49415  -0.48923
 Alpha  occ. eigenvalues --   -0.48805  -0.48428  -0.47717  -0.47559  -0.47489
 Alpha  occ. eigenvalues --   -0.47135  -0.45750  -0.45151  -0.43838  -0.43076
 Alpha  occ. eigenvalues --   -0.41328  -0.39865  -0.39514  -0.37359  -0.37334
 Alpha  occ. eigenvalues --   -0.37284  -0.37245  -0.36630  -0.35841  -0.34290
 Alpha  occ. eigenvalues --   -0.34029  -0.33658  -0.33594  -0.33376  -0.33248
 Alpha  occ. eigenvalues --   -0.32708  -0.32404  -0.31962  -0.31765  -0.31107
 Alpha  occ. eigenvalues --   -0.30568  -0.28439  -0.25869  -0.25510
 Alpha virt. eigenvalues --    0.03067   0.04885   0.07742   0.07964   0.08265
 Alpha virt. eigenvalues --    0.08897   0.09698   0.10646   0.10946   0.12071
 Alpha virt. eigenvalues --    0.13388   0.13603   0.14271   0.14475   0.14961

 Mulliken charges:
               1
     1  N   -0.309504
     2  C    0.179982
     3  C    0.054025
     4  N   -0.246536
     5  C    0.123465
     6  H    0.025881
     7  N   -0.290635
     8  C    0.135253
     9  H    0.013201
    10  N   -0.292279
    11  C    0.231163
    12  C    0.094862
    13  N   -0.041392
    14  H    0.112718
    15  H    0.092215
    16  H    0.027576
    17  H    0.034354
    18  H    0.020840
    19  N   -0.306659
    20  C    0.258204
    21  C    0.182023
    22  N   -0.122099
    23  H    0.115995
    24  H    0.118473
    25  N   -0.309843
    26  C    0.244734
    27  N   -0.148043
    28  H    0.121757
    29  C    0.186839
    30  O   -0.326841
    31  C   -0.020293
    32  N   -0.219476
    33  C    0.130184
    34  H    0.021494
    35  H    0.027696
    36  H    0.029373
    37  H    0.022280
    38  H    0.048262
    39  H    0.062186
    40  H    0.075274
    41  H    0.024024
    42  C   -0.091490
    43  O   -0.284223
    44  C    0.143218
    45  H    0.136567
    46  N   -0.114269
    47  O   -0.345116
    48  C    0.345371
    49  H    0.043809
    50  C    0.187786
    51  C    0.043047
    52  N   -0.280010
    53  H    0.033237
    54  H    0.041332
    55  H    0.019077
    56  H    0.127600
    57  H    0.114591
    58  N   -0.028880
    59  C    0.089271
    60  C    0.243090
    61  N   -0.274115
    62  H    0.032767
    63  C    0.158651
    64  N   -0.303440
    65  H    0.031253
    66  C    0.113770
    67  N   -0.251138
    68  C    0.012189
    69  C    0.182121
    70  N   -0.306802
 Sum of Mulliken charges =  -0.00000

 Dipole moment (field-independent basis, Debye):
    X=              5.9390    Y=              5.6328    Z=              4.5613  Tot=              9.3705
 Quadrupole moment (field-independent basis, Debye-Ang):
   XX=           -144.5768   YY=           -225.9405   ZZ=           -255.8173
   XY=              7.3524   XZ=             11.4199   YZ=              5.8978

 Normal termination of Gaussian 16 at Fri Jan 19 18:46:48 2018.
