 Gaussian 16, Revision A.03,
 Gaussian 16:  EM64L-G16RevA.03 25-Dec-2016

 ---------------------------------------
 #p wb97xd/cc-pvdz sp scf=(maxcycles=20)
 ---------------------------------------

 ------------------
 Base pair stacking
 ------------------
 Symbolic Z-matrix:
 Charge =  0 Multiplicity = 1

                         Standard orientation:
 ---------------------------------------------------------------------
 Center     Atomic      Atomic             Coordinates (Angstroms)
 Number     Number       Type             X           Y           Z
 ---------------------------------------------------------------------
      1          7           0        4.541816   -1.554385   -1.680123
      2          6           0        5.846043   -1.046275   -2.147882
      3          6           0        2.393005   -1.777662   -1.267716
      4          7           0        3.013290   -2.883190   -0.703982
      5          6           0        4.283042   -2.704424   -0.975003
      6          1           0        5.081600   -3.386530   -0.681775
      7          7           0        0.766126   -0.218407   -1.964095
      8          6           0        1.773218    0.477119   -2.502204
      9          1           0        1.485244    1.400355   -3.003190
     10          7           0        3.076506    0.204716   -2.514342
     11          6           0        3.322337   -0.949667   -1.872935
     12          6           0        1.046202   -1.375532   -1.325577
     13          7           0        0.042247   -2.071249   -0.787764
     14          1           0        0.203208   -2.933251   -0.305846
     15          1           0       -0.904484   -1.754710   -0.848202
     16          1           0        6.264040   -1.714140   -2.763847
     17          1           0        5.713359   -0.183122   -2.634182
     18          1           0        6.448225   -0.895986   -1.363793
     19          7           0        5.541916    1.291519    0.694381
     20          6           0        4.184030    1.496169    0.742514
     21          6           0        6.532285    2.253951    0.171342
     22          7           0        1.423096    3.514238    0.137246
     23          1           0        0.432228    3.464754    0.259628
     24          1           0        1.788922    4.352554   -0.267874
     25          7           0        3.531623    2.601964    0.323438
     26          6           0        2.226016    2.502421    0.499777
     27          7           0        1.604856    1.404796    1.044649
     28          1           0        0.601146    1.416234    1.141605
     29          6           0        2.256198    0.256001    1.482702
     30          8           0        1.601450   -0.679169    1.959682
     31          6           0        3.659376    0.348102    1.299727
     32          7           0        4.667593   -0.559061    1.595460
     33          6           0        5.763916    0.042162    1.220202
     34          1           0        6.764956   -0.382153    1.304737
     35          1           0        7.027132    1.843022   -0.593556
     36          1           0        6.060644    3.077125   -0.142051
     37          1           0        7.178303    2.496116    0.894413
     38          1           0       -4.451682    1.835392    0.759449
     39          1           0       -4.335271    2.278727    2.460788
     40          1           0       -3.021490    2.679413    1.354078
     41          1           0       -3.889345   -2.502057    2.763659
     42          6           0       -3.288567   -1.632774    2.496026
     43          8           0       -1.220260   -2.783494    2.654372
     44          6           0       -1.864562   -1.758813    2.431441
     45          1           0       -0.192720   -0.649550    2.028000
     46          7           0       -1.200245   -0.599851    2.083980
     47          8           0       -1.086339    1.593025    1.504762
     48          6           0       -1.758912    0.622011    1.803811
     49          1           0       -4.941081   -0.305803    2.263307
     50          6           0       -3.862598   -0.454072    2.228153
     51          6           0       -3.778698    1.948597    1.596315
     52          7           0       -3.136779    0.663660    1.887235
     53          1           0       -6.526948    2.708389   -2.927031
     54          1           0       -5.130223    3.126276   -2.194480
     55          1           0       -6.542461    3.239927   -1.384092
     56          1           0       -3.325044   -3.293451    0.037958
     57          1           0       -5.017400   -3.096214   -0.046443
     58          7           0       -4.105344   -2.704511   -0.172783
     59          6           0       -3.938206   -1.452329   -0.603211
     60          6           0       -4.669649    0.685885   -1.348029
     61          7           0       -3.433069    1.185445   -1.508450
     62          1           0       -1.481583    0.599395   -1.287401
     63          6           0       -2.516408    0.275296   -1.185566
     64          7           0       -2.681795   -0.979382   -0.754260
     65          1           0       -7.902428    0.655292   -1.368689
     66          6           0       -6.843927    0.411145   -1.274232
     67          7           0       -6.379178   -0.745893   -0.870533
     68          6           0       -5.001808   -0.585195   -0.912673
     69          6           0       -6.029183    2.710540   -2.059725
     70          7           0       -5.864739    1.324618   -1.579948
 ---------------------------------------------------------------------

 SCF Done:  E(RwB97XD) =  -2048.75072738     A.U. after   15 cycles

 The electronic state is 1-A.
 Alpha  occ. eigenvalues --  -19.25274 -19.21654 -19.20730 -14.52754 -14.51746
 Alpha  occ. eigenvalues --  -14.49387 -14.48512 -14.48214 -14.47262 -14.46933
 Alpha  occ. eigenvalues --  -14.46761 -14.45604 -14.44722 -14.44642 -14.42637
 Alpha  occ. eigenvalues --  -14.42118 -14.41578 -14.41159 -14.40922 -14.40663
 Alpha  occ. eigenvalues --  -10.44852 -10.41360 -10.40198 -10.39677 -10.38415
 Alpha  occ. eigenvalues --  -10.38193 -10.37543 -10.36997 -10.36200 -10.35695
 Alpha  occ. eigenvalues --  -10.34749 -10.34331 -10.34092 -10.33968 -10.33762
 Alpha  occ. eigenvalues --  -10.33369 -10.33327 -10.33041 -10.31522 -10.30970
 Alpha  occ. eigenvalues --  -10.30438 -10.28531 -10.28519  -1.18832  -1.15503
 Alpha  occ. eigenvalues --   -1.13401  -1.12618  -1.11140  -1.11017  -1.09650
 Alpha  occ. eigenvalues --   -1.08738  -1.08572  -1.05291  -1.05107  -1.01907
 Alpha  occ. eigenvalues --   -1.01186  -1.00657  -0.99855  -0.98788  -0.97231
 Alpha  occ. eigenvalues --   -0.97063  -0.96740  -0.92980  -0.90392  -0.87933
 Alpha  occ. eigenvalues --   -0.86127  -0.84587  -0.83871  -0.83059  -0.82851
 Alpha  occ. eigenvalues --   -0.82308  -0.78269  -0.77277  -0.75151  -0.74976
 Alpha  occ. eigenvalues --   -0.73794  -0.72949  -0.72769  -0.71158  -0.70646
 Alpha  occ. eigenvalues --   -0.67614  -0.67042  -0.66366  -0.65976  -0.64605
 Alpha  occ. eigenvalues --   -0.64444  -0.63499  -0.62825  -0.62767  -0.62001
 Alpha  occ. eigenvalues --   -0.60857  -0.60699  -0.60482  -0.59680  -0.58960
 Alpha  occ. eigenvalues --   -0.58908  -0.58492  -0.57681  -0.56646  -0.55869
 Alpha  occ. eigenvalues --   -0.55756  -0.55712  -0.55434  -0.54452  -0.54210
 Alpha  occ. eigenvalues --   -0.53924  -0.53843  -0.53453  -0.53180  -0.53049
 Alpha  occ. eigenvalues --   -0.52832  -0.51752  -0.51733  -0.50669  -0.50447
 Alpha  occ. eigenvalues --   -0.50429  -0.50105  -0.49547  -0.49252  -0.48966
 Alpha  occ. eigenvalues --   -0.48869  -0.48351  -0.48269  -0.47818  -0.47244
 Alpha  occ. eigenvalues --   -0.47005  -0.45832  -0.45599  -0.45021  -0.42552
 Alpha  occ. eigenvalues --   -0.41285  -0.40968  -0.39018  -0.38148  -0.37829
 Alpha  occ. eigenvalues --   -0.37616  -0.37418  -0.37081  -0.35676  -0.34974
 Alpha  occ. eigenvalues --   -0.34604  -0.34177  -0.33489  -0.33394  -0.33145
 Alpha  occ. eigenvalues --   -0.32963  -0.32706  -0.32038  -0.31147  -0.30893
 Alpha  occ. eigenvalues --   -0.30595  -0.30381  -0.26390  -0.25351
 Alpha virt. eigenvalues --    0.02765   0.04501   0.06724   0.07779   0.08624
 Alpha virt. eigenvalues --    0.09010   0.09647   0.10220   0.10816   0.12360
 Alpha virt. eigenvalues --    0.12998   0.13505   0.14102   0.14509   0.14844

 Mulliken charges:
               1
     1  N   -0.300928
     2  C    0.184340
     3  C    0.050911
     4  N   -0.248344
     5  C    0.150931
     6  H    0.026272
     7  N   -0.292621
     8  C    0.126350
     9  H    0.008797
    10  N   -0.280582
    11  C    0.235923
    12  C    0.080640
    13  N   -0.056826
    14  H    0.117519
    15  H    0.087600
    16  H    0.025563
    17  H    0.032835
    18  H    0.009601
    19  N   -0.308065
    20  C    0.257980
    21  C    0.183449
    22  N   -0.122027
    23  H    0.119392
    24  H    0.119158
    25  N   -0.306305
    26  C    0.242776
    27  N   -0.138297
    28  H    0.120723
    29  C    0.186998
    30  O   -0.318928
    31  C   -0.013546
    32  N   -0.216363
    33  C    0.102618
    34  H    0.025459
    35  H    0.018642
    36  H    0.033624
    37  H    0.026528
    38  H    0.051713
    39  H    0.053994
    40  H    0.075347
    41  H    0.016885
    42  C   -0.101261
    43  O   -0.274724
    44  C    0.171640
    45  H    0.130880
    46  N   -0.120041
    47  O   -0.349945
    48  C    0.336554
    49  H    0.046483
    50  C    0.157482
    51  C    0.050525
    52  N   -0.273753
    53  H    0.036086
    54  H    0.041831
    55  H    0.029447
    56  H    0.125726
    57  H    0.117263
    58  N   -0.053555
    59  C    0.090304
    60  C    0.210141
    61  N   -0.259699
    62  H    0.031734
    63  C    0.167520
    64  N   -0.307631
    65  H    0.039345
    66  C    0.137837
    67  N   -0.257758
    68  C    0.036543
    69  C    0.178498
    70  N   -0.307210
 Sum of Mulliken charges =  -0.00000

 Dipole moment (field-independent basis, Debye):
    X=             -5.9782    Y=              7.3549    Z=             -2.8269  Tot=              9.8906
 Quadrupole moment (field-independent basis, Debye-Ang):
   XX=           -148.7731   YY=           -225.4668   ZZ=           -258.0967
   XY=             -5.6292   XZ=            -10.1356   YZ=              7.2232

 Normal termination of Gaussian 16 at Sat Jan 20 06:18:47 2018.
