 Gaussian 16, Revision A.03,
 Gaussian 16:  EM64L-G16RevA.03 25-Dec-2016

 ---------------------------------------
 #p wb97xd/cc-pvdz sp scf=(maxcycles=20)
 ---------------------------------------

 ------------------
 Base pair stacking
 ------------------
 Symbolic Z-matrix:
 Charge =  0 Multiplicity = 1

                         Standard orientation:
 ---------------------------------------------------------------------
 Center     Atomic      Atomic             Coordinates (Angstroms)
 Number     Number       Type             X           Y           Z
 ---------------------------------------------------------------------
      1          7           0        6.554074   -0.931609   -0.490048
      2          6           0        7.843441   -0.216600   -0.424525
      3          6           0        4.418507   -1.408241   -0.712496
      4          7           0        5.056412   -2.607425   -0.430083
      5          6           0        6.317488   -2.272273   -0.307365
      6          1           0        7.125144   -2.969298   -0.082010
      7          7           0        2.769979    0.205601   -1.203237
      8          6           0        3.760040    1.104103   -1.209185
      9          1           0        3.456371    2.129272   -1.416762
     10          7           0        5.062763    0.927220   -0.998208
     11          6           0        5.328704   -0.366393   -0.752697
     12          6           0        3.070067   -1.087625   -0.953017
     13          7           0        2.083146   -1.986014   -0.946644
     14          1           0        2.259212   -2.954322   -0.766092
     15          1           0        1.134638   -1.721945   -1.122034
     16          1           0        8.467751   -0.588648   -1.111543
     17          1           0        7.695503    0.755925   -0.601804
     18          1           0        8.244461   -0.330762    0.484404
     19          7           0        3.486199    1.504373    1.407889
     20          6           0        2.135183    1.592107    1.173153
     21          6           0        4.487069    2.520147    1.024255
     22          7           0       -0.589449    3.326435   -0.103650
     23          1           0       -1.578078    3.197343   -0.175721
     24          1           0       -0.213022    4.170580   -0.486326
     25          7           0        1.500125    2.612788    0.557548
     26          6           0        0.196986    2.409339    0.479741
     27          7           0       -0.437649    1.292449    0.966896
     28          1           0       -1.438231    1.221496    0.863168
     29          6           0        0.195749    0.229924    1.603849
     30          8           0       -0.470115   -0.731916    2.006634
     31          6           0        1.596065    0.434123    1.694901
     32          7           0        2.588657   -0.364531    2.246103
     33          6           0        3.690123    0.309064    2.053107
     34          1           0        4.682294   -0.021202    2.362628
     35          1           0        5.155563    2.113599    0.402447
     36          1           0        4.028303    3.281101    0.567364
     37          1           0        4.953715    2.856063    1.841698
     38          1           0       -6.326502    1.177358   -0.535228
     39          1           0       -6.589742    1.719546    1.120480
     40          1           0       -5.113149    2.173493    0.269038
     41          1           0       -5.858170   -2.981071    1.838517
     42          6           0       -5.282384   -2.078264    1.634427
     43          8           0       -3.208644   -3.034109    2.277126
     44          6           0       -3.869358   -2.082921    1.860597
     45          1           0       -2.238157   -0.855262    1.717922
     46          7           0       -3.237054   -0.890689    1.570716
     47          8           0       -3.172680    1.269619    0.873526
     48          6           0       -3.817313    0.261051    1.101310
     49          1           0       -6.948252   -0.914824    0.988592
     50          6           0       -5.876905   -0.970137    1.177034
     51          6           0       -5.846896    1.393438    0.407823
     52          7           0       -5.182791    0.186785    0.908539
     53          1           0       -4.501942    2.875537   -2.838150
     54          1           0       -3.357714    3.072576   -1.691849
     55          1           0       -4.908414    2.803860   -1.259204
     56          1           0       -1.179521   -3.608985   -1.431689
     57          1           0       -2.828848   -3.488016   -1.850239
     58          7           0       -1.973585   -3.027683   -1.609733
     59          6           0       -1.896487   -1.697686   -1.530238
     60          6           0       -2.747836    0.521035   -1.649552
     61          7           0       -1.586122    1.111899   -1.324413
     62          1           0        0.339940    0.593992   -0.852529
     63          6           0       -0.638564    0.198669   -1.121802
     64          7           0       -0.713802   -1.133864   -1.200922
     65          1           0       -5.870929    0.322212   -2.461288
     66          6           0       -4.831197    0.119089   -2.203130
     67          7           0       -4.303858   -1.077944   -2.121273
     68          6           0       -2.983183   -0.837415   -1.770986
     69          6           0       -4.198702    2.587557   -1.929791
     70          7           0       -3.946233    1.133503   -1.930131
 ---------------------------------------------------------------------

 SCF Done:  E(RwB97XD) =  -2048.68520943     A.U. after   15 cycles

 The electronic state is 1-A.
 Alpha  occ. eigenvalues --  -19.25811 -19.21858 -19.20449 -14.52558 -14.51856
 Alpha  occ. eigenvalues --  -14.49997 -14.48045 -14.47832 -14.47437 -14.46108
 Alpha  occ. eigenvalues --  -14.45760 -14.44812 -14.43557 -14.43276 -14.43086
 Alpha  occ. eigenvalues --  -14.42548 -14.42018 -14.41737 -14.41197 -14.40456
 Alpha  occ. eigenvalues --  -10.45480 -10.40596 -10.39971 -10.39247 -10.37835
 Alpha  occ. eigenvalues --  -10.37655 -10.37449 -10.36546 -10.36525 -10.35851
 Alpha  occ. eigenvalues --  -10.35241 -10.35187 -10.34576 -10.34150 -10.33950
 Alpha  occ. eigenvalues --  -10.33843 -10.32983 -10.32130 -10.31784 -10.30954
 Alpha  occ. eigenvalues --  -10.29708 -10.28287 -10.27667  -1.19638  -1.14631
 Alpha  occ. eigenvalues --   -1.13072  -1.12903  -1.12580  -1.10267  -1.09442
 Alpha  occ. eigenvalues --   -1.08647  -1.08162  -1.06217  -1.04159  -1.02508
 Alpha  occ. eigenvalues --   -1.01798  -1.00463  -0.99200  -0.98283  -0.98131
 Alpha  occ. eigenvalues --   -0.96223  -0.95927  -0.93936  -0.91045  -0.87321
 Alpha  occ. eigenvalues --   -0.85782  -0.85252  -0.84113  -0.83556  -0.83439
 Alpha  occ. eigenvalues --   -0.81346  -0.78886  -0.76576  -0.74457  -0.74356
 Alpha  occ. eigenvalues --   -0.73980  -0.73417  -0.73239  -0.72317  -0.70003
 Alpha  occ. eigenvalues --   -0.67546  -0.66990  -0.66530  -0.66355  -0.64743
 Alpha  occ. eigenvalues --   -0.64089  -0.63785  -0.63324  -0.62665  -0.61633
 Alpha  occ. eigenvalues --   -0.61421  -0.61178  -0.60455  -0.59610  -0.59228
 Alpha  occ. eigenvalues --   -0.58168  -0.58087  -0.57861  -0.57669  -0.56804
 Alpha  occ. eigenvalues --   -0.56493  -0.56045  -0.55304  -0.55027  -0.54822
 Alpha  occ. eigenvalues --   -0.54194  -0.53502  -0.53212  -0.53001  -0.52391
 Alpha  occ. eigenvalues --   -0.52317  -0.52021  -0.51692  -0.51631  -0.50775
 Alpha  occ. eigenvalues --   -0.50187  -0.49708  -0.49452  -0.48888  -0.48694
 Alpha  occ. eigenvalues --   -0.48418  -0.48204  -0.47982  -0.47791  -0.47122
 Alpha  occ. eigenvalues --   -0.47087  -0.45719  -0.45363  -0.44259  -0.43137
 Alpha  occ. eigenvalues --   -0.41676  -0.40609  -0.39589  -0.38363  -0.37461
 Alpha  occ. eigenvalues --   -0.37341  -0.36941  -0.36790  -0.35413  -0.34956
 Alpha  occ. eigenvalues --   -0.34561  -0.34106  -0.33767  -0.33055  -0.33017
 Alpha  occ. eigenvalues --   -0.32451  -0.32069  -0.31788  -0.31698  -0.31551
 Alpha  occ. eigenvalues --   -0.31127  -0.28640  -0.26794  -0.24850
 Alpha virt. eigenvalues --    0.03103   0.04552   0.06660   0.07746   0.08192
 Alpha virt. eigenvalues --    0.09082   0.09631   0.10195   0.11285   0.12064
 Alpha virt. eigenvalues --    0.12952   0.13107   0.14222   0.14643   0.14870

 Mulliken charges:
               1
     1  N   -0.312835
     2  C    0.178101
     3  C    0.064357
     4  N   -0.255217
     5  C    0.131403
     6  H    0.029897
     7  N   -0.263645
     8  C    0.129086
     9  H    0.020869
    10  N   -0.298455
    11  C    0.236634
    12  C    0.095208
    13  N   -0.045845
    14  H    0.107854
    15  H    0.088074
    16  H    0.029708
    17  H    0.037086
    18  H    0.026969
    19  N   -0.284772
    20  C    0.224372
    21  C    0.181121
    22  N   -0.076019
    23  H    0.112239
    24  H    0.108777
    25  N   -0.283586
    26  C    0.184267
    27  N   -0.136253
    28  H    0.134734
    29  C    0.141525
    30  O   -0.323580
    31  C    0.027307
    32  N   -0.221362
    33  C    0.115713
    34  H    0.020338
    35  H    0.023991
    36  H    0.019979
    37  H    0.008618
    38  H    0.033381
    39  H    0.063923
    40  H    0.080306
    41  H    0.030716
    42  C   -0.102624
    43  O   -0.265297
    44  C    0.181592
    45  H    0.132366
    46  N   -0.125910
    47  O   -0.339138
    48  C    0.340973
    49  H    0.045035
    50  C    0.174510
    51  C    0.037787
    52  N   -0.278423
    53  H    0.032336
    54  H    0.025558
    55  H    0.006463
    56  H    0.120089
    57  H    0.120532
    58  N   -0.065623
    59  C    0.125742
    60  C    0.224084
    61  N   -0.302044
    62  H    0.030805
    63  C    0.188686
    64  N   -0.310056
    65  H    0.040241
    66  C    0.102534
    67  N   -0.243878
    68  C    0.016621
    69  C    0.190409
    70  N   -0.288353
 Sum of Mulliken charges =  -0.00000

 Dipole moment (field-independent basis, Debye):
    X=             -4.9677    Y=              5.6784    Z=             -4.8581  Tot=              8.9735
 Quadrupole moment (field-independent basis, Debye-Ang):
   XX=           -142.1030   YY=           -229.0827   ZZ=           -260.5815
   XY=            -15.9202   XZ=             10.9772   YZ=              9.6890

 Normal termination of Gaussian 16 at Sat Jan 20 00:27:25 2018.
