 Gaussian 16, Revision A.03,
 Gaussian 16:  EM64L-G16RevA.03 25-Dec-2016

 ---------------------------------------
 #p wb97xd/cc-pvdz sp scf=(maxcycles=20)
 ---------------------------------------

 ------------------
 Base pair stacking
 ------------------
 Symbolic Z-matrix:
 Charge =  0 Multiplicity = 1

                         Standard orientation:
 ---------------------------------------------------------------------
 Center     Atomic      Atomic             Coordinates (Angstroms)
 Number     Number       Type             X           Y           Z
 ---------------------------------------------------------------------
      1          7           0       -6.086653   -1.602146    0.304039
      2          6           0       -7.406486   -1.278353    0.879546
      3          6           0       -3.920404   -1.821907   -0.006400
      4          7           0       -4.529980   -2.356329   -1.132251
      5          6           0       -5.810666   -2.202536   -0.900164
      6          1           0       -6.605420   -2.511816   -1.579620
      7          7           0       -2.303571   -1.105139    1.554067
      8          6           0       -3.326787   -0.700196    2.313418
      9          1           0       -3.049307   -0.242581    3.262027
     10          7           0       -4.635160   -0.775304    2.078024
     11          6           0       -4.867116   -1.353102    0.887732
     12          6           0       -2.569955   -1.682651    0.362176
     13          7           0       -1.549900   -2.087538   -0.397243
     14          1           0       -1.700345   -2.520105   -1.286887
     15          1           0       -0.601067   -1.972338   -0.102980
     16          1           0       -7.939062   -2.117769    0.988681
     17          1           0       -7.284517   -0.843808    1.771406
     18          1           0       -7.893973   -0.653253    0.269957
     19          7           0       -3.978618    2.324598   -0.561508
     20          6           0       -2.614080    2.361095   -0.404142
     21          6           0       -4.942993    3.190959    0.145682
     22          7           0        0.204825    3.722052    1.100289
     23          1           0        1.195022    3.588971    1.068121
     24          1           0       -0.138001    4.429879    1.718489
     25          7           0       -1.930527    3.187865    0.416374
     26          6           0       -0.626748    2.984932    0.348588
     27          7           0       -0.035600    2.044767   -0.460203
     28          1           0        0.969147    1.959430   -0.447268
     29          6           0       -0.719283    1.183360   -1.312502
     30          8           0       -0.090009    0.370523   -2.001016
     31          6           0       -2.120914    1.389501   -1.250654
     32          7           0       -3.155021    0.755790   -1.925885
     33          6           0       -4.235449    1.341984   -1.486244
     34          1           0       -5.248981    1.095435   -1.804438
     35          1           0       -5.570645    2.626518    0.680721
     36          1           0       -4.448173    3.807742    0.756417
     37          1           0       -5.461702    3.727296   -0.519224
     38          1           0        5.940964    1.596825    0.553825
     39          1           0        6.094812    2.562810   -0.911724
     40          1           0        4.683376    2.758075    0.128013
     41          1           0        5.279195   -1.784777   -2.803760
     42          6           0        4.725767   -0.975013   -2.328116
     43          8           0        2.605581   -1.747403   -3.059790
     44          6           0        3.300598   -0.934362   -2.450928
     45          1           0        1.692599    0.193629   -1.876242
     46          7           0        2.698905    0.130940   -1.811926
     47          8           0        2.699166    2.027040   -0.562123
     48          6           0        3.318836    1.122360   -1.093370
     49          1           0        6.440875   -0.007708   -1.510489
     50          6           0        5.358772   -0.022289   -1.633695
     51          6           0        5.399811    2.050929   -0.262881
     52          7           0        4.693670    1.014027   -1.020454
     53          1           0        4.972150   -0.084054    4.504250
     54          1           0        3.707716    0.830848    4.028587
     55          1           0        5.215717    1.196589    3.522387
     56          1           0        1.814596   -3.057491   -1.516892
     57          1           0        3.491352   -3.144369   -1.215167
     58          7           0        2.596095   -2.778265   -0.958829
     59          6           0        2.451922   -1.954379    0.081173
     60          6           0        3.211195   -0.675707    1.938651
     61          7           0        1.996854   -0.199535    2.259677
     62          1           0        0.057318   -0.329260    1.610075
     63          6           0        1.075109   -0.667500    1.420455
     64          7           0        1.217514   -1.492763    0.378225
     65          1           0        6.407300   -1.102860    2.172300
     66          6           0        5.356531   -1.125952    1.881971
     67          7           0        4.877492   -1.809170    0.871330
     68          6           0        3.518234   -1.532513    0.895986
     69          6           0        4.589628    0.450984    3.750991
     70          7           0        4.403676   -0.416851    2.571879
 ---------------------------------------------------------------------

 SCF Done:  E(RwB97XD) =  -2048.72884382     A.U. after   15 cycles

 The electronic state is 1-A.
 Alpha  occ. eigenvalues --  -19.26080 -19.21887 -19.20872 -14.52689 -14.51586
 Alpha  occ. eigenvalues --  -14.48942 -14.48872 -14.48082 -14.47143 -14.46850
 Alpha  occ. eigenvalues --  -14.45926 -14.44563 -14.43009 -14.42838 -14.42163
 Alpha  occ. eigenvalues --  -14.42070 -14.41434 -14.41007 -14.40936 -14.40246
 Alpha  occ. eigenvalues --  -10.45705 -10.41404 -10.40370 -10.38445 -10.38391
 Alpha  occ. eigenvalues --  -10.37853 -10.37071 -10.36138 -10.35625 -10.35401
 Alpha  occ. eigenvalues --  -10.34701 -10.34469 -10.34155 -10.33446 -10.33414
 Alpha  occ. eigenvalues --  -10.33334 -10.33142 -10.31463 -10.31319 -10.30933
 Alpha  occ. eigenvalues --  -10.30902 -10.28556 -10.28235  -1.19664  -1.14267
 Alpha  occ. eigenvalues --   -1.13649  -1.13388  -1.11472  -1.10719  -1.09547
 Alpha  occ. eigenvalues --   -1.08759  -1.07841  -1.05044  -1.03431  -1.02819
 Alpha  occ. eigenvalues --   -1.00414  -0.99969  -0.99926  -0.98694  -0.97041
 Alpha  occ. eigenvalues --   -0.96681  -0.95486  -0.92676  -0.91094  -0.86633
 Alpha  occ. eigenvalues --   -0.85058  -0.84215  -0.84084  -0.83956  -0.82576
 Alpha  occ. eigenvalues --   -0.82467  -0.79043  -0.75904  -0.74765  -0.73829
 Alpha  occ. eigenvalues --   -0.73694  -0.73555  -0.72954  -0.71104  -0.69230
 Alpha  occ. eigenvalues --   -0.67546  -0.66739  -0.66341  -0.65639  -0.64634
 Alpha  occ. eigenvalues --   -0.63946  -0.63096  -0.62811  -0.62691  -0.61899
 Alpha  occ. eigenvalues --   -0.60612  -0.60263  -0.59593  -0.59378  -0.58548
 Alpha  occ. eigenvalues --   -0.58512  -0.58422  -0.56922  -0.56592  -0.56451
 Alpha  occ. eigenvalues --   -0.56165  -0.55366  -0.55180  -0.54663  -0.54326
 Alpha  occ. eigenvalues --   -0.53837  -0.53613  -0.53091  -0.52708  -0.52684
 Alpha  occ. eigenvalues --   -0.52408  -0.51916  -0.51810  -0.50978  -0.50359
 Alpha  occ. eigenvalues --   -0.50313  -0.50101  -0.49653  -0.49282  -0.49074
 Alpha  occ. eigenvalues --   -0.48644  -0.48507  -0.47738  -0.47652  -0.47377
 Alpha  occ. eigenvalues --   -0.47026  -0.45790  -0.45075  -0.43936  -0.42581
 Alpha  occ. eigenvalues --   -0.41208  -0.39689  -0.39639  -0.37492  -0.37408
 Alpha  occ. eigenvalues --   -0.37357  -0.37170  -0.36447  -0.35636  -0.34365
 Alpha  occ. eigenvalues --   -0.33858  -0.33718  -0.33513  -0.33444  -0.33096
 Alpha  occ. eigenvalues --   -0.32748  -0.32480  -0.32035  -0.31799  -0.30992
 Alpha  occ. eigenvalues --   -0.30437  -0.27868  -0.25750  -0.25588
 Alpha virt. eigenvalues --    0.02886   0.05101   0.07858   0.07935   0.08391
 Alpha virt. eigenvalues --    0.08862   0.09623   0.10641   0.11034   0.12208
 Alpha virt. eigenvalues --    0.13414   0.13580   0.14386   0.14480   0.14948

 Mulliken charges:
               1
     1  N   -0.309760
     2  C    0.180394
     3  C    0.051697
     4  N   -0.245514
     5  C    0.122265
     6  H    0.025328
     7  N   -0.291382
     8  C    0.134731
     9  H    0.012931
    10  N   -0.292235
    11  C    0.232055
    12  C    0.094773
    13  N   -0.040719
    14  H    0.112985
    15  H    0.093090
    16  H    0.027231
    17  H    0.034283
    18  H    0.020433
    19  N   -0.308288
    20  C    0.258622
    21  C    0.181577
    22  N   -0.123054
    23  H    0.116049
    24  H    0.118913
    25  N   -0.310475
    26  C    0.246930
    27  N   -0.149316
    28  H    0.121212
    29  C    0.190634
    30  O   -0.327970
    31  C   -0.021160
    32  N   -0.219484
    33  C    0.131161
    34  H    0.022207
    35  H    0.028808
    36  H    0.029587
    37  H    0.022904
    38  H    0.050975
    39  H    0.062083
    40  H    0.075459
    41  H    0.024731
    42  C   -0.087144
    43  O   -0.290425
    44  C    0.133311
    45  H    0.137506
    46  N   -0.110270
    47  O   -0.345656
    48  C    0.347832
    49  H    0.044451
    50  C    0.191729
    51  C    0.043063
    52  N   -0.280854
    53  H    0.032653
    54  H    0.041547
    55  H    0.019777
    56  H    0.129642
    57  H    0.113136
    58  N   -0.020841
    59  C    0.085410
    60  C    0.245753
    61  N   -0.277100
    62  H    0.031570
    63  C    0.160573
    64  N   -0.304858
    65  H    0.030010
    66  C    0.114648
    67  N   -0.253207
    68  C    0.009413
    69  C    0.181775
    70  N   -0.308136
 Sum of Mulliken charges =  -0.00000

 Dipole moment (field-independent basis, Debye):
    X=              6.0590    Y=              5.5366    Z=              4.6613  Tot=              9.4389
 Quadrupole moment (field-independent basis, Debye-Ang):
   XX=           -144.3445   YY=           -227.5076   ZZ=           -253.4021
   XY=              5.8777   XZ=             11.7198   YZ=              8.4339

 Normal termination of Gaussian 16 at Fri Jan 19 23:14:03 2018.
