 Gaussian 16, Revision A.03,
 Gaussian 16:  EM64L-G16RevA.03 25-Dec-2016

 ---------------------------------------
 #p wb97xd/cc-pvdz sp scf=(maxcycles=20)
 ---------------------------------------

 ------------------
 Base pair stacking
 ------------------
 Symbolic Z-matrix:
 Charge =  0 Multiplicity = 1

                         Standard orientation:
 ---------------------------------------------------------------------
 Center     Atomic      Atomic             Coordinates (Angstroms)
 Number     Number       Type             X           Y           Z
 ---------------------------------------------------------------------
      1          7           0        5.753988   -1.202770   -1.008176
      2          6           0        7.070674   -0.555094   -1.165888
      3          6           0        3.590360   -1.596367   -0.975412
      4          7           0        4.204101   -2.766352   -0.552106
      5          6           0        5.483046   -2.482399   -0.588789
      6          1           0        6.280040   -3.175503   -0.317968
      7          7           0        1.968237    0.001787   -1.589899
      8          6           0        2.987744    0.834522   -1.823809
      9          1           0        2.706604    1.827503   -2.171990
     10          7           0        4.296249    0.625814   -1.692833
     11          6           0        4.532859   -0.623675   -1.260139
     12          6           0        2.239278   -1.248348   -1.155386
     13          7           0        1.222921   -2.081063   -0.921328
     14          1           0        1.376869   -3.015648   -0.598740
     15          1           0        0.273498   -1.799272   -1.060358
     16          1           0        7.616960   -1.064902   -1.830591
     17          1           0        6.945178    0.382703   -1.488240
     18          1           0        7.545823   -0.542567   -0.286081
     19          7           0        4.355647    1.479763    1.201389
     20          6           0        2.993792    1.608281    1.071377
     21          6           0        5.353634    2.469424    0.748283
     22          7           0        0.231614    3.430758    0.017482
     23          1           0       -0.762989    3.330765    0.020603
     24          1           0        0.602300    4.266824   -0.387848
     25          7           0        2.343768    2.651839    0.512367
     26          6           0        1.033090    2.486637    0.533404
     27          7           0        0.405048    1.384513    1.061052
     28          1           0       -0.602184    1.343246    1.033870
     29          6           0        1.053818    0.298998    1.641235
     30          8           0        0.392763   -0.646547    2.088087
     31          6           0        2.462392    0.462045    1.625951
     32          7           0        3.470337   -0.369345    2.094699
     33          6           0        4.573120    0.273820    1.821917
     34          1           0        5.575926   -0.087400    2.052526
     35          1           0        5.960452    2.048920    0.074668
     36          1           0        4.883815    3.246995    0.332455
     37          1           0        5.891024    2.785041    1.529576
     38          1           0       -5.582204    1.451336    0.013857
     39          1           0       -5.702148    1.987258    1.688085
     40          1           0       -4.282242    2.405488    0.728752
     41          1           0       -5.056035   -2.738211    2.319810
     42          6           0       -4.471303   -1.850703    2.077613
     43          8           0       -2.383444   -2.871105    2.553805
     44          6           0       -3.045865   -1.897897    2.194831
     45          1           0       -1.395032   -0.716572    1.934949
     46          7           0       -2.402868   -0.722026    1.864492
     47          8           0       -2.328614    1.441201    1.177367
     48          6           0       -2.983261    0.449758    1.447833
     49          1           0       -6.146800   -0.634529    1.568281
     50          6           0       -5.066275   -0.722209    1.673756
     51          6           0       -5.025805    1.645762    0.918674
     52          7           0       -4.361063    0.416426    1.359802
     53          1           0       -5.311596    2.751693   -3.047407
     54          1           0       -4.063706    3.070137   -2.045679
     55          1           0       -5.579250    2.956080   -1.450532
     56          1           0       -2.129908   -3.587635   -0.866738
     57          1           0       -3.803917   -3.449230   -1.164483
     58          7           0       -2.913643   -3.001699   -1.073106
     59          6           0       -2.778672   -1.682097   -1.220097
     60          6           0       -3.551170    0.530141   -1.633563
     61          7           0       -2.343363    1.103876   -1.505294
     62          1           0       -0.404486    0.568301   -1.112214
     63          6           0       -1.417464    0.186679   -1.232591
     64          7           0       -1.550657   -1.135455   -1.084970
     65          1           0       -6.739162    0.367414   -2.145818
     66          6           0       -5.689270    0.154209   -1.942834
     67          7           0       -5.203238   -1.040081   -1.708082
     68          6           0       -3.848471   -0.815941   -1.510311
     69          6           0       -4.940496    2.597931   -2.131635
     70          7           0       -4.745221    1.151515   -1.913107
 ---------------------------------------------------------------------

 SCF Done:  E(RwB97XD) =  -2048.74152818     A.U. after   15 cycles

 The electronic state is 1-A.
 Alpha  occ. eigenvalues --  -19.25320 -19.21570 -19.20541 -14.52499 -14.52056
 Alpha  occ. eigenvalues --  -14.49351 -14.48459 -14.47806 -14.47402 -14.46750
 Alpha  occ. eigenvalues --  -14.46510 -14.45622 -14.44193 -14.44190 -14.42872
 Alpha  occ. eigenvalues --  -14.41846 -14.41814 -14.41417 -14.40703 -14.40665
 Alpha  occ. eigenvalues --  -10.44936 -10.41099 -10.39752 -10.39696 -10.38135
 Alpha  occ. eigenvalues --  -10.38101 -10.37295 -10.37195 -10.35972 -10.35646
 Alpha  occ. eigenvalues --  -10.34855 -10.34514 -10.34299 -10.34101 -10.33863
 Alpha  occ. eigenvalues --  -10.33463 -10.33181 -10.32643 -10.31846 -10.30593
 Alpha  occ. eigenvalues --  -10.30385 -10.28974 -10.27932  -1.19074  -1.15404
 Alpha  occ. eigenvalues --   -1.13079  -1.12600  -1.11866  -1.10382  -1.09191
 Alpha  occ. eigenvalues --   -1.08893  -1.08427  -1.05555  -1.04641  -1.02099
 Alpha  occ. eigenvalues --   -1.01126  -1.01007  -0.99578  -0.98393  -0.97524
 Alpha  occ. eigenvalues --   -0.96717  -0.96339  -0.93222  -0.90598  -0.87762
 Alpha  occ. eigenvalues --   -0.86149  -0.84528  -0.83884  -0.83473  -0.82957
 Alpha  occ. eigenvalues --   -0.82151  -0.78444  -0.77062  -0.74879  -0.74422
 Alpha  occ. eigenvalues --   -0.73504  -0.73406  -0.72986  -0.71555  -0.70408
 Alpha  occ. eigenvalues --   -0.67223  -0.66874  -0.66741  -0.66176  -0.64327
 Alpha  occ. eigenvalues --   -0.64181  -0.63620  -0.63275  -0.62520  -0.62041
 Alpha  occ. eigenvalues --   -0.61602  -0.60896  -0.60495  -0.59544  -0.59153
 Alpha  occ. eigenvalues --   -0.58255  -0.58080  -0.57698  -0.57132  -0.56215
 Alpha  occ. eigenvalues --   -0.55969  -0.55685  -0.55377  -0.54362  -0.54030
 Alpha  occ. eigenvalues --   -0.53892  -0.53471  -0.53356  -0.52962  -0.52858
 Alpha  occ. eigenvalues --   -0.52722  -0.52388  -0.52228  -0.51234  -0.50746
 Alpha  occ. eigenvalues --   -0.50014  -0.49864  -0.49360  -0.49142  -0.48764
 Alpha  occ. eigenvalues --   -0.48527  -0.48357  -0.48118  -0.47548  -0.47163
 Alpha  occ. eigenvalues --   -0.46989  -0.45894  -0.45402  -0.44740  -0.43001
 Alpha  occ. eigenvalues --   -0.41535  -0.40762  -0.39105  -0.37753  -0.37657
 Alpha  occ. eigenvalues --   -0.37550  -0.37120  -0.36991  -0.36081  -0.34674
 Alpha  occ. eigenvalues --   -0.34297  -0.34202  -0.33861  -0.33580  -0.32868
 Alpha  occ. eigenvalues --   -0.32468  -0.32182  -0.31692  -0.31623  -0.31198
 Alpha  occ. eigenvalues --   -0.30969  -0.29411  -0.26190  -0.25354
 Alpha virt. eigenvalues --    0.03611   0.03857   0.07062   0.07331   0.08539
 Alpha virt. eigenvalues --    0.09025   0.09829   0.10317   0.10752   0.12493
 Alpha virt. eigenvalues --    0.13272   0.13644   0.13936   0.14250   0.14617

 Mulliken charges:
               1
     1  N   -0.305722
     2  C    0.173495
     3  C    0.076121
     4  N   -0.251492
     5  C    0.130160
     6  H    0.027108
     7  N   -0.285181
     8  C    0.136858
     9  H    0.012217
    10  N   -0.284408
    11  C    0.218379
    12  C    0.086846
    13  N   -0.047215
    14  H    0.110382
    15  H    0.086098
    16  H    0.029298
    17  H    0.041776
    18  H    0.020704
    19  N   -0.282187
    20  C    0.228274
    21  C    0.191011
    22  N   -0.111905
    23  H    0.116515
    24  H    0.116428
    25  N   -0.297925
    26  C    0.225733
    27  N   -0.138485
    28  H    0.118825
    29  C    0.177728
    30  O   -0.323024
    31  C   -0.007009
    32  N   -0.215567
    33  C    0.116562
    34  H    0.015376
    35  H    0.008566
    36  H    0.029497
    37  H    0.020364
    38  H    0.041849
    39  H    0.058246
    40  H    0.073411
    41  H    0.025233
    42  C   -0.106168
    43  O   -0.268671
    44  C    0.166379
    45  H    0.131419
    46  N   -0.114835
    47  O   -0.333784
    48  C    0.329664
    49  H    0.043048
    50  C    0.172916
    51  C    0.046508
    52  N   -0.274073
    53  H    0.037348
    54  H    0.042023
    55  H    0.020168
    56  H    0.124341
    57  H    0.119172
    58  N   -0.057259
    59  C    0.100222
    60  C    0.197309
    61  N   -0.250901
    62  H    0.034281
    63  C    0.147151
    64  N   -0.296646
    65  H    0.036884
    66  C    0.109545
    67  N   -0.245557
    68  C    0.048608
    69  C    0.176209
    70  N   -0.298239
 Sum of Mulliken charges =  -0.00000

 Dipole moment (field-independent basis, Debye):
    X=             -5.5887    Y=              6.3469    Z=             -4.3352  Tot=              9.5032
 Quadrupole moment (field-independent basis, Debye-Ang):
   XX=           -147.0436   YY=           -225.8763   ZZ=           -261.3835
   XY=            -10.8582   XZ=              3.6184   YZ=              8.6622

 Normal termination of Gaussian 16 at Fri Jan 19 13:29:37 2018.
