 Gaussian 16, Revision A.03,
 Gaussian 16:  EM64L-G16RevA.03 25-Dec-2016

 ---------------------------------------
 #p wb97xd/cc-pvdz sp scf=(maxcycles=20)
 ---------------------------------------

 ------------------
 Base pair stacking
 ------------------
 Symbolic Z-matrix:
 Charge =  0 Multiplicity = 1

                         Standard orientation:
 ---------------------------------------------------------------------
 Center     Atomic      Atomic             Coordinates (Angstroms)
 Number     Number       Type             X           Y           Z
 ---------------------------------------------------------------------
      1          7           0        5.460981   -1.132187   -1.230343
      2          6           0        6.780186   -0.478057   -1.329522
      3          6           0        3.294908   -1.512716   -1.205053
      4          7           0        3.906087   -2.731603   -0.949127
      5          6           0        5.186606   -2.453563   -0.974599
      6          1           0        5.982359   -3.181046   -0.811857
      7          7           0        1.675786    0.162004   -1.574768
      8          6           0        2.698094    1.011417   -1.719569
      9          1           0        2.419286    2.042913   -1.930637
     10          7           0        4.006928    0.779040   -1.643146
     11          6           0        4.240522   -0.517452   -1.380568
     12          6           0        1.943824   -1.135591   -1.311172
     13          7           0        0.924678   -1.985024   -1.166301
     14          1           0        1.076349   -2.954491   -0.970484
     15          1           0       -0.024659   -1.681462   -1.248516
     16          1           0        7.308999   -0.901021   -2.065482
     17          1           0        6.656998    0.494373   -1.525266
     18          1           0        7.272229   -0.582651   -0.465263
     19          7           0        4.660636    1.284893    1.148519
     20          6           0        3.297631    1.434721    1.060009
     21          6           0        5.659120    2.282023    0.713269
     22          7           0        0.532632    3.333711    0.159810
     23          1           0       -0.462752    3.245172    0.184599
     24          1           0        0.903368    4.182548   -0.218032
     25          7           0        2.646750    2.509392    0.564533
     26          6           0        1.335058    2.358543    0.612647
     27          7           0        0.706846    1.241509    1.107728
     28          1           0       -0.301198    1.213101    1.105163
     29          6           0        1.356488    0.124006    1.622532
     30          8           0        0.695184   -0.832665    2.044656
     31          6           0        2.766151    0.271318    1.577514
     32          7           0        3.775185   -0.591543    1.982761
     33          6           0        4.878667    0.050291    1.709646
     34          1           0        5.882401   -0.332318    1.897832
     35          1           0        6.243073    1.884721    0.006188
     36          1           0        5.188682    3.082572    0.344392
     37          1           0        6.220359    2.556593    1.493297
     38          1           0       -5.303988    1.423584    0.221719
     39          1           0       -5.374106    1.886368    1.920417
     40          1           0       -3.974110    2.330158    0.943466
     41          1           0       -4.771949   -2.869533    2.327104
     42          6           0       -4.182416   -1.979007    2.108830
     43          8           0       -2.096129   -3.043444    2.484936
     44          6           0       -2.755152   -2.047763    2.186478
     45          1           0       -1.096700   -0.875230    1.935486
     46          7           0       -2.105988   -0.865944    1.891296
     47          8           0       -2.021990    1.324525    1.298010
     48          6           0       -2.681990    0.329722    1.541782
     49          1           0       -5.854887   -0.722265    1.697415
     50          6           0       -4.773205   -0.826971    1.770594
     51          6           0       -4.722124    1.571417    1.119300
     52          7           0       -4.061919    0.316204    1.488506
     53          1           0       -5.605570    3.124502   -2.516996
     54          1           0       -4.335865    3.302473   -1.507915
     55          1           0       -5.840671    3.122113   -0.902026
     56          1           0       -2.439953   -3.464269   -1.239308
     57          1           0       -4.118043   -3.277654   -1.482779
     58          7           0       -3.222190   -2.851486   -1.352282
     59          6           0       -3.078146   -1.524863   -1.330059
     60          6           0       -3.838455    0.727242   -1.438227
     61          7           0       -2.623275    1.271708   -1.261255
     62          1           0       -0.682118    0.677230   -0.979994
     63          6           0       -1.700628    0.320960   -1.128228
     64          7           0       -1.842895   -1.008272   -1.150198
     65          1           0       -7.037034    0.652829   -1.902720
     66          6           0       -5.985399    0.408349   -1.750273
     67          7           0       -5.505747   -0.809400   -1.681831
     68          6           0       -4.145465   -0.621528   -1.484140
     69          6           0       -5.218365    2.851059   -1.636488
     70          7           0       -5.031992    1.387288   -1.610876
 ---------------------------------------------------------------------

 SCF Done:  E(RwB97XD) =  -2048.71966369     A.U. after   15 cycles

 The electronic state is 1-A.
 Alpha  occ. eigenvalues --  -19.25071 -19.21441 -19.20549 -14.52645 -14.51834
 Alpha  occ. eigenvalues --  -14.49186 -14.48612 -14.48152 -14.47265 -14.46654
 Alpha  occ. eigenvalues --  -14.46646 -14.45840 -14.44599 -14.44426 -14.42961
 Alpha  occ. eigenvalues --  -14.41833 -14.41658 -14.41223 -14.40882 -14.40707
 Alpha  occ. eigenvalues --  -10.44713 -10.41080 -10.40072 -10.39559 -10.38283
 Alpha  occ. eigenvalues --  -10.38155 -10.37385 -10.37145 -10.36080 -10.35989
 Alpha  occ. eigenvalues --  -10.34520 -10.34354 -10.34203 -10.33947 -10.33748
 Alpha  occ. eigenvalues --  -10.33414 -10.33402 -10.32869 -10.31860 -10.30662
 Alpha  occ. eigenvalues --  -10.30559 -10.28857 -10.28073  -1.18953  -1.15792
 Alpha  occ. eigenvalues --   -1.13134  -1.12475  -1.11731  -1.10486  -1.09521
 Alpha  occ. eigenvalues --   -1.08753  -1.08487  -1.05576  -1.04979  -1.01946
 Alpha  occ. eigenvalues --   -1.01453  -1.01010  -0.99659  -0.98445  -0.97468
 Alpha  occ. eigenvalues --   -0.97060  -0.96485  -0.93256  -0.90461  -0.88023
 Alpha  occ. eigenvalues --   -0.86418  -0.84500  -0.84019  -0.83195  -0.82972
 Alpha  occ. eigenvalues --   -0.82306  -0.78314  -0.77341  -0.75176  -0.74541
 Alpha  occ. eigenvalues --   -0.73544  -0.73400  -0.72853  -0.71535  -0.70701
 Alpha  occ. eigenvalues --   -0.67338  -0.67051  -0.66838  -0.66125  -0.64598
 Alpha  occ. eigenvalues --   -0.64285  -0.63825  -0.63264  -0.62583  -0.62354
 Alpha  occ. eigenvalues --   -0.61710  -0.61007  -0.60732  -0.59822  -0.59102
 Alpha  occ. eigenvalues --   -0.58422  -0.58230  -0.58041  -0.57126  -0.56265
 Alpha  occ. eigenvalues --   -0.55930  -0.55794  -0.55457  -0.54176  -0.54012
 Alpha  occ. eigenvalues --   -0.53945  -0.53752  -0.53445  -0.53171  -0.53038
 Alpha  occ. eigenvalues --   -0.52827  -0.52271  -0.51928  -0.51107  -0.50623
 Alpha  occ. eigenvalues --   -0.50262  -0.49878  -0.49397  -0.49100  -0.48828
 Alpha  occ. eigenvalues --   -0.48558  -0.48118  -0.48083  -0.47702  -0.47101
 Alpha  occ. eigenvalues --   -0.47021  -0.45931  -0.45344  -0.44932  -0.42828
 Alpha  occ. eigenvalues --   -0.41341  -0.41095  -0.38952  -0.37840  -0.37737
 Alpha  occ. eigenvalues --   -0.37622  -0.37121  -0.36850  -0.36078  -0.34967
 Alpha  occ. eigenvalues --   -0.34604  -0.34297  -0.34012  -0.33477  -0.32837
 Alpha  occ. eigenvalues --   -0.32454  -0.32040  -0.31734  -0.31359  -0.31286
 Alpha  occ. eigenvalues --   -0.30858  -0.29571  -0.26311  -0.25244
 Alpha virt. eigenvalues --    0.03264   0.03934   0.06932   0.07616   0.08738
 Alpha virt. eigenvalues --    0.09077   0.09644   0.10034   0.10667   0.12736
 Alpha virt. eigenvalues --    0.13237   0.13465   0.14135   0.14237   0.14446

 Mulliken charges:
               1
     1  N   -0.300884
     2  C    0.172833
     3  C    0.082526
     4  N   -0.253633
     5  C    0.133768
     6  H    0.026032
     7  N   -0.283160
     8  C    0.136518
     9  H    0.010400
    10  N   -0.280703
    11  C    0.213991
    12  C    0.076805
    13  N   -0.047762
    14  H    0.110171
    15  H    0.084426
    16  H    0.028524
    17  H    0.044448
    18  H    0.017430
    19  N   -0.279121
    20  C    0.223525
    21  C    0.198316
    22  N   -0.111011
    23  H    0.118987
    24  H    0.117192
    25  N   -0.288185
    26  C    0.214636
    27  N   -0.121564
    28  H    0.113315
    29  C    0.171670
    30  O   -0.321325
    31  C    0.002163
    32  N   -0.214543
    33  C    0.107456
    34  H    0.016687
    35  H   -0.006582
    36  H    0.031901
    37  H    0.022312
    38  H    0.052795
    39  H    0.051026
    40  H    0.072991
    41  H    0.025055
    42  C   -0.103913
    43  O   -0.268599
    44  C    0.169506
    45  H    0.129341
    46  N   -0.111913
    47  O   -0.334061
    48  C    0.326791
    49  H    0.044217
    50  C    0.168337
    51  C    0.046710
    52  N   -0.272465
    53  H    0.037864
    54  H    0.043383
    55  H    0.025474
    56  H    0.123904
    57  H    0.119495
    58  N   -0.060266
    59  C    0.097541
    60  C    0.166378
    61  N   -0.245617
    62  H    0.016274
    63  C    0.161475
    64  N   -0.295329
    65  H    0.035944
    66  C    0.114612
    67  N   -0.246698
    68  C    0.064158
    69  C    0.175405
    70  N   -0.297375
 Sum of Mulliken charges =  -0.00000

 Dipole moment (field-independent basis, Debye):
    X=             -5.6503    Y=              6.7604    Z=             -4.0996  Tot=              9.7178
 Quadrupole moment (field-independent basis, Debye-Ang):
   XX=           -148.6487   YY=           -227.6147   ZZ=           -260.9824
   XY=             -8.9813   XZ=             -0.6937   YZ=             12.1156

 Normal termination of Gaussian 16 at Fri Jan 19 18:34:59 2018.
