 Gaussian 16, Revision A.03,
 Gaussian 16:  EM64L-G16RevA.03 25-Dec-2016

 ---------------------------------------
 #p wb97xd/cc-pvdz sp scf=(maxcycles=20)
 ---------------------------------------

 ------------------
 Base pair stacking
 ------------------
 Symbolic Z-matrix:
 Charge =  0 Multiplicity = 1

                         Standard orientation:
 ---------------------------------------------------------------------
 Center     Atomic      Atomic             Coordinates (Angstroms)
 Number     Number       Type             X           Y           Z
 ---------------------------------------------------------------------
      1          7           0       -6.349313   -1.229031    0.530980
      2          6           0       -7.663328   -0.635014    0.844857
      3          6           0       -4.190499   -1.639927    0.441401
      4          7           0       -4.802017   -2.603416   -0.347571
      5          6           0       -6.078142   -2.317297   -0.262025
      6          1           0       -6.872789   -2.872213   -0.761575
      7          7           0       -2.573284   -0.352541    1.577255
      8          6           0       -3.590956    0.386555    2.030760
      9          1           0       -3.311149    1.213050    2.682585
     10          7           0       -4.896234    0.258575    1.801070
     11          6           0       -5.131447   -0.785722    0.989557
     12          6           0       -2.842838   -1.396117    0.762776
     13          7           0       -1.828322   -2.135065    0.309047
     14          1           0       -1.981268   -2.917027   -0.296237
     15          1           0       -0.881322   -1.932354    0.558545
     16          1           0       -8.238781   -1.315922    1.298061
     17          1           0       -7.538767    0.150691    1.450067
     18          1           0       -8.106577   -0.335779   -0.000122
     19          7           0       -3.698101    1.965275   -1.199092
     20          6           0       -2.339175    2.024228   -1.004414
     21          6           0       -4.672811    2.967897   -0.724324
     22          7           0        0.447532    3.650856    0.280142
     23          1           0        1.436216    3.506868    0.311897
     24          1           0        0.094631    4.475311    0.723364
     25          7           0       -1.671388    3.000139   -0.351956
     26          6           0       -0.369157    2.778125   -0.329172
     27          7           0        0.234882    1.684662   -0.900993
     28          1           0        1.237292    1.596732   -0.834674
     29          6           0       -0.432478    0.668202   -1.577238
     30          8           0        0.207505   -0.275758   -2.056923
     31          6           0       -1.832245    0.892811   -1.609991
     32          7           0       -2.852394    0.138730   -2.173506
     33          6           0       -3.938239    0.812012   -1.905473
     34          1           0       -4.944085    0.511357   -2.200684
     35          1           0       -5.326056    2.533139   -0.105404
     36          1           0       -4.189696    3.695749   -0.239464
     37          1           0       -5.161258    3.356111   -1.505045
     38          1           0        6.167251    1.417045    0.396573
     39          1           0        6.383806    2.052070   -1.232690
     40          1           0        4.941514    2.471780   -0.308038
     41          1           0        5.568620   -2.590227   -2.197647
     42          6           0        5.011468   -1.694585   -1.922619
     43          8           0        2.905833   -2.588317   -2.550823
     44          6           0        3.591925   -1.670428   -2.101876
     45          1           0        1.982214   -0.435267   -1.834418
     46          7           0        2.984810   -0.490262   -1.722588
     47          8           0        2.970979    1.626238   -0.899503
     48          6           0        3.594803    0.625624   -1.206587
     49          1           0        6.712272   -0.589309   -1.265757
     50          6           0        5.634761   -0.621696   -1.421597
     51          6           0        5.660224    1.693110   -0.516004
     52          7           0        4.964723    0.525172   -1.063659
     53          1           0        4.680670    1.637728    4.047334
     54          1           0        3.473061    2.282674    3.159748
     55          1           0        5.007499    2.328307    2.605212
     56          1           0        1.506960   -3.621474   -0.116066
     57          1           0        3.170733   -3.620752    0.260724
     58          7           0        2.289444   -3.147678    0.288151
     59          6           0        2.164330   -1.938748    0.839508
     60          6           0        2.946702    0.013369    1.952547
     61          7           0        1.750853    0.624811    1.975148
     62          1           0       -0.178722    0.283048    1.374687
     63          6           0        0.824901   -0.139311    1.399253
     64          7           0        0.948228   -1.350413    0.846448
     65          1           0        6.112300   -0.372563    2.483755
     66          6           0        5.067965   -0.487844    2.192187
     67          7           0        4.577065   -1.536558    1.578274
     68          6           0        3.232870   -1.231752    1.420278
     69          6           0        4.340790    1.788197    3.118983
     70          7           0        4.136992    0.488716    2.449785
 ---------------------------------------------------------------------

 SCF Done:  E(RwB97XD) =  -2048.75396686     A.U. after   15 cycles

 The electronic state is 1-A.
 Alpha  occ. eigenvalues --  -19.25844 -19.21946 -19.20620 -14.52452 -14.51800
 Alpha  occ. eigenvalues --  -14.49410 -14.48577 -14.47783 -14.46839 -14.46721
 Alpha  occ. eigenvalues --  -14.46529 -14.44720 -14.43352 -14.43204 -14.42620
 Alpha  occ. eigenvalues --  -14.41953 -14.41907 -14.41572 -14.40725 -14.40691
 Alpha  occ. eigenvalues --  -10.45471 -10.41107 -10.40043 -10.38837 -10.38165
 Alpha  occ. eigenvalues --  -10.37579 -10.37265 -10.36351 -10.35924 -10.35673
 Alpha  occ. eigenvalues --  -10.34947 -10.34636 -10.34187 -10.33939 -10.33618
 Alpha  occ. eigenvalues --  -10.33616 -10.33198 -10.31717 -10.31649 -10.30794
 Alpha  occ. eigenvalues --  -10.30387 -10.29072 -10.27959  -1.19437  -1.14447
 Alpha  occ. eigenvalues --   -1.13136  -1.13005  -1.11959  -1.10452  -1.09298
 Alpha  occ. eigenvalues --   -1.08480  -1.08177  -1.05540  -1.03699  -1.02489
 Alpha  occ. eigenvalues --   -1.00947  -1.00191  -0.99625  -0.98433  -0.97525
 Alpha  occ. eigenvalues --   -0.96377  -0.95780  -0.93184  -0.90875  -0.86879
 Alpha  occ. eigenvalues --   -0.85312  -0.84537  -0.83933  -0.83831  -0.82906
 Alpha  occ. eigenvalues --   -0.82193  -0.78778  -0.76141  -0.74487  -0.73915
 Alpha  occ. eigenvalues --   -0.73540  -0.73430  -0.73309  -0.71599  -0.69500
 Alpha  occ. eigenvalues --   -0.67261  -0.66830  -0.66483  -0.65831  -0.64392
 Alpha  occ. eigenvalues --   -0.63636  -0.63420  -0.63135  -0.62564  -0.61621
 Alpha  occ. eigenvalues --   -0.60784  -0.60715  -0.59671  -0.59398  -0.58730
 Alpha  occ. eigenvalues --   -0.58319  -0.58236  -0.57213  -0.57045  -0.56303
 Alpha  occ. eigenvalues --   -0.55917  -0.55852  -0.54787  -0.54655  -0.54315
 Alpha  occ. eigenvalues --   -0.53588  -0.53497  -0.52835  -0.52765  -0.52633
 Alpha  occ. eigenvalues --   -0.52448  -0.52312  -0.52022  -0.51353  -0.50748
 Alpha  occ. eigenvalues --   -0.50021  -0.49672  -0.49429  -0.49115  -0.48928
 Alpha  occ. eigenvalues --   -0.48690  -0.48257  -0.47913  -0.47492  -0.47467
 Alpha  occ. eigenvalues --   -0.47346  -0.45519  -0.45393  -0.43916  -0.43501
 Alpha  occ. eigenvalues --   -0.41739  -0.39916  -0.39415  -0.37722  -0.37179
 Alpha  occ. eigenvalues --   -0.37149  -0.37063  -0.36715  -0.35802  -0.34223
 Alpha  occ. eigenvalues --   -0.34130  -0.33881  -0.33790  -0.33370  -0.33187
 Alpha  occ. eigenvalues --   -0.32613  -0.32162  -0.31799  -0.31726  -0.31496
 Alpha  occ. eigenvalues --   -0.30938  -0.28794  -0.26338  -0.25242
 Alpha virt. eigenvalues --    0.03113   0.04865   0.07400   0.08021   0.08413
 Alpha virt. eigenvalues --    0.08979   0.09871   0.10510   0.10830   0.11797
 Alpha virt. eigenvalues --    0.13238   0.13580   0.14292   0.14667   0.15091

 Mulliken charges:
               1
     1  N   -0.309887
     2  C    0.179554
     3  C    0.053956
     4  N   -0.250685
     5  C    0.126535
     6  H    0.027642
     7  N   -0.284449
     8  C    0.133964
     9  H    0.015266
    10  N   -0.291933
    11  C    0.230295
    12  C    0.097998
    13  N   -0.041567
    14  H    0.110893
    15  H    0.091218
    16  H    0.028322
    17  H    0.034823
    18  H    0.023222
    19  N   -0.301079
    20  C    0.254898
    21  C    0.182819
    22  N   -0.116368
    23  H    0.113993
    24  H    0.116882
    25  N   -0.306230
    26  C    0.235246
    27  N   -0.142701
    28  H    0.122902
    29  C    0.169853
    30  O   -0.324870
    31  C   -0.008860
    32  N   -0.223120
    33  C    0.126714
    34  H    0.022684
    35  H    0.023200
    36  H    0.027667
    37  H    0.020677
    38  H    0.042953
    39  H    0.063527
    40  H    0.075909
    41  H    0.026254
    42  C   -0.091417
    43  O   -0.275452
    44  C    0.163506
    45  H    0.135258
    46  N   -0.124226
    47  O   -0.343783
    48  C    0.342113
    49  H    0.043676
    50  C    0.178876
    51  C    0.040505
    52  N   -0.279159
    53  H    0.033670
    54  H    0.039483
    55  H    0.015166
    56  H    0.123490
    57  H    0.118003
    58  N   -0.041654
    59  C    0.105522
    60  C    0.235480
    61  N   -0.273444
    62  H    0.035373
    63  C    0.157237
    64  N   -0.303745
    65  H    0.032258
    66  C    0.112819
    67  N   -0.246236
    68  C    0.007609
    69  C    0.183224
    70  N   -0.302266
 Sum of Mulliken charges =  -0.00000

 Dipole moment (field-independent basis, Debye):
    X=              5.6524    Y=              5.7662    Z=              4.1701  Tot=              9.0878
 Quadrupole moment (field-independent basis, Debye-Ang):
   XX=           -143.7331   YY=           -224.8509   ZZ=           -258.2913
   XY=             10.8358   XZ=             12.8854   YZ=             -0.9153

 Normal termination of Gaussian 16 at Sat Jan 20 04:30:10 2018.
