 Gaussian 16, Revision A.03,
 Gaussian 16:  EM64L-G16RevA.03 25-Dec-2016

 ---------------------------------------
 #p wb97xd/cc-pvdz sp scf=(maxcycles=20)
 ---------------------------------------

 ------------------
 Base pair stacking
 ------------------
 Symbolic Z-matrix:
 Charge =  0 Multiplicity = 1

                         Standard orientation:
 ---------------------------------------------------------------------
 Center     Atomic      Atomic             Coordinates (Angstroms)
 Number     Number       Type             X           Y           Z
 ---------------------------------------------------------------------
      1          7           0        4.877013   -1.014038   -1.633425
      2          6           0        6.199089   -0.367259   -1.742124
      3          6           0        2.709859   -1.372175   -1.521840
      4          7           0        3.314421   -2.617139   -1.425370
      5          6           0        4.595863   -2.351548   -1.496459
      6          1           0        5.387493   -3.100174   -1.453780
      7          7           0        1.100132    0.348457   -1.627444
      8          6           0        2.126448    1.197281   -1.744731
      9          1           0        1.853148    2.247748   -1.834608
     10          7           0        3.433538    0.944498   -1.767546
     11          6           0        3.660268   -0.374341   -1.650539
     12          6           0        1.361290   -0.971936   -1.511526
     13          7           0        0.338134   -1.820820   -1.394354
     14          1           0        0.484685   -2.806692   -1.306064
     15          1           0       -0.609223   -1.500448   -1.390823
     16          1           0        6.678699   -0.719066   -2.546105
     17          1           0        6.081021    0.621258   -1.831687
     18          1           0        6.737167   -0.564074   -0.922533
     19          7           0        5.237951    1.065705    0.984238
     20          6           0        3.874756    1.238179    0.989860
     21          6           0        6.226573    2.091158    0.594682
     22          7           0        1.094976    3.247821    0.445885
     23          1           0        0.101248    3.167779    0.518925
     24          1           0        1.457732    4.126584    0.134591
     25          7           0        3.214732    2.364354    0.643259
     26          6           0        1.905522    2.223332    0.751408
     27          7           0        1.287936    1.068612    1.167014
     28          1           0        0.281012    1.051301    1.219656
     29          6           0        1.947114   -0.102121    1.528592
     30          8           0        1.295017   -1.089574    1.889754
     31          6           0        3.354243    0.034025    1.417512
     32          7           0        4.370205   -0.876101    1.675179
     33          6           0        5.466945   -0.221642    1.404888
     34          1           0        6.473269   -0.631958    1.495544
     35          1           0        6.763269    1.761376   -0.181213
     36          1           0        5.749308    2.929904    0.335871
     37          1           0        6.835190    2.279326    1.364741
     38          1           0       -4.759410    1.403246    0.651410
     39          1           0       -4.726339    1.692260    2.389236
     40          1           0       -3.376405    2.217884    1.382867
     41          1           0       -4.180193   -3.086489    2.280323
     42          6           0       -3.589371   -2.184725    2.119107
     43          8           0       -1.502936   -3.303867    2.265517
     44          6           0       -2.161315   -2.276131    2.107124
     45          1           0       -0.500614   -1.101854    1.880231
     46          7           0       -1.510516   -1.077432    1.895386
     47          8           0       -1.424163    1.160860    1.521503
     48          6           0       -2.085609    0.153533    1.701614
     49          1           0       -5.261527   -0.875110    1.933132
     50          6           0       -4.179301   -0.998161    1.932996
     51          6           0       -4.125665    1.453195    1.524297
     52          7           0       -3.466382    0.160109    1.726801
     53          1           0       -6.173214    3.468222   -1.846182
     54          1           0       -4.846034    3.529567   -0.899103
     55          1           0       -6.317158    3.304708   -0.228787
     56          1           0       -3.049040   -3.249293   -1.421858
     57          1           0       -4.734884   -3.021186   -1.548298
     58          7           0       -3.826243   -2.619960   -1.427413
     59          6           0       -3.659498   -1.304014   -1.280249
     60          6           0       -4.387723    0.955397   -1.117468
     61          7           0       -3.155767    1.466214   -0.956917
     62          1           0       -1.211854    0.825739   -0.849095
     63          6           0       -2.242781    0.497142   -0.973503
     64          7           0       -2.407795   -0.821440   -1.120783
     65          1           0       -7.608131    0.962347   -1.402130
     66          6           0       -6.553736    0.692554   -1.335843
     67          7           0       -6.090985   -0.530893   -1.417925
     68          6           0       -4.718862   -0.378444   -1.280998
     69          6           0       -5.741646    3.102878   -1.021390
     70          7           0       -5.578110    1.642150   -1.153859
 ---------------------------------------------------------------------

 SCF Done:  E(RwB97XD) =  -2048.71088709     A.U. after   15 cycles

 The electronic state is 1-A.
 Alpha  occ. eigenvalues --  -19.25034 -19.21304 -19.20637 -14.52964 -14.51579
 Alpha  occ. eigenvalues --  -14.49200 -14.48929 -14.48544 -14.47119 -14.46575
 Alpha  occ. eigenvalues --  -14.46507 -14.45873 -14.44743 -14.44561 -14.43004
 Alpha  occ. eigenvalues --  -14.41645 -14.41407 -14.41381 -14.41214 -14.40877
 Alpha  occ. eigenvalues --  -10.44680 -10.40906 -10.40462 -10.39406 -10.38425
 Alpha  occ. eigenvalues --  -10.38223 -10.37657 -10.36994 -10.36296 -10.35972
 Alpha  occ. eigenvalues --  -10.34512 -10.34417 -10.34148 -10.33835 -10.33635
 Alpha  occ. eigenvalues --  -10.33441 -10.33242 -10.33141 -10.31513 -10.31342
 Alpha  occ. eigenvalues --  -10.30333 -10.28741 -10.28307  -1.18802  -1.15962
 Alpha  occ. eigenvalues --   -1.13251  -1.12329  -1.11521  -1.10832  -1.09817
 Alpha  occ. eigenvalues --   -1.08602  -1.08453  -1.05608  -1.05358  -1.01739
 Alpha  occ. eigenvalues --   -1.01546  -1.01021  -0.99645  -0.98530  -0.97481
 Alpha  occ. eigenvalues --   -0.97197  -0.96817  -0.93304  -0.90220  -0.88273
 Alpha  occ. eigenvalues --   -0.86478  -0.84676  -0.84034  -0.83049  -0.82713
 Alpha  occ. eigenvalues --   -0.82597  -0.78107  -0.77585  -0.75458  -0.74788
 Alpha  occ. eigenvalues --   -0.73695  -0.73241  -0.72618  -0.71520  -0.70930
 Alpha  occ. eigenvalues --   -0.67461  -0.67324  -0.66724  -0.65910  -0.64776
 Alpha  occ. eigenvalues --   -0.64419  -0.63583  -0.63224  -0.62581  -0.62079
 Alpha  occ. eigenvalues --   -0.61799  -0.61085  -0.60904  -0.60043  -0.58961
 Alpha  occ. eigenvalues --   -0.58693  -0.58570  -0.58267  -0.57078  -0.56255
 Alpha  occ. eigenvalues --   -0.55835  -0.55603  -0.55443  -0.54766  -0.54448
 Alpha  occ. eigenvalues --   -0.54184  -0.54013  -0.53390  -0.53194  -0.52966
 Alpha  occ. eigenvalues --   -0.52473  -0.52038  -0.51524  -0.50989  -0.50535
 Alpha  occ. eigenvalues --   -0.50254  -0.49947  -0.49393  -0.49290  -0.48984
 Alpha  occ. eigenvalues --   -0.48543  -0.48407  -0.48075  -0.47748  -0.47410
 Alpha  occ. eigenvalues --   -0.47003  -0.45839  -0.45333  -0.44902  -0.42218
 Alpha  occ. eigenvalues --   -0.41327  -0.41120  -0.38829  -0.38108  -0.38020
 Alpha  occ. eigenvalues --   -0.37791  -0.37154  -0.36628  -0.35772  -0.35113
 Alpha  occ. eigenvalues --   -0.34721  -0.34344  -0.33853  -0.33456  -0.32952
 Alpha  occ. eigenvalues --   -0.32876  -0.32420  -0.31907  -0.31131  -0.31034
 Alpha  occ. eigenvalues --   -0.30446  -0.30414  -0.26786  -0.24849
 Alpha virt. eigenvalues --    0.03424   0.03851   0.06555   0.06721   0.08275
 Alpha virt. eigenvalues --    0.09078   0.09770   0.09920   0.11396   0.12778
 Alpha virt. eigenvalues --    0.12985   0.13354   0.14121   0.14354   0.14905

 Mulliken charges:
               1
     1  N   -0.297114
     2  C    0.180717
     3  C    0.072111
     4  N   -0.254424
     5  C    0.144094
     6  H    0.026299
     7  N   -0.280441
     8  C    0.137434
     9  H    0.002015
    10  N   -0.266024
    11  C    0.221790
    12  C    0.066631
    13  N   -0.051555
    14  H    0.111906
    15  H    0.083786
    16  H    0.027575
    17  H    0.036888
    18  H    0.006405
    19  N   -0.293325
    20  C    0.237934
    21  C    0.189463
    22  N   -0.099137
    23  H    0.121196
    24  H    0.118847
    25  N   -0.262650
    26  C    0.152306
    27  N   -0.101482
    28  H    0.118826
    29  C    0.165418
    30  O   -0.319276
    31  C    0.005149
    32  N   -0.210465
    33  C    0.093728
    34  H    0.027736
    35  H    0.001893
    36  H    0.034745
    37  H    0.025158
    38  H    0.040273
    39  H    0.042737
    40  H    0.079089
    41  H    0.023289
    42  C   -0.099709
    43  O   -0.269717
    44  C    0.173024
    45  H    0.129225
    46  N   -0.113314
    47  O   -0.343653
    48  C    0.318534
    49  H    0.045041
    50  C    0.158848
    51  C    0.066919
    52  N   -0.274816
    53  H    0.038311
    54  H    0.042503
    55  H    0.030678
    56  H    0.123516
    57  H    0.120139
    58  N   -0.059992
    59  C    0.106980
    60  C    0.187355
    61  N   -0.263269
    62  H    0.014184
    63  C    0.184034
    64  N   -0.307828
    65  H    0.037609
    66  C    0.130017
    67  N   -0.250643
    68  C    0.046711
    69  C    0.178069
    70  N   -0.308301
 Sum of Mulliken charges =  -0.00000

 Dipole moment (field-independent basis, Debye):
    X=             -5.8998    Y=              7.3574    Z=             -3.0778  Tot=              9.9202
 Quadrupole moment (field-independent basis, Debye-Ang):
   XX=           -149.1698   YY=           -230.9146   ZZ=           -257.6096
   XY=             -4.4899   XZ=             -8.1565   YZ=             15.6043

 Normal termination of Gaussian 16 at Fri Jan 19 20:12:36 2018.
