 Gaussian 16, Revision A.03,
 Gaussian 16:  EM64L-G16RevA.03 25-Dec-2016

 ---------------------------------------
 #p wb97xd/cc-pvdz sp scf=(maxcycles=20)
 ---------------------------------------

 ------------------
 Base pair stacking
 ------------------
 Symbolic Z-matrix:
 Charge =  0 Multiplicity = 1

                         Standard orientation:
 ---------------------------------------------------------------------
 Center     Atomic      Atomic             Coordinates (Angstroms)
 Number     Number       Type             X           Y           Z
 ---------------------------------------------------------------------
      1          7           0       -4.840863   -2.289803    0.603793
      2          6           0       -6.135706   -2.193758    1.305342
      3          6           0       -2.698186   -2.203308    0.115178
      4          7           0       -3.334520   -2.694717   -1.015443
      5          6           0       -4.599941   -2.727166   -0.675826
      6          1           0       -5.407877   -3.064334   -1.325824
      7          7           0       -1.049613   -1.448787    1.623775
      8          6           0       -2.044831   -1.253750    2.495018
      9          1           0       -1.743165   -0.862150    3.465540
     10          7           0       -3.350611   -1.468801    2.348088
     11          6           0       -3.613717   -1.949103    1.121508
     12          6           0       -1.346958   -1.932979    0.398121
     13          7           0       -0.354879   -2.128352   -0.472955
     14          1           0       -0.528770   -2.485161   -1.391467
     15          1           0        0.595472   -1.924819   -0.237259
     16          1           0       -6.554816   -3.100142    1.359940
     17          1           0       -5.990034   -1.838798    2.228328
     18          1           0       -6.743356   -1.577042    0.804925
     19          7           0       -5.250158    1.760982   -0.052408
     20          6           0       -3.890929    1.952787    0.008866
     21          6           0       -6.245761    2.424048    0.813503
     22          7           0       -1.133390    3.499859    1.445623
     23          1           0       -0.140777    3.496209    1.327476
     24          1           0       -1.502987    4.093506    2.160947
     25          7           0       -3.241725    2.772618    0.863526
     26          6           0       -1.933690    2.743015    0.679717
     27          7           0       -1.307358    1.970342   -0.268014
     28          1           0       -0.302117    2.011134   -0.337260
     29          6           0       -1.955323    1.119487   -1.157976
     30          8           0       -1.295975    0.465249   -1.975265
     31          6           0       -3.361058    1.140553   -0.972629
     32          7           0       -4.367388    0.452672   -1.636717
     33          6           0       -5.467728    0.851402   -1.058382
     34          1           0       -6.468715    0.512488   -1.327536
     35          1           0       -6.754925    1.734480    1.327369
     36          1           0       -5.776528    3.033886    1.450835
     37          1           0       -6.878602    2.954757    0.250764
     38          1           0        4.744990    2.178080    0.255591
     39          1           0        4.658931    3.297547   -1.102355
     40          1           0        3.328105    3.208759    0.051920
     41          1           0        4.201042   -0.906691   -3.396102
     42          6           0        3.598947   -0.224636   -2.795668
     43          8           0        1.529501   -1.180299   -3.452338
     44          6           0        2.173614   -0.351388   -2.809828
     45          1           0        0.499177    0.502269   -1.999976
     46          7           0        1.507690    0.560460   -2.015908
     47          8           0        1.391881    2.306855   -0.568881
     48          6           0        2.065920    1.545011   -1.239646
     49          1           0        5.252045    0.863876   -2.003079
     50          6           0        4.172599    0.725778   -2.048516
     51          6           0        4.086659    2.639998   -0.465032
     52          7           0        3.445144    1.603627   -1.278735
     53          1           0        6.280703    0.178411    4.133952
     54          1           0        4.881714    0.970073    3.854322
     55          1           0        6.287698    1.571310    3.283536
     56          1           0        2.992480   -2.550643   -1.932790
     57          1           0        4.687409   -2.455805   -1.764551
     58          7           0        3.780490   -2.232666   -1.405477
     59          6           0        3.629755   -1.541708   -0.273655
     60          6           0        4.389190   -0.370126    1.653097
     61          7           0        3.159156   -0.084944    2.111475
     62          1           0        1.200004   -0.391794    1.593617
     63          6           0        2.230575   -0.578704    1.294874
     64          7           0        2.379531   -1.271016    0.160811
     65          1           0        7.621549   -0.413305    1.606582
     66          6           0        6.559860   -0.539144    1.392269
     67          7           0        6.079962   -1.172546    0.350077
     68          6           0        4.704706   -1.072835    0.503238
     69          6           0        5.775231    0.733808    3.473621
     70          7           0        5.592635   -0.028102    2.222952
 ---------------------------------------------------------------------

 SCF Done:  E(RwB97XD) =  -2048.73295859     A.U. after   15 cycles

 The electronic state is 1-A.
 Alpha  occ. eigenvalues --  -19.25434 -19.22551 -19.20863 -14.52501 -14.51863
 Alpha  occ. eigenvalues --  -14.49278 -14.48345 -14.47657 -14.47592 -14.47098
 Alpha  occ. eigenvalues --  -14.46903 -14.45442 -14.44466 -14.44400 -14.42264
 Alpha  occ. eigenvalues --  -14.42053 -14.41414 -14.40822 -14.40649 -14.40275
 Alpha  occ. eigenvalues --  -10.45000 -10.41497 -10.40315 -10.39731 -10.38506
 Alpha  occ. eigenvalues --  -10.38013 -10.37287 -10.36596 -10.35876 -10.35274
 Alpha  occ. eigenvalues --  -10.34841 -10.34739 -10.33873 -10.33866 -10.33506
 Alpha  occ. eigenvalues --  -10.33091 -10.32998 -10.32783 -10.31413 -10.30920
 Alpha  occ. eigenvalues --  -10.30899 -10.28514 -10.28220  -1.19029  -1.15255
 Alpha  occ. eigenvalues --   -1.13487  -1.13427  -1.11016  -1.10887  -1.09430
 Alpha  occ. eigenvalues --   -1.08886  -1.08722  -1.04934  -1.04870  -1.02349
 Alpha  occ. eigenvalues --   -1.00992  -1.00236  -0.99993  -0.98850  -0.97030
 Alpha  occ. eigenvalues --   -0.96981  -0.96479  -0.92585  -0.90661  -0.87672
 Alpha  occ. eigenvalues --   -0.85902  -0.84543  -0.83648  -0.83288  -0.82926
 Alpha  occ. eigenvalues --   -0.82090  -0.78531  -0.77044  -0.75001  -0.74883
 Alpha  occ. eigenvalues --   -0.73900  -0.73159  -0.72632  -0.70837  -0.70416
 Alpha  occ. eigenvalues --   -0.67697  -0.66964  -0.66168  -0.66015  -0.64724
 Alpha  occ. eigenvalues --   -0.64315  -0.63661  -0.62855  -0.62469  -0.62084
 Alpha  occ. eigenvalues --   -0.60634  -0.60408  -0.60227  -0.59415  -0.59045
 Alpha  occ. eigenvalues --   -0.58981  -0.58609  -0.57254  -0.56360  -0.56056
 Alpha  occ. eigenvalues --   -0.55913  -0.55388  -0.55142  -0.54472  -0.54264
 Alpha  occ. eigenvalues --   -0.53853  -0.53783  -0.53640  -0.53289  -0.53252
 Alpha  occ. eigenvalues --   -0.52765  -0.52189  -0.51548  -0.50616  -0.50510
 Alpha  occ. eigenvalues --   -0.50185  -0.49908  -0.49784  -0.49340  -0.49051
 Alpha  occ. eigenvalues --   -0.48747  -0.48700  -0.48160  -0.47942  -0.47507
 Alpha  occ. eigenvalues --   -0.46739  -0.46029  -0.45525  -0.44687  -0.42462
 Alpha  occ. eigenvalues --   -0.40906  -0.40732  -0.39202  -0.38265  -0.37600
 Alpha  occ. eigenvalues --   -0.37529  -0.37479  -0.36814  -0.36040  -0.34630
 Alpha  occ. eigenvalues --   -0.34419  -0.34111  -0.33694  -0.33371  -0.33149
 Alpha  occ. eigenvalues --   -0.33037  -0.32634  -0.31980  -0.31645  -0.30700
 Alpha  occ. eigenvalues --   -0.30262  -0.29260  -0.26257  -0.25109
 Alpha virt. eigenvalues --    0.02875   0.04331   0.07375   0.08031   0.08668
 Alpha virt. eigenvalues --    0.08876   0.09515   0.10399   0.11187   0.11955
 Alpha virt. eigenvalues --    0.12855   0.13117   0.14222   0.14629   0.15005

 Mulliken charges:
               1
     1  N   -0.305904
     2  C    0.182715
     3  C    0.047504
     4  N   -0.242504
     5  C    0.145510
     6  H    0.023478
     7  N   -0.296713
     8  C    0.131414
     9  H    0.009766
    10  N   -0.287315
    11  C    0.237888
    12  C    0.084413
    13  N   -0.049227
    14  H    0.119253
    15  H    0.086587
    16  H    0.025659
    17  H    0.032732
    18  H    0.013350
    19  N   -0.310879
    20  C    0.260512
    21  C    0.182018
    22  N   -0.124487
    23  H    0.118279
    24  H    0.119436
    25  N   -0.312422
    26  C    0.251294
    27  N   -0.148407
    28  H    0.120597
    29  C    0.193307
    30  O   -0.321325
    31  C   -0.016168
    32  N   -0.215767
    33  C    0.114281
    34  H    0.021992
    35  H    0.023398
    36  H    0.032167
    37  H    0.025705
    38  H    0.053272
    39  H    0.057710
    40  H    0.074288
    41  H    0.014216
    42  C   -0.102733
    43  O   -0.279122
    44  C    0.169426
    45  H    0.128853
    46  N   -0.109904
    47  O   -0.353832
    48  C    0.341079
    49  H    0.042449
    50  C    0.163146
    51  C    0.046313
    52  N   -0.278224
    53  H    0.034820
    54  H    0.042869
    55  H    0.027164
    56  H    0.122696
    57  H    0.114807
    58  N   -0.045783
    59  C    0.082492
    60  C    0.234621
    61  N   -0.265633
    62  H    0.033004
    63  C    0.166740
    64  N   -0.304347
    65  H    0.037994
    66  C    0.133969
    67  N   -0.259541
    68  C    0.035275
    69  C    0.179863
    70  N   -0.310086
 Sum of Mulliken charges =  -0.00000

 Dipole moment (field-independent basis, Debye):
    X=              5.8398    Y=              5.6966    Z=              5.4550  Tot=              9.8138
 Quadrupole moment (field-independent basis, Debye-Ang):
   XX=           -148.0837   YY=           -228.7213   ZZ=           -252.5055
   XY=              8.5621   XZ=             -0.7827   YZ=             10.2982

 Normal termination of Gaussian 16 at Sat Jan 20 01:03:44 2018.
