 Gaussian 16, Revision A.03,
 Gaussian 16:  EM64L-G16RevA.03 25-Dec-2016

 ---------------------------------------
 #p wb97xd/cc-pvdz sp scf=(maxcycles=20)
 ---------------------------------------

 ------------------
 Base pair stacking
 ------------------
 Symbolic Z-matrix:
 Charge =  0 Multiplicity = 1

                         Standard orientation:
 ---------------------------------------------------------------------
 Center     Atomic      Atomic             Coordinates (Angstroms)
 Number     Number       Type             X           Y           Z
 ---------------------------------------------------------------------
      1          7           0       -6.623617   -1.097163    0.402677
      2          6           0       -7.932908   -0.469362    0.666506
      3          6           0       -4.471170   -1.548257    0.374178
      4          7           0       -5.083537   -2.529672   -0.391703
      5          6           0       -6.355805   -2.218621   -0.343871
      6          1           0       -7.149848   -2.777904   -0.839500
      7          7           0       -2.854788   -0.247679    1.496123
      8          6           0       -3.868113    0.525151    1.900428
      9          1           0       -3.586973    1.370316    2.527262
     10          7           0       -5.170480    0.411260    1.647886
     11          6           0       -5.407682   -0.658213    0.870456
     12          6           0       -3.126249   -1.315957    0.714970
     13          7           0       -2.116067   -2.088606    0.310365
     14          1           0       -2.270560   -2.889731   -0.268906
     15          1           0       -1.170916   -1.893132    0.572334
     16          1           0       -8.529761   -1.122965    1.132071
     17          1           0       -7.806729    0.335994    1.244963
     18          1           0       -8.353190   -0.194079   -0.198129
     19          7           0       -3.386588    1.981154   -1.309899
     20          6           0       -2.031122    2.023860   -1.088670
     21          6           0       -4.352654    3.017348   -0.893121
     22          7           0        0.757357    3.648733    0.194248
     23          1           0        1.742428    3.489009    0.252293
     24          1           0        0.410296    4.495035    0.599290
     25          7           0       -1.359460    3.011647   -0.458440
     26          6           0       -0.062186    2.768218   -0.399828
     27          7           0        0.533723    1.644046   -0.918128
     28          1           0        1.532814    1.541364   -0.827312
     29          6           0       -0.137752    0.614853   -1.570625
     30          8           0        0.494879   -0.357142   -2.001597
     31          6           0       -1.532275    0.862184   -1.641357
     32          7           0       -2.554001    0.105400   -2.198368
     33          6           0       -3.632835    0.806787   -1.978394
     34          1           0       -4.637631    0.512772   -2.283698
     35          1           0       -5.026248    2.617166   -0.272687
     36          1           0       -3.866616    3.754255   -0.425155
     37          1           0       -4.817836    3.384683   -1.697778
     38          1           0        6.432306    1.322530    0.514262
     39          1           0        6.693801    1.892842   -1.132254
     40          1           0        5.240541    2.371373   -0.254509
     41          1           0        5.815203   -2.767302   -1.943175
     42          6           0        5.268728   -1.852611   -1.713130
     43          8           0        3.160730   -2.732597   -2.352732
     44          6           0        3.853840   -1.810649   -1.923310
     45          1           0        2.261472   -0.538858   -1.735692
     46          7           0        3.260387   -0.606936   -1.600620
     47          8           0        3.267715    1.538553   -0.856308
     48          6           0        3.879611    0.516645   -1.113095
     49          1           0        6.975250   -0.753202   -1.061291
     50          6           0        5.900782   -0.772775   -1.238717
     51          6           0        5.949254    1.573246   -0.418406
     52          7           0        5.244266    0.397952   -0.937476
     53          1           0        4.381364    1.707514    4.045147
     54          1           0        3.204122    2.339809    3.108992
     55          1           0        4.750239    2.338384    2.585912
     56          1           0        1.199960   -3.647027    0.011150
     57          1           0        2.855353   -3.661009    0.422967
     58          7           0        1.982350   -3.172123    0.414252
     59          6           0        1.867688   -1.941595    0.918050
     60          6           0        2.661978    0.036693    1.975030
     61          7           0        1.477123    0.669074    1.949721
     62          1           0       -0.445504    0.338581    1.321317
     63          6           0        0.549629   -0.099812    1.382717
     64          7           0        0.662494   -1.332534    0.877514
     65          1           0        5.808487   -0.383775    2.587257
     66          6           0        4.768479   -0.491775    2.277976
     67          7           0        4.271532   -1.553924    1.692692
     68          6           0        2.936592   -1.232056    1.495059
     69          6           0        4.063460    1.829276    3.104878
     70          7           0        3.850140    0.509567    2.479675
 ---------------------------------------------------------------------

 SCF Done:  E(RwB97XD) =  -2048.75317022     A.U. after   15 cycles

 The electronic state is 1-A.
 Alpha  occ. eigenvalues --  -19.25969 -19.22053 -19.20621 -14.52501 -14.51531
 Alpha  occ. eigenvalues --  -14.49559 -14.48537 -14.47870 -14.46815 -14.46555
 Alpha  occ. eigenvalues --  -14.46438 -14.44447 -14.43042 -14.42939 -14.42668
 Alpha  occ. eigenvalues --  -14.42155 -14.41936 -14.41740 -14.40831 -14.40693
 Alpha  occ. eigenvalues --  -10.45555 -10.41105 -10.40109 -10.38526 -10.38168
 Alpha  occ. eigenvalues --  -10.37591 -10.37044 -10.36051 -10.36050 -10.35788
 Alpha  occ. eigenvalues --  -10.34814 -10.34694 -10.34217 -10.34120 -10.33776
 Alpha  occ. eigenvalues --  -10.33450 -10.33172 -10.31702 -10.31414 -10.30888
 Alpha  occ. eigenvalues --  -10.30292 -10.29264 -10.27990  -1.19533  -1.14174
 Alpha  occ. eigenvalues --   -1.13152  -1.13076  -1.12130  -1.10448  -1.09368
 Alpha  occ. eigenvalues --   -1.08488  -1.07883  -1.05673  -1.03409  -1.02557
 Alpha  occ. eigenvalues --   -1.01078  -0.99929  -0.99641  -0.98441  -0.97671
 Alpha  occ. eigenvalues --   -0.96358  -0.95500  -0.93304  -0.90936  -0.86620
 Alpha  occ. eigenvalues --   -0.85086  -0.84680  -0.83978  -0.83865  -0.83030
 Alpha  occ. eigenvalues --   -0.82151  -0.78844  -0.75881  -0.74476  -0.73650
 Alpha  occ. eigenvalues --   -0.73570  -0.73552  -0.73369  -0.71753  -0.69237
 Alpha  occ. eigenvalues --   -0.67272  -0.66964  -0.66550  -0.65567  -0.64439
 Alpha  occ. eigenvalues --   -0.63636  -0.63421  -0.63020  -0.62582  -0.61621
 Alpha  occ. eigenvalues --   -0.60811  -0.60566  -0.59485  -0.59424  -0.58516
 Alpha  occ. eigenvalues --   -0.58331  -0.58244  -0.57257  -0.57136  -0.56339
 Alpha  occ. eigenvalues --   -0.55996  -0.55936  -0.54678  -0.54443  -0.54373
 Alpha  occ. eigenvalues --   -0.53574  -0.53511  -0.52819  -0.52718  -0.52664
 Alpha  occ. eigenvalues --   -0.52363  -0.52328  -0.51776  -0.51466  -0.50857
 Alpha  occ. eigenvalues --   -0.50029  -0.49738  -0.49471  -0.48952  -0.48727
 Alpha  occ. eigenvalues --   -0.48689  -0.48220  -0.47866  -0.47620  -0.47565
 Alpha  occ. eigenvalues --   -0.47363  -0.45593  -0.45338  -0.43934  -0.43449
 Alpha  occ. eigenvalues --   -0.41875  -0.39705  -0.39507  -0.37894  -0.37187
 Alpha  occ. eigenvalues --   -0.37147  -0.36932  -0.36465  -0.35625  -0.34317
 Alpha  occ. eigenvalues --   -0.34182  -0.34090  -0.33518  -0.33251  -0.33089
 Alpha  occ. eigenvalues --   -0.32643  -0.32126  -0.31837  -0.31800  -0.31643
 Alpha  occ. eigenvalues --   -0.31052  -0.28480  -0.26513  -0.25258
 Alpha virt. eigenvalues --    0.03097   0.05045   0.07263   0.08262   0.08567
 Alpha virt. eigenvalues --    0.09098   0.09820   0.10280   0.10740   0.11761
 Alpha virt. eigenvalues --    0.13103   0.13431   0.14526   0.14737   0.15264

 Mulliken charges:
               1
     1  N   -0.310307
     2  C    0.180037
     3  C    0.048262
     4  N   -0.252811
     5  C    0.128444
     6  H    0.028390
     7  N   -0.280964
     8  C    0.132351
     9  H    0.016580
    10  N   -0.292641
    11  C    0.231031
    12  C    0.100766
    13  N   -0.041348
    14  H    0.109638
    15  H    0.089687
    16  H    0.028271
    17  H    0.034826
    18  H    0.024437
    19  N   -0.301331
    20  C    0.255634
    21  C    0.181972
    22  N   -0.114533
    23  H    0.112381
    24  H    0.116551
    25  N   -0.304864
    26  C    0.235203
    27  N   -0.135520
    28  H    0.119071
    29  C    0.161007
    30  O   -0.324075
    31  C   -0.002782
    32  N   -0.225812
    33  C    0.123471
    34  H    0.024893
    35  H    0.023729
    36  H    0.026869
    37  H    0.020866
    38  H    0.045549
    39  H    0.064460
    40  H    0.076446
    41  H    0.027983
    42  C   -0.086867
    43  O   -0.275132
    44  C    0.169513
    45  H    0.135793
    46  N   -0.126898
    47  O   -0.346036
    48  C    0.343129
    49  H    0.044303
    50  C    0.174826
    51  C    0.037522
    52  N   -0.281604
    53  H    0.032751
    54  H    0.038528
    55  H    0.015128
    56  H    0.121478
    57  H    0.118729
    58  N   -0.044072
    59  C    0.110333
    60  C    0.233580
    61  N   -0.276298
    62  H    0.034624
    63  C    0.164289
    64  N   -0.303364
    65  H    0.029953
    66  C    0.115428
    67  N   -0.247095
    68  C    0.005804
    69  C    0.182455
    70  N   -0.302617
 Sum of Mulliken charges =  -0.00000

 Dipole moment (field-independent basis, Debye):
    X=              5.5737    Y=              5.7624    Z=              3.9732  Tot=              8.9475
 Quadrupole moment (field-independent basis, Debye-Ang):
   XX=           -142.0556   YY=           -225.4198   ZZ=           -257.2373
   XY=             12.0003   XZ=             15.7706   YZ=             -1.7368

 Normal termination of Gaussian 16 at Sat Jan 20 05:18:58 2018.
