 Gaussian 16, Revision A.03,
 Gaussian 16:  EM64L-G16RevA.03 25-Dec-2016

 ---------------------------------------
 #p wb97xd/cc-pvdz sp scf=(maxcycles=20)
 ---------------------------------------

 ------------------
 Base pair stacking
 ------------------
 Symbolic Z-matrix:
 Charge =  0 Multiplicity = 1

                         Standard orientation:
 ---------------------------------------------------------------------
 Center     Atomic      Atomic             Coordinates (Angstroms)
 Number     Number       Type             X           Y           Z
 ---------------------------------------------------------------------
      1          7           0       -6.830324   -0.887022    0.336806
      2          6           0       -8.115852   -0.163112    0.299522
      3          6           0       -4.700155   -1.387427    0.558821
      4          7           0       -5.338292   -2.562379    0.188709
      5          6           0       -6.596102   -2.213879    0.069763
      6          1           0       -7.402919   -2.890715   -0.212865
      7          7           0       -3.053078    0.182765    1.178986
      8          6           0       -4.039711    1.083647    1.229482
      9          1           0       -3.735318    2.091484    1.508555
     10          7           0       -5.339785    0.927235    0.988160
     11          6           0       -5.606907   -0.346147    0.654128
     12          6           0       -3.354282   -1.089755    0.839764
     13          7           0       -2.370771   -1.990466    0.788802
     14          1           0       -2.547784   -2.943948    0.542320
     15          1           0       -1.424020   -1.743032    0.995141
     16          1           0       -8.751809   -0.576562    0.951287
     17          1           0       -7.966905    0.794930    0.542603
     18          1           0       -8.503598   -0.215332   -0.620765
     19          7           0       -3.172064    1.604843   -1.462294
     20          6           0       -1.824093    1.675500   -1.205344
     21          6           0       -4.162809    2.643555   -1.115580
     22          7           0        0.905735    3.390230    0.086743
     23          1           0        1.890729    3.246810    0.178724
     24          1           0        0.536476    4.247400    0.446779
     25          7           0       -1.183339    2.697484   -0.597856
     26          6           0        0.114771    2.474817   -0.493169
     27          7           0        0.739542    1.338893   -0.947961
     28          1           0        1.736884    1.253998   -0.825213
     29          6           0        0.100145    0.274655   -1.575981
     30          8           0        0.757184   -0.705171   -1.948792
     31          6           0       -1.294875    0.499350   -1.695640
     32          7           0       -2.290563   -0.293746   -2.249259
     33          6           0       -3.384129    0.400858   -2.088471
     34          1           0       -4.375996    0.080596   -2.409271
     35          1           0       -4.848550    2.259622   -0.498199
     36          1           0       -3.699752    3.405666   -0.664994
     37          1           0       -4.609629    2.971217   -1.947326
     38          1           0        6.598715    1.158670    0.660141
     39          1           0        6.899510    1.664955   -1.000529
     40          1           0        5.415895    2.158493   -0.184052
     41          1           0        6.104222   -3.036236   -1.643070
     42          6           0        5.539734   -2.120661   -1.466192
     43          8           0        3.462230   -3.055424   -2.127466
     44          6           0        4.130963   -2.107122   -1.717232
     45          1           0        2.517703   -0.851134   -1.626538
     46          7           0        3.513177   -0.899667   -1.461021
     47          8           0        3.471804    1.274298   -0.805750
     48          6           0        4.103826    0.251421   -1.003108
     49          1           0        7.212799   -0.971802   -0.812893
     50          6           0        6.144137   -1.013629   -1.019210
     51          6           0        6.139159    1.364350   -0.295145
     52          7           0        5.464350    0.159116   -0.784813
     53          1           0        4.203540    2.704694    3.093045
     54          1           0        3.077402    2.982161    1.945484
     55          1           0        4.633397    2.735102    1.518972
     56          1           0        0.878070   -3.657357    1.213932
     57          1           0        2.521382   -3.572051    1.663786
     58          7           0        1.671576   -3.092827    1.441547
     59          6           0        1.600710   -1.760118    1.448658
     60          6           0        2.458569    0.441860    1.726311
     61          7           0        1.304109    1.058367    1.423699
     62          1           0       -0.616603    0.581805    0.890439
     63          6           0        0.356248    0.164964    1.147479
     64          7           0        0.425252   -1.170231    1.139798
     65          1           0        5.568355    0.175192    2.569112
     66          6           0        4.531846   -0.005544    2.282851
     67          7           0        4.001274   -1.192073    2.114607
     68          6           0        2.686921   -0.922744    1.761505
     69          6           0        3.912878    2.478537    2.163341
     70          7           0        3.654931    1.028833    2.064223
 ---------------------------------------------------------------------

 SCF Done:  E(RwB97XD) =  -2048.70888102     A.U. after   15 cycles

 The electronic state is 1-A.
 Alpha  occ. eigenvalues --  -19.26082 -19.21932 -19.20455 -14.52665 -14.51485
 Alpha  occ. eigenvalues --  -14.50036 -14.48091 -14.47920 -14.46979 -14.46210
 Alpha  occ. eigenvalues --  -14.45976 -14.44454 -14.43288 -14.43270 -14.42652
 Alpha  occ. eigenvalues --  -14.42594 -14.42314 -14.41863 -14.41336 -14.40516
 Alpha  occ. eigenvalues --  -10.45659 -10.40669 -10.40042 -10.38813 -10.37930
 Alpha  occ. eigenvalues --  -10.37721 -10.37155 -10.36637 -10.36133 -10.36128
 Alpha  occ. eigenvalues --  -10.35287 -10.34967 -10.34736 -10.34377 -10.33965
 Alpha  occ. eigenvalues --  -10.33849 -10.32951 -10.32049 -10.31452 -10.31049
 Alpha  occ. eigenvalues --  -10.29838 -10.28962 -10.27834  -1.19734  -1.14274
 Alpha  occ. eigenvalues --   -1.13080  -1.12981  -1.12652  -1.10243  -1.09527
 Alpha  occ. eigenvalues --   -1.08434  -1.08051  -1.06310  -1.03759  -1.02580
 Alpha  occ. eigenvalues --   -1.01787  -1.00100  -0.99324  -0.98306  -0.98179
 Alpha  occ. eigenvalues --   -0.96130  -0.95714  -0.93963  -0.91115  -0.86885
 Alpha  occ. eigenvalues --   -0.85416  -0.85277  -0.84207  -0.83621  -0.83527
 Alpha  occ. eigenvalues --   -0.81598  -0.78965  -0.76190  -0.74433  -0.74105
 Alpha  occ. eigenvalues --   -0.73906  -0.73483  -0.73290  -0.72424  -0.69610
 Alpha  occ. eigenvalues --   -0.67579  -0.67098  -0.66620  -0.65964  -0.64576
 Alpha  occ. eigenvalues --   -0.64071  -0.63485  -0.63293  -0.62643  -0.61397
 Alpha  occ. eigenvalues --   -0.61324  -0.61108  -0.59911  -0.59617  -0.58967
 Alpha  occ. eigenvalues --   -0.58347  -0.58030  -0.57904  -0.57640  -0.56782
 Alpha  occ. eigenvalues --   -0.56374  -0.55987  -0.55281  -0.54758  -0.54520
 Alpha  occ. eigenvalues --   -0.54260  -0.53281  -0.53210  -0.52970  -0.52532
 Alpha  occ. eigenvalues --   -0.52303  -0.52120  -0.51782  -0.51640  -0.51057
 Alpha  occ. eigenvalues --   -0.50222  -0.49824  -0.49507  -0.48979  -0.48535
 Alpha  occ. eigenvalues --   -0.48455  -0.48202  -0.48025  -0.47826  -0.47468
 Alpha  occ. eigenvalues --   -0.47194  -0.45784  -0.45600  -0.44195  -0.43078
 Alpha  occ. eigenvalues --   -0.41845  -0.40306  -0.39659  -0.38609  -0.37293
 Alpha  occ. eigenvalues --   -0.37161  -0.37023  -0.36216  -0.35341  -0.34887
 Alpha  occ. eigenvalues --   -0.34688  -0.34287  -0.33492  -0.33134  -0.32977
 Alpha  occ. eigenvalues --   -0.32532  -0.32408  -0.31874  -0.31726  -0.31612
 Alpha  occ. eigenvalues --   -0.31343  -0.28103  -0.26910  -0.25109
 Alpha virt. eigenvalues --    0.03133   0.04722   0.06489   0.08084   0.08413
 Alpha virt. eigenvalues --    0.09179   0.09668   0.10033   0.11161   0.11914
 Alpha virt. eigenvalues --    0.12770   0.13106   0.14465   0.14618   0.15006

 Mulliken charges:
               1
     1  N   -0.312819
     2  C    0.179787
     3  C    0.053946
     4  N   -0.255803
     5  C    0.132623
     6  H    0.030468
     7  N   -0.262360
     8  C    0.126527
     9  H    0.023884
    10  N   -0.296360
    11  C    0.236856
    12  C    0.094682
    13  N   -0.044016
    14  H    0.107936
    15  H    0.087997
    16  H    0.029123
    17  H    0.035245
    18  H    0.027194
    19  N   -0.289393
    20  C    0.238713
    21  C    0.176699
    22  N   -0.077844
    23  H    0.106464
    24  H    0.110680
    25  N   -0.286262
    26  C    0.195503
    27  N   -0.116871
    28  H    0.124484
    29  C    0.132874
    30  O   -0.322753
    31  C    0.019144
    32  N   -0.222774
    33  C    0.112506
    34  H    0.023871
    35  H    0.020177
    36  H    0.021447
    37  H    0.014141
    38  H    0.044308
    39  H    0.066717
    40  H    0.083408
    41  H    0.031440
    42  C   -0.100685
    43  O   -0.266134
    44  C    0.183387
    45  H    0.133596
    46  N   -0.127795
    47  O   -0.345150
    48  C    0.344952
    49  H    0.045635
    50  C    0.173083
    51  C    0.029520
    52  N   -0.281699
    53  H    0.033629
    54  H    0.023761
    55  H   -0.000367
    56  H    0.118878
    57  H    0.120370
    58  N   -0.066102
    59  C    0.129787
    60  C    0.221615
    61  N   -0.292308
    62  H    0.040345
    63  C    0.180381
    64  N   -0.305931
    65  H    0.029879
    66  C    0.107090
    67  N   -0.248417
    68  C    0.014284
    69  C    0.190579
    70  N   -0.287771
 Sum of Mulliken charges =  -0.00000

 Dipole moment (field-independent basis, Debye):
    X=              4.9353    Y=              5.6400    Z=              4.5647  Tot=              8.7752
 Quadrupole moment (field-independent basis, Debye-Ang):
   XX=           -139.7423   YY=           -228.7560   ZZ=           -259.0640
   XY=             16.9453   XZ=             14.6616   YZ=             -8.2408

 Normal termination of Gaussian 16 at Fri Jan 19 20:48:26 2018.
