 Gaussian 16, Revision A.03,
 Gaussian 16:  EM64L-G16RevA.03 25-Dec-2016

 ---------------------------------------
 #p wb97xd/cc-pvdz sp scf=(maxcycles=20)
 ---------------------------------------

 ------------------
 Base pair stacking
 ------------------
 Symbolic Z-matrix:
 Charge =  0 Multiplicity = 1

                         Standard orientation:
 ---------------------------------------------------------------------
 Center     Atomic      Atomic             Coordinates (Angstroms)
 Number     Number       Type             X           Y           Z
 ---------------------------------------------------------------------
      1          7           0        5.742749   -1.060745   -1.030760
      2          6           0        7.055525   -0.386573   -1.041190
      3          6           0        3.582641   -1.467158   -1.109015
      4          7           0        4.200877   -2.692196   -0.904533
      5          6           0        5.477507   -2.398313   -0.865577
      6          1           0        6.276780   -3.125088   -0.717545
      7          7           0        1.955082    0.208076   -1.436951
      8          6           0        2.970149    1.076506   -1.492137
      9          1           0        2.685009    2.115623   -1.650810
     10          7           0        4.278430    0.855089   -1.381279
     11          6           0        4.520188   -0.452186   -1.188885
     12          6           0        2.231241   -1.099952   -1.242334
     13          7           0        1.219323   -1.968364   -1.186961
     14          1           0        1.377135   -2.946121   -1.044485
     15          1           0        0.269512   -1.671383   -1.285942
     16          1           0        7.616570   -0.757859   -1.781157
     17          1           0        6.926129    0.594479   -1.182355
     18          1           0        7.517177   -0.537797   -0.167119
     19          7           0        4.369785    1.306981    1.229602
     20          6           0        3.008831    1.441417    1.096294
     21          6           0        5.372130    2.302727    0.800060
     22          7           0        0.255670    3.290927    0.066168
     23          1           0       -0.739182    3.193411    0.063098
     24          1           0        0.630143    4.133774   -0.321276
     25          7           0        2.363765    2.497256    0.554858
     26          6           0        1.052609    2.334970    0.567093
     27          7           0        0.419623    1.224409    1.070567
     28          1           0       -0.587590    1.186208    1.038284
     29          6           0        1.063236    0.126215    1.632343
     30          8           0        0.397955   -0.826147    2.057939
     31          6           0        2.472245    0.285986    1.626249
     32          7           0        3.476137   -0.556871    2.083081
     33          6           0        4.581649    0.088686    1.827539
     34          1           0        5.582567   -0.279461    2.055381
     35          1           0        5.980825    1.893850    0.121014
     36          1           0        4.906007    3.089397    0.397388
     37          1           0        5.906908    2.601781    1.589612
     38          1           0       -5.562874    1.326587   -0.000700
     39          1           0       -5.688748    1.830239    1.683083
     40          1           0       -4.263705    2.263418    0.738111
     41          1           0       -5.056868   -2.908202    2.225745
     42          6           0       -4.468929   -2.017648    2.003310
     43          8           0       -2.385640   -3.052331    2.468533
     44          6           0       -3.044138   -2.070686    2.125676
     45          1           0       -1.389329   -0.888694    1.895834
     46          7           0       -2.396856   -0.890245    1.820976
     47          8           0       -2.314378    1.285701    1.176287
     48          6           0       -2.972597    0.290855    1.424651
     49          1           0       -6.139252   -0.787609    1.510522
     50          6           0       -5.059406   -0.880033    1.618889
     51          6           0       -5.009916    1.502031    0.910074
     52          7           0       -4.350085    0.262693    1.330105
     53          1           0       -5.327363    3.137871   -2.468756
     54          1           0       -4.097806    3.268857   -1.404275
     55          1           0       -5.621043    3.034579   -0.866721
     56          1           0       -2.119671   -3.479289   -1.474101
     57          1           0       -3.790209   -3.297666   -1.768072
     58          7           0       -2.905657   -2.869882   -1.578898
     59          6           0       -2.780855   -1.545480   -1.471345
     60          6           0       -3.567754    0.700079   -1.471631
     61          7           0       -2.367452    1.246815   -1.217082
     62          1           0       -0.429798    0.658847   -0.900241
     63          6           0       -1.437218    0.300483   -1.107461
     64          7           0       -1.560223   -1.026511   -1.214847
     65          1           0       -6.745964    0.617008   -2.058348
     66          6           0       -5.697305    0.375919   -1.881937
     67          7           0       -5.203684   -0.838104   -1.869303
     68          6           0       -3.854237   -0.646861   -1.610209
     69          6           0       -4.968725    2.815904   -1.592570
     70          7           0       -4.763211    1.355548   -1.648394
 ---------------------------------------------------------------------

 SCF Done:  E(RwB97XD) =  -2048.68555231     A.U. after   15 cycles

 The electronic state is 1-A.
 Alpha  occ. eigenvalues --  -19.25128 -19.21423 -19.20592 -14.52594 -14.51930
 Alpha  occ. eigenvalues --  -14.49440 -14.48252 -14.47996 -14.47292 -14.46771
 Alpha  occ. eigenvalues --  -14.46664 -14.45972 -14.44432 -14.44389 -14.43018
 Alpha  occ. eigenvalues --  -14.41905 -14.41885 -14.41116 -14.40619 -14.40465
 Alpha  occ. eigenvalues --  -10.44676 -10.41166 -10.39913 -10.39547 -10.38323
 Alpha  occ. eigenvalues --  -10.38167 -10.37379 -10.37200 -10.36013 -10.35730
 Alpha  occ. eigenvalues --  -10.34561 -10.34557 -10.34163 -10.34011 -10.33878
 Alpha  occ. eigenvalues --  -10.33185 -10.33111 -10.32877 -10.32042 -10.30527
 Alpha  occ. eigenvalues --  -10.30083 -10.28961 -10.27935  -1.19125  -1.15844
 Alpha  occ. eigenvalues --   -1.13204  -1.12482  -1.11952  -1.10372  -1.09475
 Alpha  occ. eigenvalues --   -1.08793  -1.08531  -1.05587  -1.04899  -1.02020
 Alpha  occ. eigenvalues --   -1.01526  -1.01131  -0.99708  -0.98541  -0.97638
 Alpha  occ. eigenvalues --   -0.96985  -0.96322  -0.93236  -0.90517  -0.88134
 Alpha  occ. eigenvalues --   -0.86542  -0.84647  -0.83898  -0.83409  -0.83077
 Alpha  occ. eigenvalues --   -0.82015  -0.78379  -0.77396  -0.75259  -0.74459
 Alpha  occ. eigenvalues --   -0.73669  -0.73463  -0.72956  -0.71598  -0.70712
 Alpha  occ. eigenvalues --   -0.67328  -0.67060  -0.66979  -0.66225  -0.64793
 Alpha  occ. eigenvalues --   -0.64502  -0.63789  -0.63356  -0.62695  -0.62407
 Alpha  occ. eigenvalues --   -0.61669  -0.61084  -0.60745  -0.59853  -0.59243
 Alpha  occ. eigenvalues --   -0.58453  -0.58126  -0.57913  -0.57258  -0.56511
 Alpha  occ. eigenvalues --   -0.56108  -0.56013  -0.55404  -0.54327  -0.54145
 Alpha  occ. eigenvalues --   -0.53930  -0.53772  -0.53433  -0.53178  -0.52815
 Alpha  occ. eigenvalues --   -0.52684  -0.52418  -0.52031  -0.51260  -0.50780
 Alpha  occ. eigenvalues --   -0.50039  -0.49726  -0.49448  -0.49037  -0.48978
 Alpha  occ. eigenvalues --   -0.48410  -0.48109  -0.48027  -0.47812  -0.47105
 Alpha  occ. eigenvalues --   -0.46622  -0.45777  -0.45610  -0.44745  -0.42677
 Alpha  occ. eigenvalues --   -0.41399  -0.41094  -0.39188  -0.38031  -0.37838
 Alpha  occ. eigenvalues --   -0.37693  -0.37220  -0.36738  -0.36128  -0.34906
 Alpha  occ. eigenvalues --   -0.34474  -0.34132  -0.33843  -0.33477  -0.32808
 Alpha  occ. eigenvalues --   -0.32414  -0.32341  -0.31684  -0.31463  -0.30930
 Alpha  occ. eigenvalues --   -0.30597  -0.29142  -0.26063  -0.25406
 Alpha virt. eigenvalues --    0.03525   0.03633   0.06869   0.07133   0.08531
 Alpha virt. eigenvalues --    0.08849   0.09635   0.10166   0.11055   0.12628
 Alpha virt. eigenvalues --    0.13336   0.13825   0.14007   0.14178   0.14516

 Mulliken charges:
               1
     1  N   -0.304945
     2  C    0.172802
     3  C    0.081939
     4  N   -0.253771
     5  C    0.130420
     6  H    0.026971
     7  N   -0.283505
     8  C    0.143944
     9  H    0.015773
    10  N   -0.289883
    11  C    0.215373
    12  C    0.080670
    13  N   -0.049721
    14  H    0.108664
    15  H    0.085380
    16  H    0.028889
    17  H    0.045981
    18  H    0.021612
    19  N   -0.266562
    20  C    0.193366
    21  C    0.207939
    22  N   -0.103426
    23  H    0.115348
    24  H    0.116247
    25  N   -0.295043
    26  C    0.219760
    27  N   -0.132261
    28  H    0.118338
    29  C    0.173036
    30  O   -0.320968
    31  C    0.011205
    32  N   -0.215833
    33  C    0.113103
    34  H    0.013857
    35  H   -0.007980
    36  H    0.027901
    37  H    0.018091
    38  H    0.044855
    39  H    0.049880
    40  H    0.065593
    41  H    0.026527
    42  C   -0.108119
    43  O   -0.267635
    44  C    0.172954
    45  H    0.130383
    46  N   -0.117356
    47  O   -0.324388
    48  C    0.323910
    49  H    0.042777
    50  C    0.171310
    51  C    0.052122
    52  N   -0.272022
    53  H    0.036458
    54  H    0.044346
    55  H    0.027273
    56  H    0.122838
    57  H    0.119937
    58  N   -0.064042
    59  C    0.105543
    60  C    0.171227
    61  N   -0.238263
    62  H    0.032957
    63  C    0.142200
    64  N   -0.295096
    65  H    0.039452
    66  C    0.110002
    67  N   -0.241778
    68  C    0.061209
    69  C    0.171567
    70  N   -0.299330
 Sum of Mulliken charges =  -0.00000

 Dipole moment (field-independent basis, Debye):
    X=             -5.5147    Y=              6.6364    Z=             -4.5873  Tot=              9.7723
 Quadrupole moment (field-independent basis, Debye-Ang):
   XX=           -148.0878   YY=           -228.1828   ZZ=           -261.8293
   XY=            -10.7660   XZ=              2.6647   YZ=             12.4733

 Normal termination of Gaussian 16 at Fri Jan 19 22:24:20 2018.
