 Gaussian 16, Revision A.03,
 Gaussian 16:  EM64L-G16RevA.03 25-Dec-2016

 ---------------------------------------
 #p wb97xd/cc-pvdz sp scf=(maxcycles=20)
 ---------------------------------------

 ------------------
 Base pair stacking
 ------------------
 Symbolic Z-matrix:
 Charge =  0 Multiplicity = 1

                         Standard orientation:
 ---------------------------------------------------------------------
 Center     Atomic      Atomic             Coordinates (Angstroms)
 Number     Number       Type             X           Y           Z
 ---------------------------------------------------------------------
      1          7           0       -4.600024    0.821250   -1.767136
      2          6           0       -5.923140    0.168420   -1.801407
      3          6           0       -2.433100    1.186952   -1.677649
      4          7           0       -3.033852    2.434325   -1.766436
      5          6           0       -4.315299    2.164080   -1.816789
      6          1           0       -5.104388    2.912909   -1.891220
      7          7           0       -0.829100   -0.534756   -1.516907
      8          6           0       -1.857191   -1.389449   -1.527055
      9          1           0       -1.586973   -2.442651   -1.463772
     10          7           0       -3.162828   -1.139641   -1.603269
     11          6           0       -3.385747    0.182969   -1.677002
     12          6           0       -1.086418    0.789317   -1.592395
     13          7           0       -0.061484    1.644046   -1.582403
     14          1           0       -0.205199    2.632811   -1.636393
     15          1           0        0.884447    1.325376   -1.520647
     16          1           0       -6.390627    0.404024   -2.653535
     17          1           0       -5.807915   -0.823078   -1.748693
     18          1           0       -6.471240    0.480310   -1.025318
     19          7           0       -5.503852   -0.932751    0.884899
     20          6           0       -4.140921   -1.101587    0.929378
     21          6           0       -6.482866   -1.980838    0.533140
     22          7           0       -1.348094   -3.132635    0.559663
     23          1           0       -0.356235   -3.046371    0.649218
     24          1           0       -1.703192   -4.028440    0.291040
     25          7           0       -3.472482   -2.244136    0.661358
     26          6           0       -2.166034   -2.094285    0.789233
     27          7           0       -1.558666   -0.916492    1.151762
     28          1           0       -0.553113   -0.893982    1.224802
     29          6           0       -2.226619    0.271382    1.432215
     30          8           0       -1.583413    1.279168    1.750617
     31          6           0       -3.630910    0.126013    1.299052
     32          7           0       -4.653072    1.047025    1.482954
     33          6           0       -5.743114    0.375856    1.226886
     34          1           0       -6.751562    0.788415    1.272642
     35          1           0       -7.003156   -1.696755   -0.271483
     36          1           0       -5.999311   -2.831841    0.332556
     37          1           0       -7.107642   -2.126410    1.299479
     38          1           0        4.498687   -1.266339    0.785053
     39          1           0        4.428681   -1.456461    2.535366
     40          1           0        3.101152   -2.041287    1.531876
     41          1           0        3.880142    3.307204    2.143988
     42          6           0        3.293828    2.396442    2.021616
     43          8           0        1.203597    3.517424    2.059787
     44          6           0        1.866273    2.483837    1.974014
     45          1           0        0.212000    1.294890    1.778711
     46          7           0        1.221374    1.273616    1.816770
     47          8           0        1.145308   -0.982449    1.568667
     48          6           0        1.801726    0.034929    1.705430
     49          1           0        4.970911    1.082114    1.945918
     50          6           0        3.888820    1.202555    1.915718
     51          6           0        3.846435   -1.268147    1.645652
     52          7           0        3.181646    0.032869    1.760393
     53          1           0        6.433822   -3.669610   -1.192808
     54          1           0        5.093973   -3.593580   -0.264835
     55          1           0        6.556984   -3.279334    0.387041
     56          1           0        3.331504    3.047058   -1.765199
     57          1           0        5.017949    2.799770   -1.835025
     58          7           0        4.106170    2.421604   -1.671088
     59          6           0        3.932165    1.140052   -1.341666
     60          6           0        4.649013   -1.075180   -0.851163
     61          7           0        3.412986   -1.555531   -0.636889
     62          1           0        1.470430   -0.902110   -0.647319
     63          6           0        2.504231   -0.596603   -0.802803
     64          7           0        2.676507    0.687549   -1.132736
     65          1           0        7.872864   -1.129185   -1.087864
     66          6           0        6.818779   -0.850470   -1.074827
     67          7           0        6.362117    0.350053   -1.335361
     68          6           0        4.987689    0.221421   -1.197069
     69          6           0        5.992848   -3.190383   -0.433936
     70          7           0        5.836993   -1.762723   -0.773799
 ---------------------------------------------------------------------

 SCF Done:  E(RwB97XD) =  -2048.64974191     A.U. after   15 cycles

 The electronic state is 1-A.
 Alpha  occ. eigenvalues --  -19.24955 -19.21167 -19.20700 -14.53254 -14.51414
 Alpha  occ. eigenvalues --  -14.49437 -14.48836 -14.48709 -14.47077 -14.46623
 Alpha  occ. eigenvalues --  -14.46491 -14.45983 -14.44623 -14.44523 -14.43036
 Alpha  occ. eigenvalues --  -14.41706 -14.41569 -14.41394 -14.41070 -14.40744
 Alpha  occ. eigenvalues --  -10.44602 -10.40899 -10.40591 -10.39277 -10.38511
 Alpha  occ. eigenvalues --  -10.38336 -10.37790 -10.36840 -10.36093 -10.35930
 Alpha  occ. eigenvalues --  -10.34601 -10.34548 -10.34162 -10.34064 -10.33621
 Alpha  occ. eigenvalues --  -10.33357 -10.33104 -10.32158 -10.31685 -10.31171
 Alpha  occ. eigenvalues --  -10.30209 -10.28740 -10.28499  -1.18742  -1.16160
 Alpha  occ. eigenvalues --   -1.13502  -1.12205  -1.11489  -1.11079  -1.10035
 Alpha  occ. eigenvalues --   -1.08818  -1.08327  -1.05789  -1.05551  -1.01660
 Alpha  occ. eigenvalues --   -1.01606  -1.01102  -0.99832  -0.98733  -0.97819
 Alpha  occ. eigenvalues --   -0.97252  -0.97025  -0.93269  -0.90038  -0.88450
 Alpha  occ. eigenvalues --   -0.86592  -0.84987  -0.84018  -0.83198  -0.82665
 Alpha  occ. eigenvalues --   -0.82426  -0.78003  -0.77691  -0.75831  -0.75024
 Alpha  occ. eigenvalues --   -0.73916  -0.73246  -0.72482  -0.71597  -0.71115
 Alpha  occ. eigenvalues --   -0.67673  -0.67610  -0.66743  -0.65752  -0.64957
 Alpha  occ. eigenvalues --   -0.64625  -0.63622  -0.63277  -0.62730  -0.62115
 Alpha  occ. eigenvalues --   -0.61918  -0.61278  -0.61084  -0.60240  -0.59065
 Alpha  occ. eigenvalues --   -0.59050  -0.58750  -0.58418  -0.57285  -0.56339
 Alpha  occ. eigenvalues --   -0.56038  -0.55644  -0.55404  -0.55056  -0.54896
 Alpha  occ. eigenvalues --   -0.54339  -0.54132  -0.53591  -0.53203  -0.52888
 Alpha  occ. eigenvalues --   -0.52129  -0.51858  -0.51255  -0.51179  -0.50688
 Alpha  occ. eigenvalues --   -0.50404  -0.49648  -0.49566  -0.49351  -0.49167
 Alpha  occ. eigenvalues --   -0.48851  -0.48538  -0.47988  -0.47456  -0.47278
 Alpha  occ. eigenvalues --   -0.46983  -0.45660  -0.44961  -0.44748  -0.41692
 Alpha  occ. eigenvalues --   -0.41115  -0.40865  -0.39082  -0.38776  -0.38112
 Alpha  occ. eigenvalues --   -0.37895  -0.37237  -0.36307  -0.35247  -0.35162
 Alpha  occ. eigenvalues --   -0.34618  -0.34239  -0.33863  -0.33328  -0.33086
 Alpha  occ. eigenvalues --   -0.32886  -0.32374  -0.31974  -0.31011  -0.30883
 Alpha  occ. eigenvalues --   -0.30460  -0.29937  -0.27136  -0.24593
 Alpha virt. eigenvalues --    0.02984   0.04393   0.06103   0.06224   0.08374
 Alpha virt. eigenvalues --    0.09021   0.09358   0.09753   0.11590   0.12757
 Alpha virt. eigenvalues --    0.12975   0.13168   0.14218   0.14385   0.15044

 Mulliken charges:
               1
     1  N   -0.297091
     2  C    0.196826
     3  C    0.064719
     4  N   -0.255513
     5  C    0.146457
     6  H    0.027251
     7  N   -0.276213
     8  C    0.138077
     9  H    0.001568
    10  N   -0.264216
    11  C    0.220123
    12  C    0.069346
    13  N   -0.058048
    14  H    0.111050
    15  H    0.083012
    16  H    0.024494
    17  H    0.029060
    18  H    0.001063
    19  N   -0.295985
    20  C    0.224559
    21  C    0.182239
    22  N   -0.083470
    23  H    0.123078
    24  H    0.120940
    25  N   -0.236111
    26  C    0.095366
    27  N   -0.084881
    28  H    0.121272
    29  C    0.167257
    30  O   -0.318426
    31  C    0.012869
    32  N   -0.207220
    33  C    0.084803
    34  H    0.029952
    35  H    0.009254
    36  H    0.035967
    37  H    0.028085
    38  H    0.021748
    39  H    0.028469
    40  H    0.075588
    41  H    0.023397
    42  C   -0.100568
    43  O   -0.268993
    44  C    0.175958
    45  H    0.130986
    46  N   -0.118815
    47  O   -0.342186
    48  C    0.315587
    49  H    0.046734
    50  C    0.156140
    51  C    0.104382
    52  N   -0.275968
    53  H    0.038103
    54  H    0.042739
    55  H    0.032871
    56  H    0.122265
    57  H    0.120995
    58  N   -0.061712
    59  C    0.110273
    60  C    0.219642
    61  N   -0.288127
    62  H    0.030744
    63  C    0.163224
    64  N   -0.308354
    65  H    0.040110
    66  C    0.136225
    67  N   -0.251874
    68  C    0.038802
    69  C    0.179150
    70  N   -0.309048
 Sum of Mulliken charges =  -0.00000

 Dipole moment (field-independent basis, Debye):
    X=              5.9940    Y=             -7.7371    Z=             -2.5786  Tot=             10.1213
 Quadrupole moment (field-independent basis, Debye-Ang):
   XX=           -148.8130   YY=           -234.4481   ZZ=           -255.2115
   XY=             -0.8562   XZ=             11.1681   YZ=            -18.0109

 Normal termination of Gaussian 16 at Sat Jan 20 01:29:17 2018.
