 Gaussian 16, Revision A.03,
 Gaussian 16:  EM64L-G16RevA.03 25-Dec-2016

 ---------------------------------------
 #p wb97xd/cc-pvdz sp scf=(maxcycles=20)
 ---------------------------------------

 ------------------
 Base pair stacking
 ------------------
 Symbolic Z-matrix:
 Charge =  0 Multiplicity = 1

                         Standard orientation:
 ---------------------------------------------------------------------
 Center     Atomic      Atomic             Coordinates (Angstroms)
 Number     Number       Type             X           Y           Z
 ---------------------------------------------------------------------
      1          7           0       -5.473865   -1.885979    0.614889
      2          6           0       -6.788568   -1.586751    1.214930
      3          6           0       -3.310910   -2.018597    0.238935
      4          7           0       -3.929386   -2.667104   -0.820146
      5          6           0       -5.207733   -2.561249   -0.551266
      6          1           0       -6.007687   -2.961068   -1.175079
      7          7           0       -1.682034   -1.104482    1.679111
      8          6           0       -2.698736   -0.695454    2.444999
      9          1           0       -2.413677   -0.153716    3.345845
     10          7           0       -4.008544   -0.854421    2.266014
     11          6           0       -4.250043   -1.531880    1.131489
     12          6           0       -1.957973   -1.783524    0.544281
     13          7           0       -0.944434   -2.192643   -0.221562
     14          1           0       -1.102016   -2.698542   -1.070362
     15          1           0        0.006435   -2.007526    0.026867
     16          1           0       -7.271493   -2.441378    1.406152
     17          1           0       -6.659429   -1.080162    2.066874
     18          1           0       -7.329385   -1.035209    0.579851
     19          7           0       -4.634933    1.997445   -0.463026
     20          6           0       -3.270157    2.114996   -0.355179
     21          6           0       -5.622732    2.797414    0.288639
     22          7           0       -0.484276    3.630306    1.060598
     23          1           0        0.510250    3.557681    0.990799
     24          1           0       -0.845856    4.310453    1.698858
     25          7           0       -2.607562    2.974137    0.449108
     26          6           0       -1.297359    2.851082    0.331478
     27          7           0       -0.681183    1.955777   -0.508927
     28          1           0        0.326665    1.931266   -0.533645
     29          6           0       -1.343005    1.062339   -1.345365
     30          8           0       -0.692004    0.295352   -2.065542
     31          6           0       -2.751232    1.182740   -1.230066
     32          7           0       -3.769720    0.493774   -1.874196
     33          6           0       -4.866367    1.009515   -1.388815
     34          1           0       -5.874356    0.704991   -1.672549
     35          1           0       -6.195015    2.191203    0.839823
     36          1           0       -5.143556    3.437437    0.887831
     37          1           0       -6.197073    3.307388   -0.350776
     38          1           0        5.345030    1.861076    0.281092
     39          1           0        5.385995    2.847855   -1.178101
     40          1           0        4.004940    2.947924   -0.085379
     41          1           0        4.763580   -1.523781   -3.088080
     42          6           0        4.180498   -0.753330   -2.583433
     43          8           0        2.084897   -1.645909   -3.245874
     44          6           0        2.751897   -0.797874   -2.653660
     45          1           0        1.101426    0.225511   -2.007941
     46          7           0        2.111373    0.223239   -1.981117
     47          8           0        2.044026    2.104463   -0.710822
     48          6           0        2.696822    1.243794   -1.274526
     49          1           0        5.863518    0.308525   -1.818096
     50          6           0        4.780418    0.229610   -1.901864
     51          6           0        4.747600    2.288992   -0.510124
     52          7           0        4.077434    1.218183   -1.253088
     53          1           0        5.625788    0.504905    4.265203
     54          1           0        4.298711    1.315831    3.771878
     55          1           0        5.766761    1.718045    3.182687
     56          1           0        2.426627   -3.073005   -1.394251
     57          1           0        4.115000   -3.051665   -1.151274
     58          7           0        3.210812   -2.713006   -0.888674
     59          6           0        3.058636   -1.820949    0.092269
     60          6           0        3.811881   -0.368191    1.819650
     61          7           0        2.585585    0.068814    2.150782
     62          1           0        0.634578   -0.207944    1.587227
     63          6           0        1.661866   -0.507589    1.384360
     64          7           0        1.812269   -1.401267    0.401358
     65          1           0        7.032374   -0.613862    1.961842
     66          6           0        5.974988   -0.712140    1.714427
     67          7           0        5.498694   -1.493467    0.776159
     68          6           0        4.128248   -1.284978    0.832266
     69          6           0        5.189591    0.961174    3.489611
     70          7           0        5.009874   -0.001933    2.385913
 ---------------------------------------------------------------------

 SCF Done:  E(RwB97XD) =  -2048.74321291     A.U. after   15 cycles

 The electronic state is 1-A.
 Alpha  occ. eigenvalues --  -19.25711 -19.21977 -19.20775 -14.52232 -14.52177
 Alpha  occ. eigenvalues --  -14.48984 -14.48734 -14.47752 -14.47127 -14.47041
 Alpha  occ. eigenvalues --  -14.46813 -14.45192 -14.43969 -14.43908 -14.42146
 Alpha  occ. eigenvalues --  -14.42144 -14.41115 -14.41081 -14.40970 -14.40321
 Alpha  occ. eigenvalues --  -10.45275 -10.41385 -10.40234 -10.39336 -10.38403
 Alpha  occ. eigenvalues --  -10.37747 -10.37260 -10.36883 -10.35433 -10.35401
 Alpha  occ. eigenvalues --  -10.35199 -10.34541 -10.33882 -10.33781 -10.33577
 Alpha  occ. eigenvalues --  -10.33323 -10.33131 -10.32322 -10.31263 -10.31104
 Alpha  occ. eigenvalues --  -10.30830 -10.28430 -10.28292  -1.19286  -1.14957
 Alpha  occ. eigenvalues --   -1.13355  -1.13224  -1.11250  -1.10774  -1.09127
 Alpha  occ. eigenvalues --   -1.08835  -1.08714  -1.05041  -1.04341  -1.02460
 Alpha  occ. eigenvalues --   -1.00675  -1.00388  -0.99888  -0.98692  -0.96899
 Alpha  occ. eigenvalues --   -0.96758  -0.96408  -0.92699  -0.90794  -0.87332
 Alpha  occ. eigenvalues --   -0.85663  -0.84300  -0.83946  -0.83561  -0.82699
 Alpha  occ. eigenvalues --   -0.82361  -0.78657  -0.76661  -0.74807  -0.74480
 Alpha  occ. eigenvalues --   -0.73780  -0.73268  -0.72869  -0.71031  -0.69989
 Alpha  occ. eigenvalues --   -0.67548  -0.66502  -0.66294  -0.66255  -0.64505
 Alpha  occ. eigenvalues --   -0.63862  -0.63773  -0.62762  -0.62677  -0.61927
 Alpha  occ. eigenvalues --   -0.60776  -0.60341  -0.60064  -0.59231  -0.59150
 Alpha  occ. eigenvalues --   -0.58763  -0.58521  -0.57104  -0.56565  -0.56286
 Alpha  occ. eigenvalues --   -0.55949  -0.55424  -0.55019  -0.54699  -0.54290
 Alpha  occ. eigenvalues --   -0.53795  -0.53686  -0.53324  -0.53110  -0.53014
 Alpha  occ. eigenvalues --   -0.52498  -0.52352  -0.51840  -0.50842  -0.50348
 Alpha  occ. eigenvalues --   -0.50280  -0.49728  -0.49630  -0.49371  -0.48996
 Alpha  occ. eigenvalues --   -0.48828  -0.48552  -0.47817  -0.47689  -0.47486
 Alpha  occ. eigenvalues --   -0.46954  -0.46084  -0.44829  -0.44483  -0.43108
 Alpha  occ. eigenvalues --   -0.41053  -0.40397  -0.39336  -0.37826  -0.37406
 Alpha  occ. eigenvalues --   -0.37345  -0.37123  -0.37051  -0.36079  -0.34463
 Alpha  occ. eigenvalues --   -0.34175  -0.33849  -0.33490  -0.33371  -0.33314
 Alpha  occ. eigenvalues --   -0.32796  -0.32376  -0.31952  -0.31905  -0.30876
 Alpha  occ. eigenvalues --   -0.30432  -0.29225  -0.26091  -0.25244
 Alpha virt. eigenvalues --    0.03555   0.04260   0.07373   0.07780   0.08270
 Alpha virt. eigenvalues --    0.09193   0.09550   0.10552   0.11014   0.11994
 Alpha virt. eigenvalues --    0.13175   0.13229   0.14289   0.14433   0.14833

 Mulliken charges:
               1
     1  N   -0.307404
     2  C    0.179608
     3  C    0.058468
     4  N   -0.243346
     5  C    0.129653
     6  H    0.024193
     7  N   -0.295005
     8  C    0.135173
     9  H    0.010883
    10  N   -0.289648
    11  C    0.233029
    12  C    0.090291
    13  N   -0.043425
    14  H    0.114953
    15  H    0.085725
    16  H    0.027190
    17  H    0.033994
    18  H    0.017394
    19  N   -0.307135
    20  C    0.260775
    21  C    0.182588
    22  N   -0.124040
    23  H    0.117766
    24  H    0.118920
    25  N   -0.311391
    26  C    0.248724
    27  N   -0.148045
    28  H    0.119224
    29  C    0.193679
    30  O   -0.325328
    31  C   -0.021477
    32  N   -0.215042
    33  C    0.122029
    34  H    0.018728
    35  H    0.024731
    36  H    0.031108
    37  H    0.023778
    38  H    0.050071
    39  H    0.060584
    40  H    0.075397
    41  H    0.020433
    42  C   -0.105618
    43  O   -0.283028
    44  C    0.154927
    45  H    0.129948
    46  N   -0.102321
    47  O   -0.348087
    48  C    0.338527
    49  H    0.044575
    50  C    0.178368
    51  C    0.043821
    52  N   -0.279129
    53  H    0.034354
    54  H    0.042412
    55  H    0.022213
    56  H    0.128358
    57  H    0.115219
    58  N   -0.039177
    59  C    0.072760
    60  C    0.233020
    61  N   -0.268401
    62  H    0.030993
    63  C    0.161208
    64  N   -0.298310
    65  H    0.034714
    66  C    0.120219
    67  N   -0.255559
    68  C    0.041610
    69  C    0.181251
    70  N   -0.306666
 Sum of Mulliken charges =  -0.00000

 Dipole moment (field-independent basis, Debye):
    X=              5.8409    Y=              5.6959    Z=              5.0385  Tot=              9.5889
 Quadrupole moment (field-independent basis, Debye-Ang):
   XX=           -147.0386   YY=           -226.3560   ZZ=           -255.9348
   XY=              7.7231   XZ=              4.9846   YZ=              7.6616

 Normal termination of Gaussian 16 at Fri Jan 19 18:58:30 2018.
