 Gaussian 16, Revision A.03,
 Gaussian 16:  EM64L-G16RevA.03 25-Dec-2016

 ---------------------------------------
 #p wb97xd/cc-pvdz sp scf=(maxcycles=20)
 ---------------------------------------

 ------------------
 Base pair stacking
 ------------------
 Symbolic Z-matrix:
 Charge =  0 Multiplicity = 1

                         Standard orientation:
 ---------------------------------------------------------------------
 Center     Atomic      Atomic             Coordinates (Angstroms)
 Number     Number       Type             X           Y           Z
 ---------------------------------------------------------------------
      1          7           0        5.163410   -1.331182   -1.390380
      2          6           0        6.483320   -0.731495   -1.666503
      3          6           0        2.997173   -1.657535   -1.194919
      4          7           0        3.606520   -2.824373   -0.756840
      5          6           0        4.887207   -2.581059   -0.892136
      6          1           0        5.681795   -3.284412   -0.641412
      7          7           0        1.380700   -0.041783   -1.777410
      8          6           0        2.404023    0.748053   -2.118770
      9          1           0        2.126738    1.731669   -2.495432
     10          7           0        3.712313    0.506422   -2.064943
     11          6           0        3.944028   -0.728024   -1.588604
     12          6           0        1.646850   -1.277816   -1.301518
     13          7           0        0.626676   -2.067718   -0.960235
     14          1           0        0.776942   -2.990404   -0.603476
     15          1           0       -0.322065   -1.764297   -1.049485
     16          1           0        6.969415   -1.288042   -2.340405
     17          1           0        6.361533    0.193554   -2.025077
     18          1           0        7.017154   -0.692138   -0.821837
     19          7           0        4.955498    1.354775    0.999589
     20          6           0        3.592132    1.520749    0.957885
     21          6           0        5.950038    2.337145    0.523648
     22          7           0        0.820307    3.448277    0.143405
     23          1           0       -0.174581    3.372054    0.203532
     24          1           0        1.187748    4.290368   -0.252314
     25          7           0        2.937253    2.600477    0.478947
     26          6           0        1.626331    2.465946    0.573817
     27          7           0        1.002468    1.359497    1.097342
     28          1           0       -0.005310    1.343392    1.130201
     29          6           0        1.656278    0.237068    1.595894
     30          8           0        0.998714   -0.709058    2.046690
     31          6           0        3.065169    0.366865    1.500710
     32          7           0        4.077333   -0.505964    1.875667
     33          6           0        5.178203    0.120783    1.560237
     34          1           0        6.183245   -0.272994    1.715533
     35          1           0        6.504027    1.928752   -0.201006
     36          1           0        5.476609    3.141288    0.166588
     37          1           0        6.541512    2.609246    1.281880
     38          1           0       -5.033102    1.610019    0.420980
     39          1           0       -5.038077    2.083221    2.118248
     40          1           0       -3.667942    2.504332    1.090258
     41          1           0       -4.479238   -2.677316    2.532520
     42          6           0       -3.887066   -1.795303    2.288351
     43          8           0       -1.801818   -2.883032    2.597724
     44          6           0       -2.458886   -1.881065    2.316446
     45          1           0       -0.796272   -0.730333    2.000508
     46          7           0       -1.806314   -0.708957    1.991589
     47          8           0       -1.716827    1.476941    1.382426
     48          6           0       -2.379793    0.491665    1.655175
     49          1           0       -5.557699   -0.520563    1.928046
     50          6           0       -4.475455   -0.638070    1.963990
     51          6           0       -4.418401    1.755798    1.296745
     52          7           0       -3.760800    0.494708    1.650267
     53          1           0       -5.904605    2.854754   -2.880508
     54          1           0       -4.583600    3.182005   -1.980534
     55          1           0       -6.057856    3.141562   -1.281234
     56          1           0       -2.754042   -3.468519   -0.609886
     57          1           0       -4.440045   -3.293880   -0.802218
     58          7           0       -3.533921   -2.869556   -0.792037
     59          6           0       -3.373791   -1.562932   -1.011732
     60          6           0       -4.112789    0.649791   -1.480203
     61          7           0       -2.884074    1.192293   -1.460487
     62          1           0       -0.938122    0.617593   -1.171396
     63          6           0       -1.966825    0.261408   -1.205533
     64          7           0       -2.125201   -1.047770   -0.985208
     65          1           0       -7.331377    0.559284   -1.771137
     66          6           0       -6.276258    0.324312   -1.628167
     67          7           0       -5.807710   -0.871783   -1.368346
     68          6           0       -4.437122   -0.679506   -1.272100
     69          6           0       -5.476577    2.732888   -1.984998
     70          7           0       -5.305895    1.293063   -1.709767
 ---------------------------------------------------------------------

 SCF Done:  E(RwB97XD) =  -2048.74793277     A.U. after   15 cycles

 The electronic state is 1-A.
 Alpha  occ. eigenvalues --  -19.25235 -19.21599 -19.20570 -14.52671 -14.51852
 Alpha  occ. eigenvalues --  -14.48952 -14.48938 -14.48138 -14.47276 -14.46669
 Alpha  occ. eigenvalues --  -14.46585 -14.45627 -14.44542 -14.44481 -14.42760
 Alpha  occ. eigenvalues --  -14.41870 -14.41372 -14.41279 -14.41116 -14.40789
 Alpha  occ. eigenvalues --  -10.44859 -10.41089 -10.40063 -10.39670 -10.38191
 Alpha  occ. eigenvalues --  -10.38152 -10.37347 -10.37133 -10.36059 -10.35857
 Alpha  occ. eigenvalues --  -10.34394 -10.34389 -10.34257 -10.34126 -10.33632
 Alpha  occ. eigenvalues --  -10.33603 -10.33461 -10.32805 -10.31559 -10.31094
 Alpha  occ. eigenvalues --  -10.30579 -10.28741 -10.28188  -1.18912  -1.15522
 Alpha  occ. eigenvalues --   -1.13151  -1.12589  -1.11495  -1.10673  -1.09472
 Alpha  occ. eigenvalues --   -1.08764  -1.08479  -1.05466  -1.04934  -1.01968
 Alpha  occ. eigenvalues --   -1.01205  -1.00827  -0.99640  -0.98485  -0.97240
 Alpha  occ. eigenvalues --   -0.96979  -0.96678  -0.93150  -0.90479  -0.87865
 Alpha  occ. eigenvalues --   -0.86174  -0.84343  -0.84111  -0.83134  -0.82780
 Alpha  occ. eigenvalues --   -0.82537  -0.78320  -0.77216  -0.75033  -0.74670
 Alpha  occ. eigenvalues --   -0.73554  -0.73222  -0.72842  -0.71380  -0.70558
 Alpha  occ. eigenvalues --   -0.67365  -0.66936  -0.66640  -0.66055  -0.64399
 Alpha  occ. eigenvalues --   -0.64308  -0.63595  -0.63076  -0.62560  -0.61778
 Alpha  occ. eigenvalues --   -0.61658  -0.60800  -0.60593  -0.59699  -0.59012
 Alpha  occ. eigenvalues --   -0.58583  -0.58326  -0.57776  -0.56926  -0.55951
 Alpha  occ. eigenvalues --   -0.55904  -0.55613  -0.55478  -0.54106  -0.54003
 Alpha  occ. eigenvalues --   -0.53906  -0.53763  -0.53424  -0.53307  -0.53022
 Alpha  occ. eigenvalues --   -0.52931  -0.52136  -0.51883  -0.50859  -0.50548
 Alpha  occ. eigenvalues --   -0.50242  -0.50091  -0.49249  -0.49167  -0.48838
 Alpha  occ. eigenvalues --   -0.48490  -0.48453  -0.48236  -0.47854  -0.47241
 Alpha  occ. eigenvalues --   -0.47146  -0.46037  -0.45213  -0.44971  -0.42869
 Alpha  occ. eigenvalues --   -0.41318  -0.40911  -0.38940  -0.37922  -0.37721
 Alpha  occ. eigenvalues --   -0.37433  -0.37186  -0.37036  -0.36013  -0.34786
 Alpha  occ. eigenvalues --   -0.34475  -0.34192  -0.33839  -0.33497  -0.32938
 Alpha  occ. eigenvalues --   -0.32600  -0.32420  -0.31839  -0.31462  -0.31127
 Alpha  occ. eigenvalues --   -0.30763  -0.29979  -0.26450  -0.25110
 Alpha virt. eigenvalues --    0.03439   0.03910   0.07027   0.07509   0.08608
 Alpha virt. eigenvalues --    0.09018   0.09789   0.10218   0.10866   0.12624
 Alpha virt. eigenvalues --    0.13108   0.13430   0.14215   0.14315   0.14585

 Mulliken charges:
               1
     1  N   -0.299954
     2  C    0.175586
     3  C    0.071675
     4  N   -0.250908
     5  C    0.139264
     6  H    0.025618
     7  N   -0.286197
     8  C    0.130749
     9  H    0.010294
    10  N   -0.276862
    11  C    0.222528
    12  C    0.074676
    13  N   -0.046097
    14  H    0.112945
    15  H    0.084331
    16  H    0.028268
    17  H    0.038764
    18  H    0.013522
    19  N   -0.297736
    20  C    0.251216
    21  C    0.188963
    22  N   -0.119908
    23  H    0.119805
    24  H    0.117792
    25  N   -0.296327
    26  C    0.226907
    27  N   -0.127716
    28  H    0.116253
    29  C    0.175284
    30  O   -0.321673
    31  C   -0.009220
    32  N   -0.214449
    33  C    0.106211
    34  H    0.021178
    35  H    0.009348
    36  H    0.033154
    37  H    0.023827
    38  H    0.045907
    39  H    0.054510
    40  H    0.076409
    41  H    0.022078
    42  C   -0.099429
    43  O   -0.270706
    44  C    0.166290
    45  H    0.128705
    46  N   -0.109453
    47  O   -0.344658
    48  C    0.330905
    49  H    0.045062
    50  C    0.164895
    51  C    0.050060
    52  N   -0.275591
    53  H    0.036547
    54  H    0.042256
    55  H    0.026304
    56  H    0.125516
    57  H    0.118067
    58  N   -0.055874
    59  C    0.092955
    60  C    0.187720
    61  N   -0.257095
    62  H    0.019623
    63  C    0.166194
    64  N   -0.301410
    65  H    0.035660
    66  C    0.122659
    67  N   -0.250885
    68  C    0.054268
    69  C    0.178406
    70  N   -0.297001
 Sum of Mulliken charges =  -0.00000

 Dipole moment (field-independent basis, Debye):
    X=             -5.7788    Y=              6.8143    Z=             -3.6043  Tot=              9.6343
 Quadrupole moment (field-independent basis, Debye-Ang):
   XX=           -148.5683   YY=           -225.8258   ZZ=           -260.2606
   XY=             -7.8792   XZ=             -3.8312   YZ=              9.0883

 Normal termination of Gaussian 16 at Sat Jan 20 04:18:06 2018.
