 Gaussian 16, Revision A.03,
 Gaussian 16:  EM64L-G16RevA.03 25-Dec-2016

 ---------------------------------------
 #p wb97xd/cc-pvdz sp scf=(maxcycles=20)
 ---------------------------------------

 ------------------
 Base pair stacking
 ------------------
 Symbolic Z-matrix:
 Charge =  0 Multiplicity = 1

                         Standard orientation:
 ---------------------------------------------------------------------
 Center     Atomic      Atomic             Coordinates (Angstroms)
 Number     Number       Type             X           Y           Z
 ---------------------------------------------------------------------
      1          7           0       -6.585747   -0.987666    0.480925
      2          6           0       -7.883752   -0.287765    0.538750
      3          6           0       -4.442900   -1.466180    0.609397
      4          7           0       -5.069702   -2.613798    0.145904
      5          6           0       -6.335605   -2.279580    0.087057
      6          1           0       -7.137340   -2.942528   -0.239527
      7          7           0       -2.808354    0.070855    1.336559
      8          6           0       -3.808493    0.944474    1.491705
      9          1           0       -3.514615    1.927814    1.856310
     10          7           0       -5.111043    0.786515    1.265148
     11          6           0       -5.364495   -0.455417    0.820410
     12          6           0       -3.096008   -1.170384    0.887489
     13          7           0       -2.098997   -2.043866    0.731970
     14          1           0       -2.265703   -2.973700    0.402078
     15          1           0       -1.151971   -1.798727    0.939784
     16          1           0       -8.497306   -0.771499    1.163021
     17          1           0       -7.745254    0.646395    0.866293
     18          1           0       -8.291926   -0.262140   -0.373786
     19          7           0       -3.444016    1.660970   -1.418513
     20          6           0       -2.091421    1.736686   -1.188714
     21          6           0       -4.432631    2.691922   -1.043744
     22          7           0        0.655707    3.455840    0.060102
     23          1           0        1.643092    3.316830    0.130796
     24          1           0        0.289617    4.308378    0.434087
     25          7           0       -1.443470    2.757415   -0.586773
     26          6           0       -0.142392    2.540699   -0.510388
     27          7           0        0.478615    1.411438   -0.986460
     28          1           0        1.478676    1.330795   -0.884817
     29          6           0       -0.168189    0.348603   -1.609266
     30          8           0        0.485972   -0.624990   -2.002858
     31          6           0       -1.566474    0.566970   -1.698625
     32          7           0       -2.569334   -0.227118   -2.237695
     33          6           0       -3.662841    0.460597   -2.049302
     34          1           0       -4.659458    0.137608   -2.352117
     35          1           0       -5.103625    2.299868   -0.415354
     36          1           0       -3.964268    3.453044   -0.596993
     37          1           0       -4.898077    3.023465   -1.863655
     38          1           0        6.370386    1.249561    0.499863
     39          1           0        6.634494    1.769751   -1.162754
     40          1           0        5.165490    2.249511   -0.312333
     41          1           0        5.849796   -2.930571   -1.824369
     42          6           0        5.284461   -2.019269   -1.629044
     43          8           0        3.198543   -2.959817   -2.254668
     44          6           0        3.870784   -2.011153   -1.851062
     45          1           0        2.253440   -0.764249   -1.717846
     46          7           0        3.252338   -0.808852   -1.573133
     47          8           0        3.213509    1.359923   -0.900742
     48          6           0        3.846472    0.341833   -1.118725
     49          1           0        6.964795   -0.866671   -1.001492
     50          6           0        5.892351   -0.912489   -1.186187
     51          6           0        5.890301    1.459971   -0.444226
     52          7           0        5.211641    0.254930   -0.929064
     53          1           0        4.447634    2.541725    3.318404
     54          1           0        3.290543    2.902623    2.226156
     55          1           0        4.840094    2.725338    1.744964
     56          1           0        1.186357   -3.681337    0.930292
     57          1           0        2.838049   -3.606946    1.350400
     58          7           0        1.975376   -3.125358    1.191985
     59          6           0        1.882379   -1.800573    1.324118
     60          6           0        2.709441    0.382177    1.785978
     61          7           0        1.538065    1.002101    1.566893
     62          1           0       -0.386296    0.540655    1.033508
     63          6           0        0.599131    0.120296    1.229666
     64          7           0        0.690301   -1.206963    1.096798
     65          1           0        5.842063    0.097536    2.532844
     66          6           0        4.802345   -0.075516    2.253604
     67          7           0        4.287946   -1.251252    1.987659
     68          6           0        2.961395   -0.975308    1.689602
     69          6           0        4.139201    2.396882    2.378244
     70          7           0        3.903353    0.957905    2.150833
 ---------------------------------------------------------------------

 SCF Done:  E(RwB97XD) =  -2048.73919910     A.U. after   15 cycles

 The electronic state is 1-A.
 Alpha  occ. eigenvalues --  -19.25885 -19.21902 -19.20482 -14.52533 -14.51771
 Alpha  occ. eigenvalues --  -14.49835 -14.48253 -14.47823 -14.47116 -14.46423
 Alpha  occ. eigenvalues --  -14.46142 -14.44686 -14.43369 -14.43214 -14.43083
 Alpha  occ. eigenvalues --  -14.42408 -14.42054 -14.41782 -14.41111 -14.40521
 Alpha  occ. eigenvalues --  -10.45513 -10.40791 -10.40004 -10.39012 -10.37953
 Alpha  occ. eigenvalues --  -10.37630 -10.37307 -10.36392 -10.36378 -10.35928
 Alpha  occ. eigenvalues --  -10.35081 -10.35059 -10.34419 -10.34056 -10.33977
 Alpha  occ. eigenvalues --  -10.33813 -10.33030 -10.31943 -10.31691 -10.30923
 Alpha  occ. eigenvalues --  -10.29570 -10.29446 -10.27778  -1.19547  -1.14462
 Alpha  occ. eigenvalues --   -1.13014  -1.12932  -1.12410  -1.10268  -1.09388
 Alpha  occ. eigenvalues --   -1.08386  -1.08226  -1.06013  -1.03889  -1.02497
 Alpha  occ. eigenvalues --   -1.01478  -1.00261  -0.99347  -0.98273  -0.97960
 Alpha  occ. eigenvalues --   -0.96115  -0.95924  -0.93677  -0.90986  -0.87008
 Alpha  occ. eigenvalues --   -0.85470  -0.84985  -0.84058  -0.83633  -0.83305
 Alpha  occ. eigenvalues --   -0.81715  -0.78851  -0.76308  -0.74293  -0.74090
 Alpha  occ. eigenvalues --   -0.73864  -0.73424  -0.73271  -0.72095  -0.69703
 Alpha  occ. eigenvalues --   -0.67306  -0.67049  -0.66519  -0.66034  -0.64466
 Alpha  occ. eigenvalues --   -0.63803  -0.63488  -0.63380  -0.62514  -0.61384
 Alpha  occ. eigenvalues --   -0.61190  -0.61123  -0.59972  -0.59490  -0.58972
 Alpha  occ. eigenvalues --   -0.58133  -0.57970  -0.57634  -0.57469  -0.56498
 Alpha  occ. eigenvalues --   -0.56208  -0.55912  -0.55041  -0.54830  -0.54350
 Alpha  occ. eigenvalues --   -0.54090  -0.53264  -0.53103  -0.52852  -0.52470
 Alpha  occ. eigenvalues --   -0.52412  -0.52252  -0.51975  -0.51475  -0.51079
 Alpha  occ. eigenvalues --   -0.50026  -0.49790  -0.49401  -0.49003  -0.48716
 Alpha  occ. eigenvalues --   -0.48465  -0.48152  -0.47963  -0.47854  -0.47407
 Alpha  occ. eigenvalues --   -0.47193  -0.45656  -0.45409  -0.44195  -0.43383
 Alpha  occ. eigenvalues --   -0.41989  -0.40197  -0.39491  -0.38269  -0.37255
 Alpha  occ. eigenvalues --   -0.37137  -0.37004  -0.36673  -0.35536  -0.34657
 Alpha  occ. eigenvalues --   -0.34458  -0.34024  -0.33674  -0.33339  -0.33079
 Alpha  occ. eigenvalues --   -0.32496  -0.32064  -0.31818  -0.31714  -0.31622
 Alpha  occ. eigenvalues --   -0.31369  -0.28764  -0.26798  -0.25026
 Alpha virt. eigenvalues --    0.03113   0.04755   0.06889   0.08098   0.08268
 Alpha virt. eigenvalues --    0.09215   0.09826   0.10075   0.11039   0.11784
 Alpha virt. eigenvalues --    0.13069   0.13113   0.14484   0.14776   0.14833

 Mulliken charges:
               1
     1  N   -0.311199
     2  C    0.179211
     3  C    0.058270
     4  N   -0.254241
     5  C    0.130602
     6  H    0.029489
     7  N   -0.271152
     8  C    0.130758
     9  H    0.018997
    10  N   -0.293281
    11  C    0.232467
    12  C    0.097200
    13  N   -0.043539
    14  H    0.108738
    15  H    0.088776
    16  H    0.029089
    17  H    0.035572
    18  H    0.025862
    19  N   -0.291151
    20  C    0.243652
    21  C    0.179733
    22  N   -0.096454
    23  H    0.112152
    24  H    0.112700
    25  N   -0.294301
    26  C    0.208819
    27  N   -0.132871
    28  H    0.127237
    29  C    0.146884
    30  O   -0.323592
    31  C    0.011105
    32  N   -0.223363
    33  C    0.117390
    34  H    0.022087
    35  H    0.018561
    36  H    0.023744
    37  H    0.017653
    38  H    0.039017
    39  H    0.065278
    40  H    0.080304
    41  H    0.029812
    42  C   -0.098506
    43  O   -0.267937
    44  C    0.177518
    45  H    0.133667
    46  N   -0.126216
    47  O   -0.341551
    48  C    0.339511
    49  H    0.044716
    50  C    0.174798
    51  C    0.035485
    52  N   -0.278660
    53  H    0.033455
    54  H    0.033455
    55  H    0.004792
    56  H    0.120973
    57  H    0.120116
    58  N   -0.060017
    59  C    0.122839
    60  C    0.226273
    61  N   -0.285395
    62  H    0.032569
    63  C    0.173848
    64  N   -0.305469
    65  H    0.035563
    66  C    0.107796
    67  N   -0.245185
    68  C    0.012335
    69  C    0.186201
    70  N   -0.292991
 Sum of Mulliken charges =  -0.00000

 Dipole moment (field-independent basis, Debye):
    X=              5.1919    Y=              5.7241    Z=              4.3900  Tot=              8.8879
 Quadrupole moment (field-independent basis, Debye-Ang):
   XX=           -142.1539   YY=           -227.0922   ZZ=           -259.4422
   XY=             14.9272   XZ=             12.8378   YZ=             -7.2000

 Normal termination of Gaussian 16 at Fri Jan 19 15:32:26 2018.
