 Gaussian 16, Revision A.03,
 Gaussian 16:  EM64L-G16RevA.03 25-Dec-2016

 ---------------------------------------
 #p wb97xd/cc-pvdz sp scf=(maxcycles=20)
 ---------------------------------------

 ------------------
 Base pair stacking
 ------------------
 Symbolic Z-matrix:
 Charge =  0 Multiplicity = 1

                         Standard orientation:
 ---------------------------------------------------------------------
 Center     Atomic      Atomic             Coordinates (Angstroms)
 Number     Number       Type             X           Y           Z
 ---------------------------------------------------------------------
      1          7           0        6.290378   -0.989713   -0.657057
      2          6           0        7.588353   -0.288352   -0.620280
      3          6           0        4.145566   -1.443873   -0.832667
      4          7           0        4.776728   -2.649489   -0.562787
      5          6           0        6.043635   -2.327624   -0.467795
      6          1           0        6.848566   -3.032969   -0.259204
      7          7           0        2.503953    0.186912   -1.289397
      8          6           0        3.503102    1.074864   -1.317797
      9          1           0        3.205870    2.103002   -1.519891
     10          7           0        4.808147    0.884371   -1.134888
     11          6           0        5.065648   -0.411768   -0.893744
     12          6           0        2.795695   -1.109191   -1.044277
     13          7           0        1.799698   -1.997069   -1.015528
     14          1           0        1.969393   -2.967023   -0.837747
     15          1           0        0.850462   -1.723124   -1.170622
     16          1           0        8.193654   -0.667603   -1.320248
     17          1           0        7.446900    0.685534   -0.795411
     18          1           0        8.007740   -0.405934    0.279878
     19          7           0        3.779277    1.456523    1.357259
     20          6           0        2.424495    1.558364    1.151743
     21          6           0        4.782286    2.461289    0.950896
     22          7           0       -0.308669    3.320334   -0.067690
     23          1           0       -1.299938    3.201664   -0.118185
     24          1           0        0.068285    4.160100   -0.459376
     25          7           0        1.787078    2.585169    0.548893
     26          6           0        0.480480    2.395475    0.499559
     27          7           0       -0.155228    1.285809    1.001598
     28          1           0       -1.158518    1.225374    0.919648
     29          6           0        0.480550    0.217200    1.625875
     30          8           0       -0.186559   -0.737158    2.044073
     31          6           0        1.884591    0.406625    1.686345
     32          7           0        2.880392   -0.402012    2.216814
     33          6           0        3.984481    0.259697    1.999250
     34          1           0        4.979577   -0.080791    2.287577
     35          1           0        5.432809    2.047129    0.315218
     36          1           0        4.321803    3.226655    0.503196
     37          1           0        5.270065    2.792970    1.757663
     38          1           0       -6.076139    1.231804   -0.372490
     39          1           0       -6.297688    1.778235    1.287930
     40          1           0       -4.835173    2.215739    0.404188
     41          1           0       -5.600489   -2.929235    1.995220
     42          6           0       -5.019743   -2.032765    1.777693
     43          8           0       -2.942790   -3.009962    2.376395
     44          6           0       -3.602276   -2.052197    1.973208
     45          1           0       -1.961656   -0.842025    1.793857
     46          7           0       -2.963827   -0.866994    1.668362
     47          8           0       -2.891728    1.291888    0.967517
     48          6           0       -3.541907    0.290413    1.210343
     49          1           0       -6.686816   -0.852309    1.166788
     50          6           0       -5.612282   -0.918807    1.332042
     51          6           0       -5.573950    1.443629    0.559709
     52          7           0       -4.911950    0.230453    1.047277
     53          1           0       -4.773037    2.932311   -2.769403
     54          1           0       -3.602211    3.118244   -1.648385
     55          1           0       -5.145938    2.866369   -1.181944
     56          1           0       -1.489701   -3.585792   -1.427961
     57          1           0       -3.146337   -3.447728   -1.810830
     58          7           0       -2.281237   -2.996278   -1.589416
     59          6           0       -2.188374   -1.667096   -1.513109
     60          6           0       -3.018589    0.560411   -1.616437
     61          7           0       -1.843913    1.139234   -1.317201
     62          1           0        0.086339    0.601356   -0.886573
     63          6           0       -0.901907    0.216183   -1.134144
     64          7           0       -0.992933   -1.115548   -1.210120
     65          1           0       -6.160471    0.393984   -2.360119
     66          6           0       -5.117597    0.180089   -2.124307
     67          7           0       -4.601299   -1.022399   -2.052557
     68          6           0       -3.270872   -0.795569   -1.731227
     69          6           0       -4.453250    2.641950   -1.867510
     70          7           0       -4.216243    1.185302   -1.871687
 ---------------------------------------------------------------------

 SCF Done:  E(RwB97XD) =  -2048.69040140     A.U. after   15 cycles

 The electronic state is 1-A.
 Alpha  occ. eigenvalues --  -19.25477 -19.21709 -19.20436 -14.52327 -14.52237
 Alpha  occ. eigenvalues --  -14.49868 -14.48079 -14.47690 -14.47602 -14.46365
 Alpha  occ. eigenvalues --  -14.45935 -14.45290 -14.43783 -14.43753 -14.43254
 Alpha  occ. eigenvalues --  -14.42370 -14.41645 -14.41602 -14.41021 -14.40407
 Alpha  occ. eigenvalues --  -10.45167 -10.40752 -10.39818 -10.39532 -10.37873
 Alpha  occ. eigenvalues --  -10.37808 -10.37507 -10.36911 -10.36383 -10.35444
 Alpha  occ. eigenvalues --  -10.35147 -10.35012 -10.34304 -10.34054 -10.33770
 Alpha  occ. eigenvalues --  -10.33762 -10.32947 -10.32253 -10.32141 -10.30753
 Alpha  occ. eigenvalues --  -10.29476 -10.28805 -10.27566  -1.19399  -1.15047
 Alpha  occ. eigenvalues --   -1.13039  -1.12742  -1.12398  -1.10258  -1.09304
 Alpha  occ. eigenvalues --   -1.08787  -1.08231  -1.06000  -1.04433  -1.02315
 Alpha  occ. eigenvalues --   -1.01573  -1.00859  -0.99267  -0.98301  -0.97995
 Alpha  occ. eigenvalues --   -0.96457  -0.96031  -0.93699  -0.90852  -0.87685
 Alpha  occ. eigenvalues --   -0.86074  -0.85030  -0.83896  -0.83553  -0.83325
 Alpha  occ. eigenvalues --   -0.81485  -0.78693  -0.76887  -0.74814  -0.74250
 Alpha  occ. eigenvalues --   -0.73887  -0.73357  -0.73165  -0.72043  -0.70274
 Alpha  occ. eigenvalues --   -0.67362  -0.66973  -0.66615  -0.66352  -0.64740
 Alpha  occ. eigenvalues --   -0.64170  -0.63744  -0.63374  -0.62615  -0.61906
 Alpha  occ. eigenvalues --   -0.61408  -0.61135  -0.60624  -0.59483  -0.59441
 Alpha  occ. eigenvalues --   -0.58195  -0.57848  -0.57737  -0.57561  -0.56744
 Alpha  occ. eigenvalues --   -0.56392  -0.56030  -0.55210  -0.54974  -0.54729
 Alpha  occ. eigenvalues --   -0.54045  -0.53658  -0.53180  -0.53035  -0.52661
 Alpha  occ. eigenvalues --   -0.52367  -0.52168  -0.51649  -0.51542  -0.50770
 Alpha  occ. eigenvalues --   -0.50075  -0.49601  -0.49270  -0.49049  -0.48741
 Alpha  occ. eigenvalues --   -0.48454  -0.48263  -0.47992  -0.47824  -0.47076
 Alpha  occ. eigenvalues --   -0.46926  -0.45652  -0.45247  -0.44392  -0.43029
 Alpha  occ. eigenvalues --   -0.41781  -0.40681  -0.39384  -0.38083  -0.37590
 Alpha  occ. eigenvalues --   -0.37453  -0.37157  -0.36866  -0.35768  -0.34713
 Alpha  occ. eigenvalues --   -0.34375  -0.34131  -0.33854  -0.33119  -0.32905
 Alpha  occ. eigenvalues --   -0.32400  -0.31981  -0.31735  -0.31561  -0.31315
 Alpha  occ. eigenvalues --   -0.31088  -0.29228  -0.26616  -0.24828
 Alpha virt. eigenvalues --    0.03129   0.04438   0.06753   0.07406   0.08132
 Alpha virt. eigenvalues --    0.08660   0.10066   0.10173   0.11269   0.12287
 Alpha virt. eigenvalues --    0.13140   0.13397   0.14078   0.14427   0.14729

 Mulliken charges:
               1
     1  N   -0.311641
     2  C    0.175725
     3  C    0.069028
     4  N   -0.254233
     5  C    0.129601
     6  H    0.029156
     7  N   -0.271875
     8  C    0.136417
     9  H    0.018497
    10  N   -0.296036
    11  C    0.229866
    12  C    0.093444
    13  N   -0.045849
    14  H    0.108556
    15  H    0.088711
    16  H    0.030007
    17  H    0.039901
    18  H    0.025970
    19  N   -0.278076
    20  C    0.201382
    21  C    0.191214
    22  N   -0.090681
    23  H    0.114193
    24  H    0.111199
    25  N   -0.284384
    26  C    0.194701
    27  N   -0.145774
    28  H    0.136083
    29  C    0.153569
    30  O   -0.323594
    31  C    0.022537
    32  N   -0.219267
    33  C    0.119494
    34  H    0.017806
    35  H    0.022882
    36  H    0.022113
    37  H    0.009620
    38  H    0.023931
    39  H    0.059538
    40  H    0.069963
    41  H    0.029112
    42  C   -0.105320
    43  O   -0.265944
    44  C    0.178001
    45  H    0.132226
    46  N   -0.125595
    47  O   -0.332080
    48  C    0.333842
    49  H    0.043866
    50  C    0.174868
    51  C    0.056102
    52  N   -0.277031
    53  H    0.032375
    54  H    0.034385
    55  H    0.017331
    56  H    0.121434
    57  H    0.120443
    58  N   -0.063896
    59  C    0.121763
    60  C    0.215397
    61  N   -0.278438
    62  H    0.045316
    63  C    0.154455
    64  N   -0.307050
    65  H    0.043392
    66  C    0.103740
    67  N   -0.239957
    68  C    0.026277
    69  C    0.182056
    70  N   -0.294762
 Sum of Mulliken charges =  -0.00000

 Dipole moment (field-independent basis, Debye):
    X=             -5.1033    Y=              5.8831    Z=             -4.9219  Tot=              9.2130
 Quadrupole moment (field-independent basis, Debye-Ang):
   XX=           -144.3082   YY=           -228.4843   ZZ=           -261.3802
   XY=            -14.2981   XZ=              8.4720   YZ=             10.4374

 Normal termination of Gaussian 16 at Fri Jan 19 23:38:23 2018.
