 Gaussian 16, Revision A.03,
 Gaussian 16:  EM64L-G16RevA.03 25-Dec-2016

 ---------------------------------------
 #p wb97xd/cc-pvdz sp scf=(maxcycles=20)
 ---------------------------------------

 ------------------
 Base pair stacking
 ------------------
 Symbolic Z-matrix:
 Charge =  0 Multiplicity = 1

                         Standard orientation:
 ---------------------------------------------------------------------
 Center     Atomic      Atomic             Coordinates (Angstroms)
 Number     Number       Type             X           Y           Z
 ---------------------------------------------------------------------
      1          7           0        4.855104   -1.440214   -1.549162
      2          6           0        6.169709   -0.882852   -1.922192
      3          6           0        2.694899   -1.718364   -1.243436
      4          7           0        3.307600   -2.858076   -0.743029
      5          6           0        4.584519   -2.644875   -0.947254
      6          1           0        5.380197   -3.339308   -0.675932
      7          7           0        1.075458   -0.126763   -1.881517
      8          6           0        2.093386    0.619754   -2.322104
      9          1           0        1.812761    1.576387   -2.760687
     10          7           0        3.399789    0.363193   -2.302344
     11          6           0        3.635955   -0.835358   -1.743663
     12          6           0        1.346000   -1.327454   -1.324548
     13          7           0        0.331223   -2.074096   -0.884150
     14          1           0        0.484874   -2.969567   -0.464939
     15          1           0       -0.616666   -1.763987   -0.958208
     16          1           0        6.621157   -1.495642   -2.570924
     17          1           0        6.044475    0.014403   -2.344527
     18          1           0        6.738050   -0.788253   -1.104854
     19          7           0        5.251506    1.325925    0.855044
     20          6           0        3.889944    1.510825    0.859206
     21          6           0        6.243716    2.299474    0.356635
     22          7           0        1.120336    3.483999    0.153829
     23          1           0        0.126938    3.420697    0.245463
     24          1           0        1.486471    4.324992   -0.245410
     25          7           0        3.235011    2.604152    0.412274
     26          6           0        1.926095    2.486486    0.548313
     27          7           0        1.304155    1.383354    1.081040
     28          1           0        0.297833    1.380622    1.146415
     29          6           0        1.958049    0.247141    1.547196
     30          8           0        1.302309   -0.694483    2.009890
     31          6           0        3.364798    0.358752    1.407623
     32          7           0        4.376311   -0.531500    1.741056
     33          6           0        5.475020    0.083394    1.396165
     34          1           0        6.478980   -0.325553    1.514946
     35          1           0        6.768276    1.890965   -0.389528
     36          1           0        5.770229    3.113560    0.022952
     37          1           0        6.863110    2.555798    1.097896
     38          1           0       -4.746048    1.722713    0.603323
     39          1           0       -4.689611    2.178684    2.304369
     40          1           0       -3.347682    2.591560    1.236601
     41          1           0       -4.183944   -2.592965    2.654064
     42          6           0       -3.587760   -1.716654    2.399388
     43          8           0       -1.508932   -2.835690    2.630376
     44          6           0       -2.160746   -1.822083    2.380306
     45          1           0       -0.493356   -0.690903    2.021766
     46          7           0       -1.502767   -0.655714    2.045824
     47          8           0       -1.402615    1.534829    1.455322
     48          6           0       -2.070070    0.555945    1.739865
     49          1           0       -5.251270   -0.415735    2.105868
     50          6           0       -4.170173   -0.548293    2.105529
     51          6           0       -4.101414    1.851228    1.460055
     52          7           0       -3.450331    0.577805    1.779795
     53          1           0       -6.213568    2.788047   -2.909261
     54          1           0       -4.853061    3.162004   -2.089950
     55          1           0       -6.297892    3.196319   -1.331411
     56          1           0       -3.048911   -3.393665   -0.294502
     57          1           0       -4.739149   -3.208627   -0.432156
     58          7           0       -3.828340   -2.798404   -0.490190
     59          6           0       -3.661664   -1.514503   -0.814232
     60          6           0       -4.392603    0.667684   -1.418798
     61          7           0       -3.157694    1.191602   -1.489121
     62          1           0       -1.208577    0.611021   -1.235176
     63          6           0       -2.242018    0.268790   -1.201275
     64          7           0       -2.406945   -1.017642   -0.876484
     65          1           0       -7.621246    0.604006   -1.573587
     66          6           0       -6.564049    0.364588   -1.455424
     67          7           0       -6.099662   -0.815548   -1.124804
     68          6           0       -4.724081   -0.637222   -1.098057
     69          6           0       -5.750797    2.727304   -2.024869
     70          7           0       -5.586290    1.309775   -1.648616
 ---------------------------------------------------------------------

 SCF Done:  E(RwB97XD) =  -2048.75076041     A.U. after   15 cycles

 The electronic state is 1-A.
 Alpha  occ. eigenvalues --  -19.25273 -19.21646 -19.20655 -14.52750 -14.51801
 Alpha  occ. eigenvalues --  -14.49181 -14.48732 -14.48173 -14.47256 -14.46782
 Alpha  occ. eigenvalues --  -14.46654 -14.45621 -14.44609 -14.44581 -14.42676
 Alpha  occ. eigenvalues --  -14.41961 -14.41337 -14.41226 -14.41144 -14.40730
 Alpha  occ. eigenvalues --  -10.44868 -10.41194 -10.40143 -10.39679 -10.38291
 Alpha  occ. eigenvalues --  -10.38181 -10.37455 -10.37052 -10.36134 -10.35767
 Alpha  occ. eigenvalues --  -10.34547 -10.34391 -10.34172 -10.33947 -10.33790
 Alpha  occ. eigenvalues --  -10.33489 -10.33404 -10.32928 -10.31337 -10.31283
 Alpha  occ. eigenvalues --  -10.30502 -10.28632 -10.28338  -1.18873  -1.15518
 Alpha  occ. eigenvalues --   -1.13263  -1.12613  -1.11313  -1.10847  -1.09565
 Alpha  occ. eigenvalues --   -1.08710  -1.08549  -1.05375  -1.05023  -1.01933
 Alpha  occ. eigenvalues --   -1.01195  -1.00732  -0.99728  -0.98617  -0.97189
 Alpha  occ. eigenvalues --   -0.96933  -0.96841  -0.93061  -0.90428  -0.87906
 Alpha  occ. eigenvalues --   -0.86151  -0.84428  -0.84025  -0.83045  -0.82798
 Alpha  occ. eigenvalues --   -0.82497  -0.78280  -0.77259  -0.75096  -0.74817
 Alpha  occ. eigenvalues --   -0.73656  -0.73084  -0.72799  -0.71269  -0.70602
 Alpha  occ. eigenvalues --   -0.67475  -0.66991  -0.66499  -0.66002  -0.64452
 Alpha  occ. eigenvalues --   -0.64413  -0.63530  -0.62945  -0.62651  -0.61869
 Alpha  occ. eigenvalues --   -0.61207  -0.60743  -0.60566  -0.59702  -0.58963
 Alpha  occ. eigenvalues --   -0.58782  -0.58399  -0.57724  -0.56786  -0.55884
 Alpha  occ. eigenvalues --   -0.55829  -0.55666  -0.55463  -0.54261  -0.54063
 Alpha  occ. eigenvalues --   -0.53955  -0.53826  -0.53432  -0.53125  -0.53062
 Alpha  occ. eigenvalues --   -0.53007  -0.51947  -0.51794  -0.50706  -0.50519
 Alpha  occ. eigenvalues --   -0.50295  -0.50157  -0.49303  -0.49152  -0.48999
 Alpha  occ. eigenvalues --   -0.48734  -0.48312  -0.48175  -0.48069  -0.47194
 Alpha  occ. eigenvalues --   -0.47142  -0.45964  -0.45467  -0.44915  -0.42651
 Alpha  occ. eigenvalues --   -0.41303  -0.40937  -0.38974  -0.38068  -0.37786
 Alpha  occ. eigenvalues --   -0.37462  -0.37281  -0.37117  -0.35878  -0.34863
 Alpha  occ. eigenvalues --   -0.34474  -0.34176  -0.33639  -0.33450  -0.33032
 Alpha  occ. eigenvalues --   -0.32781  -0.32635  -0.31936  -0.31297  -0.30981
 Alpha  occ. eigenvalues --   -0.30672  -0.30257  -0.26472  -0.25151
 Alpha virt. eigenvalues --    0.03339   0.03960   0.06939   0.07552   0.08578
 Alpha virt. eigenvalues --    0.09017   0.09747   0.10218   0.10930   0.12482
 Alpha virt. eigenvalues --    0.13012   0.13473   0.14150   0.14458   0.14722

 Mulliken charges:
               1
     1  N   -0.299724
     2  C    0.180189
     3  C    0.060945
     4  N   -0.249768
     5  C    0.146026
     6  H    0.025771
     7  N   -0.288327
     8  C    0.126780
     9  H    0.009527
    10  N   -0.277955
    11  C    0.230790
    12  C    0.075741
    13  N   -0.049923
    14  H    0.115132
    15  H    0.085173
    16  H    0.027149
    17  H    0.035311
    18  H    0.009863
    19  N   -0.304380
    20  C    0.256359
    21  C    0.185474
    22  N   -0.121417
    23  H    0.119660
    24  H    0.118543
    25  N   -0.301472
    26  C    0.233602
    27  N   -0.132870
    28  H    0.120318
    29  C    0.179649
    30  O   -0.320392
    31  C   -0.011234
    32  N   -0.214473
    33  C    0.103721
    34  H    0.024323
    35  H    0.014856
    36  H    0.033636
    37  H    0.025453
    38  H    0.045766
    39  H    0.053992
    40  H    0.076380
    41  H    0.019582
    42  C   -0.098573
    43  O   -0.272867
    44  C    0.169261
    45  H    0.129254
    46  N   -0.113554
    47  O   -0.348050
    48  C    0.331146
    49  H    0.045097
    50  C    0.159652
    51  C    0.052615
    52  N   -0.273997
    53  H    0.036660
    54  H    0.041890
    55  H    0.028323
    56  H    0.125622
    57  H    0.117492
    58  N   -0.055468
    59  C    0.095563
    60  C    0.199715
    61  N   -0.258682
    62  H    0.025904
    63  C    0.168862
    64  N   -0.307034
    65  H    0.037630
    66  C    0.131269
    67  N   -0.254000
    68  C    0.042467
    69  C    0.177908
    70  N   -0.301883
 Sum of Mulliken charges =  -0.00000

 Dipole moment (field-independent basis, Debye):
    X=             -5.9022    Y=              7.0718    Z=             -3.2077  Tot=              9.7538
 Quadrupole moment (field-independent basis, Debye-Ang):
   XX=           -148.7635   YY=           -225.5665   ZZ=           -259.2848
   XY=             -6.7325   XZ=             -7.0745   YZ=              8.1916

 Normal termination of Gaussian 16 at Fri Jan 19 12:29:08 2018.
