 Gaussian 16, Revision A.03,
 Gaussian 16:  EM64L-G16RevA.03 25-Dec-2016

 ---------------------------------------
 #p wb97xd/cc-pvdz sp scf=(maxcycles=20)
 ---------------------------------------

 ------------------
 Base pair stacking
 ------------------
 Symbolic Z-matrix:
 Charge =  0 Multiplicity = 1

                         Standard orientation:
 ---------------------------------------------------------------------
 Center     Atomic      Atomic             Coordinates (Angstroms)
 Number     Number       Type             X           Y           Z
 ---------------------------------------------------------------------
      1          7           0       -5.477318   -1.990021    0.420448
      2          6           0       -6.789474   -1.799622    1.068525
      3          6           0       -3.316356   -2.045438    0.014895
      4          7           0       -3.938434   -2.521661   -1.130076
      5          6           0       -5.215435   -2.469211   -0.839916
      6          1           0       -6.017390   -2.770486   -1.514492
      7          7           0       -1.682803   -1.360290    1.572140
      8          6           0       -2.696455   -1.085729    2.399607
      9          1           0       -2.408255   -0.692151    3.373416
     10          7           0       -4.006512   -1.223688    2.205661
     11          6           0       -4.252010   -1.713754    0.979286
     12          6           0       -1.962722   -1.852119    0.345432
     13          7           0       -0.952228   -2.126820   -0.481985
     14          1           0       -1.112815   -2.492355   -1.399488
     15          1           0       -0.000750   -1.976678   -0.213104
     16          1           0       -7.265709   -2.677266    1.124274
     17          1           0       -6.657315   -1.434113    1.989433
     18          1           0       -7.338269   -1.158014    0.532656
     19          7           0       -4.627998    2.091874   -0.255169
     20          6           0       -3.262814    2.201492   -0.144241
     21          6           0       -5.612830    2.833395    0.557817
     22          7           0       -0.471384    3.608118    1.369389
     23          1           0        0.522867    3.541197    1.290470
     24          1           0       -0.830451    4.238781    2.057906
     25          7           0       -2.597051    2.998613    0.719133
     26          6           0       -1.287319    2.885055    0.587520
     27          7           0       -0.674454    2.054957   -0.319587
     28          1           0        0.333284    2.032663   -0.350031
     29          6           0       -1.339560    1.226029   -1.217575
     30          8           0       -0.691393    0.514953   -1.995379
     31          6           0       -2.747322    1.337076   -1.088103
     32          7           0       -3.768338    0.697648   -1.777704
     33          6           0       -4.863068    1.175491   -1.250982
     34          1           0       -5.872158    0.892622   -1.552626
     35          1           0       -6.182922    2.187674    1.064619
     36          1           0       -5.131307    3.427209    1.201079
     37          1           0       -6.189705    3.389353   -0.039627
     38          1           0        5.354821    1.903592    0.437486
     39          1           0        5.390021    2.996222   -0.944379
     40          1           0        4.013294    3.014284    0.158176
     41          1           0        4.760138   -1.221371   -3.171889
     42          6           0        4.179048   -0.490787   -2.609023
     43          8           0        2.080861   -1.332247   -3.327796
     44          6           0        2.750173   -0.530416   -2.676751
     45          1           0        1.102251    0.441568   -1.950191
     46          7           0        2.112300    0.437628   -1.927584
     47          8           0        2.049938    2.219100   -0.520575
     48          6           0        2.700516    1.402956   -1.149319
     49          1           0        5.865056    0.511695   -1.773421
     50          6           0        4.781636    0.438898   -1.858576
     51          6           0        4.754272    2.389015   -0.317346
     52          7           0        4.081204    1.376238   -1.135275
     53          1           0        5.633411   -0.129845    4.336432
     54          1           0        4.297815    0.739572    3.986614
     55          1           0        5.759046    1.241063    3.459932
     56          1           0        2.415653   -2.784906   -1.800522
     57          1           0        4.105573   -2.790229   -1.567634
     58          7           0        3.201217   -2.504236   -1.248928
     59          6           0        3.050623   -1.780735   -0.137608
     60          6           0        3.807320   -0.615878    1.794292
     61          7           0        2.580768   -0.246038    2.198290
     62          1           0        0.627496   -0.443768    1.609869
     63          6           0        1.655127   -0.699850    1.355591
     64          7           0        1.803948   -1.424643    0.241989
     65          1           0        7.030213   -0.857663    1.875775
     66          6           0        5.971697   -0.922998    1.622381
     67          7           0        5.493482   -1.548531    0.574672
     68          6           0        4.122217   -1.361578    0.671663
     69          6           0        5.188815    0.440827    3.646030
     70          7           0        5.007087   -0.335694    2.404253
 ---------------------------------------------------------------------

 SCF Done:  E(RwB97XD) =  -2048.73237783     A.U. after   15 cycles

 The electronic state is 1-A.
 Alpha  occ. eigenvalues --  -19.25805 -19.22021 -19.20858 -14.52208 -14.52134
 Alpha  occ. eigenvalues --  -14.49041 -14.48638 -14.47909 -14.47128 -14.46896
 Alpha  occ. eigenvalues --  -14.46817 -14.45116 -14.43877 -14.43814 -14.42223
 Alpha  occ. eigenvalues --  -14.41996 -14.41122 -14.41009 -14.40859 -14.40208
 Alpha  occ. eigenvalues --  -10.45360 -10.41464 -10.40469 -10.39186 -10.38477
 Alpha  occ. eigenvalues --  -10.37660 -10.37220 -10.36796 -10.35340 -10.35282
 Alpha  occ. eigenvalues --  -10.35236 -10.34605 -10.33777 -10.33680 -10.33616
 Alpha  occ. eigenvalues --  -10.33223 -10.33032 -10.32247 -10.31169 -10.31163
 Alpha  occ. eigenvalues --  -10.30932 -10.28355 -10.28325  -1.19378  -1.14868
 Alpha  occ. eigenvalues --   -1.13543  -1.13431  -1.11154  -1.10837  -1.09194
 Alpha  occ. eigenvalues --   -1.08795  -1.08736  -1.04931  -1.04278  -1.02621
 Alpha  occ. eigenvalues --   -1.00593  -1.00269  -0.99970  -0.98766  -0.96861
 Alpha  occ. eigenvalues --   -0.96753  -0.96335  -0.92583  -0.90877  -0.87245
 Alpha  occ. eigenvalues --   -0.85572  -0.84362  -0.83848  -0.83624  -0.82757
 Alpha  occ. eigenvalues --   -0.82264  -0.78759  -0.76590  -0.74874  -0.74421
 Alpha  occ. eigenvalues --   -0.73859  -0.73395  -0.72763  -0.70927  -0.69912
 Alpha  occ. eigenvalues --   -0.67622  -0.66586  -0.66269  -0.66155  -0.64598
 Alpha  occ. eigenvalues --   -0.63960  -0.63702  -0.62834  -0.62567  -0.61997
 Alpha  occ. eigenvalues --   -0.60695  -0.60236  -0.60003  -0.59278  -0.59090
 Alpha  occ. eigenvalues --   -0.58811  -0.58597  -0.57054  -0.56462  -0.56295
 Alpha  occ. eigenvalues --   -0.56043  -0.55303  -0.55064  -0.54788  -0.54370
 Alpha  occ. eigenvalues --   -0.53891  -0.53734  -0.53288  -0.53148  -0.52967
 Alpha  occ. eigenvalues --   -0.52489  -0.52352  -0.51738  -0.50768  -0.50432
 Alpha  occ. eigenvalues --   -0.50185  -0.49911  -0.49644  -0.49487  -0.49094
 Alpha  occ. eigenvalues --   -0.48726  -0.48641  -0.47857  -0.47615  -0.47516
 Alpha  occ. eigenvalues --   -0.46858  -0.46108  -0.44767  -0.44300  -0.42982
 Alpha  occ. eigenvalues --   -0.40956  -0.40318  -0.39428  -0.37893  -0.37476
 Alpha  occ. eigenvalues --   -0.37414  -0.37020  -0.36944  -0.36007  -0.34528
 Alpha  occ. eigenvalues --   -0.34072  -0.33783  -0.33610  -0.33418  -0.33241
 Alpha  occ. eigenvalues --   -0.32857  -0.32402  -0.31996  -0.31938  -0.30773
 Alpha  occ. eigenvalues --   -0.30321  -0.28996  -0.26090  -0.25195
 Alpha virt. eigenvalues --    0.03544   0.04372   0.07410   0.07835   0.08132
 Alpha virt. eigenvalues --    0.09190   0.09478   0.10531   0.11121   0.11978
 Alpha virt. eigenvalues --    0.13146   0.13189   0.14220   0.14588   0.14803

 Mulliken charges:
               1
     1  N   -0.308202
     2  C    0.180332
     3  C    0.055652
     4  N   -0.241482
     5  C    0.128534
     6  H    0.023649
     7  N   -0.296108
     8  C    0.134489
     9  H    0.010764
    10  N   -0.290388
    11  C    0.235040
    12  C    0.090995
    13  N   -0.042686
    14  H    0.115710
    15  H    0.086106
    16  H    0.026762
    17  H    0.033693
    18  H    0.017218
    19  N   -0.308578
    20  C    0.260749
    21  C    0.182159
    22  N   -0.124240
    23  H    0.117537
    24  H    0.119234
    25  N   -0.311730
    26  C    0.249299
    27  N   -0.149593
    28  H    0.119543
    29  C    0.197013
    30  O   -0.326044
    31  C   -0.022357
    32  N   -0.214440
    33  C    0.123438
    34  H    0.019036
    35  H    0.025562
    36  H    0.030994
    37  H    0.024172
    38  H    0.051740
    39  H    0.060400
    40  H    0.075041
    41  H    0.021218
    42  C   -0.106035
    43  O   -0.290151
    44  C    0.150306
    45  H    0.130068
    46  N   -0.099348
    47  O   -0.348981
    48  C    0.340174
    49  H    0.044331
    50  C    0.181053
    51  C    0.044087
    52  N   -0.280334
    53  H    0.034002
    54  H    0.042563
    55  H    0.022800
    56  H    0.129210
    57  H    0.114059
    58  N   -0.034808
    59  C    0.073278
    60  C    0.238369
    61  N   -0.270310
    62  H    0.031897
    63  C    0.162933
    64  N   -0.299564
    65  H    0.034514
    66  C    0.121848
    67  N   -0.257488
    68  C    0.038768
    69  C    0.181240
    70  N   -0.308712
 Sum of Mulliken charges =  -0.00000

 Dipole moment (field-independent basis, Debye):
    X=              5.8752    Y=              5.4799    Z=              5.3460  Tot=              9.6502
 Quadrupole moment (field-independent basis, Debye-Ang):
   XX=           -147.0510   YY=           -228.5335   ZZ=           -252.9657
   XY=              6.7705   XZ=              5.9748   YZ=             10.2239

 Normal termination of Gaussian 16 at Fri Jan 19 23:25:35 2018.
