 Gaussian 16, Revision A.03,
 Gaussian 16:  EM64L-G16RevA.03 25-Dec-2016

 ---------------------------------------
 #p wb97xd/cc-pvdz sp scf=(maxcycles=20)
 ---------------------------------------

 ------------------
 Base pair stacking
 ------------------
 Symbolic Z-matrix:
 Charge =  0 Multiplicity = 1

                         Standard orientation:
 ---------------------------------------------------------------------
 Center     Atomic      Atomic             Coordinates (Angstroms)
 Number     Number       Type             X           Y           Z
 ---------------------------------------------------------------------
      1          7           0        5.159330   -1.861258   -0.972017
      2          6           0        6.471800   -1.484798   -1.532134
      3          6           0        2.999400   -2.017928   -0.587997
      4          7           0        3.618250   -2.856191    0.328016
      5          6           0        4.894749   -2.728252    0.059988
      6          1           0        5.694398   -3.247767    0.588779
      7          7           0        1.370976   -0.831447   -1.814161
      8          6           0        2.385636   -0.311817   -2.512751
      9          1           0        2.099974    0.386950   -3.297851
     10          7           0        3.694048   -0.524759   -2.387723
     11          6           0        3.936446   -1.397836   -1.396058
     12          6           0        1.647789   -1.706788   -0.823078
     13          7           0        0.636290   -2.226566   -0.124609
     14          1           0        0.794585   -2.878397    0.617875
     15          1           0       -0.313689   -1.982287   -0.319570
     16          1           0        6.933430   -2.300662   -1.880608
     17          1           0        6.341913   -0.832274   -2.278090
     18          1           0        7.033137   -1.065445   -0.818666
     19          7           0        4.952052    1.740058    0.578336
     20          6           0        3.588967    1.900177    0.511859
     21          6           0        5.945493    2.582429   -0.117504
     22          7           0        0.816432    3.607875   -0.695842
     23          1           0       -0.178101    3.553180   -0.611225
     24          1           0        1.183075    4.335589   -1.276116
     25          7           0        2.933413    2.846336   -0.194602
     26          6           0        1.622996    2.744627   -0.060118
     27          7           0        1.000226    1.790091    0.707040
     28          1           0       -0.007238    1.787811    0.751532
     29          6           0        1.654733    0.806828    1.442349
     30          8           0        0.998147   -0.007939    2.102481
     31          6           0        3.063094    0.903292    1.307774
     32          7           0        4.075652    0.132833    1.862764
     33          6           0        5.175684    0.664835    1.403270
     34          1           0        6.180735    0.310867    1.635348
     35          1           0        6.490786    2.016542   -0.734935
     36          1           0        5.471559    3.286926   -0.644130
     37          1           0        6.545426    3.016534    0.553651
     38          1           0       -5.040745    1.915443    0.044274
     39          1           0       -5.027239    2.762644    1.589182
     40          1           0       -3.665752    2.930624    0.480343
     41          1           0       -4.482033   -1.781745    3.071688
     42          6           0       -3.889024   -0.981978    2.627916
     43          8           0       -1.804886   -1.982913    3.158583
     44          6           0       -2.460962   -1.067464    2.662302
     45          1           0       -0.797276   -0.028642    2.078079
     46          7           0       -1.807274   -0.003942    2.073365
     47          8           0       -1.715670    1.985297    0.981692
     48          6           0       -2.379576    1.091904    1.477430
     49          1           0       -5.558374    0.187041    2.001445
     50          6           0       -4.476274    0.074449    2.053722
     51          6           0       -4.416909    2.253161    0.858423
     52          7           0       -3.760540    1.101860    1.484052
     53          1           0       -5.935274    1.350119   -3.945296
     54          1           0       -4.584281    2.035079   -3.338883
     55          1           0       -6.035007    2.353548   -2.662091
     56          1           0       -2.736539   -3.237996    0.931478
     57          1           0       -4.427250   -3.141914    0.725620
     58          7           0       -3.519641   -2.779003    0.511686
     59          6           0       -3.361744   -1.729567   -0.297574
     60          6           0       -4.107125    0.021490   -1.725842
     61          7           0       -2.876345    0.487288   -1.995342
     62          1           0       -0.924201    0.077893   -1.524029
     63          6           0       -1.954830   -0.233677   -1.359784
     64          7           0       -2.110974   -1.285117   -0.548817
     65          1           0       -7.333838   -0.134206   -1.853312
     66          6           0       -6.275508   -0.294878   -1.645763
     67          7           0       -5.803339   -1.239626   -0.869757
     68          6           0       -4.429610   -1.050335   -0.911775
     69          6           0       -5.478646    1.652682   -3.108659
     70          7           0       -5.304612    0.505233   -2.197032
 ---------------------------------------------------------------------

 SCF Done:  E(RwB97XD) =  -2048.74846615     A.U. after   15 cycles

 The electronic state is 1-A.
 Alpha  occ. eigenvalues --  -19.25489 -19.22045 -19.20717 -14.52474 -14.51984
 Alpha  occ. eigenvalues --  -14.49066 -14.48677 -14.47680 -14.47525 -14.46936
 Alpha  occ. eigenvalues --  -14.46743 -14.45400 -14.44322 -14.44287 -14.42311
 Alpha  occ. eigenvalues --  -14.42089 -14.41190 -14.41052 -14.41047 -14.40480
 Alpha  occ. eigenvalues --  -10.45063 -10.41317 -10.40037 -10.39717 -10.38352
 Alpha  occ. eigenvalues --  -10.37949 -10.37152 -10.37047 -10.35770 -10.35514
 Alpha  occ. eigenvalues --  -10.34927 -10.34552 -10.33950 -10.33840 -10.33689
 Alpha  occ. eigenvalues --  -10.33350 -10.33218 -10.32612 -10.31252 -10.31212
 Alpha  occ. eigenvalues --  -10.30749 -10.28474 -10.28319  -1.19074  -1.15211
 Alpha  occ. eigenvalues --   -1.13314  -1.13020  -1.11219  -1.10806  -1.09241
 Alpha  occ. eigenvalues --   -1.08902  -1.08650  -1.05145  -1.04683  -1.02238
 Alpha  occ. eigenvalues --   -1.00922  -1.00484  -0.99824  -0.98664  -0.96948
 Alpha  occ. eigenvalues --   -0.96818  -0.96690  -0.92818  -0.90640  -0.87594
 Alpha  occ. eigenvalues --   -0.85887  -0.84348  -0.83943  -0.83341  -0.82755
 Alpha  occ. eigenvalues --   -0.82379  -0.78479  -0.76950  -0.74816  -0.74774
 Alpha  occ. eigenvalues --   -0.73730  -0.73067  -0.72914  -0.71088  -0.70285
 Alpha  occ. eigenvalues --   -0.67523  -0.66722  -0.66330  -0.66164  -0.64467
 Alpha  occ. eigenvalues --   -0.64100  -0.63724  -0.62748  -0.62710  -0.61912
 Alpha  occ. eigenvalues --   -0.60878  -0.60486  -0.60303  -0.59420  -0.59078
 Alpha  occ. eigenvalues --   -0.58800  -0.58470  -0.57293  -0.56618  -0.56152
 Alpha  occ. eigenvalues --   -0.55824  -0.55553  -0.55199  -0.54329  -0.54150
 Alpha  occ. eigenvalues --   -0.53776  -0.53675  -0.53560  -0.53280  -0.53088
 Alpha  occ. eigenvalues --   -0.52746  -0.52145  -0.51851  -0.50792  -0.50362
 Alpha  occ. eigenvalues --   -0.50329  -0.49916  -0.49447  -0.49066  -0.48981
 Alpha  occ. eigenvalues --   -0.48897  -0.48519  -0.48101  -0.47880  -0.47373
 Alpha  occ. eigenvalues --   -0.46995  -0.46077  -0.45143  -0.44791  -0.42931
 Alpha  occ. eigenvalues --   -0.41100  -0.40665  -0.39159  -0.38000  -0.37468
 Alpha  occ. eigenvalues --   -0.37378  -0.37299  -0.37088  -0.36079  -0.34490
 Alpha  occ. eigenvalues --   -0.34387  -0.33970  -0.33520  -0.33385  -0.33263
 Alpha  occ. eigenvalues --   -0.32826  -0.32451  -0.31921  -0.31724  -0.30931
 Alpha  occ. eigenvalues --   -0.30509  -0.29643  -0.26262  -0.25159
 Alpha virt. eigenvalues --    0.03503   0.04018   0.07250   0.07765   0.08559
 Alpha virt. eigenvalues --    0.09037   0.09619   0.10460   0.10995   0.12115
 Alpha virt. eigenvalues --    0.13112   0.13196   0.14295   0.14453   0.14858

 Mulliken charges:
               1
     1  N   -0.304414
     2  C    0.179601
     3  C    0.058244
     4  N   -0.245367
     5  C    0.138139
     6  H    0.024382
     7  N   -0.293300
     8  C    0.133196
     9  H    0.010272
    10  N   -0.286233
    11  C    0.233060
    12  C    0.083736
    13  N   -0.044902
    14  H    0.115602
    15  H    0.084648
    16  H    0.027189
    17  H    0.034204
    18  H    0.014825
    19  N   -0.306816
    20  C    0.260430
    21  C    0.183170
    22  N   -0.124773
    23  H    0.118561
    24  H    0.118791
    25  N   -0.310518
    26  C    0.248971
    27  N   -0.144243
    28  H    0.119331
    29  C    0.186930
    30  O   -0.322598
    31  C   -0.016425
    32  N   -0.215377
    33  C    0.114202
    34  H    0.020302
    35  H    0.021873
    36  H    0.032136
    37  H    0.024458
    38  H    0.048894
    39  H    0.058786
    40  H    0.075746
    41  H    0.018329
    42  C   -0.100450
    43  O   -0.275410
    44  C    0.161486
    45  H    0.128601
    46  N   -0.106184
    47  O   -0.349406
    48  C    0.336310
    49  H    0.044552
    50  C    0.168374
    51  C    0.045613
    52  N   -0.277658
    53  H    0.035283
    54  H    0.042345
    55  H    0.024687
    56  H    0.126793
    57  H    0.115567
    58  N   -0.047429
    59  C    0.079118
    60  C    0.220811
    61  N   -0.263853
    62  H    0.029767
    63  C    0.161052
    64  N   -0.300408
    65  H    0.036011
    66  C    0.125208
    67  N   -0.255053
    68  C    0.045365
    69  C    0.179803
    70  N   -0.303942
 Sum of Mulliken charges =  -0.00000

 Dipole moment (field-independent basis, Debye):
    X=             -5.8070    Y=              6.1584    Z=             -4.5656  Tot=              9.6173
 Quadrupole moment (field-independent basis, Debye-Ang):
   XX=           -147.9855   YY=           -224.4934   ZZ=           -258.5813
   XY=             -8.5317   XZ=             -0.2011   YZ=             -3.5097

 Normal termination of Gaussian 16 at Fri Jan 19 15:20:00 2018.
