 Gaussian 16, Revision A.03,
 Gaussian 16:  EM64L-G16RevA.03 25-Dec-2016

 ---------------------------------------
 #p wb97xd/cc-pvdz sp scf=(maxcycles=20)
 ---------------------------------------

 ------------------
 Base pair stacking
 ------------------
 Symbolic Z-matrix:
 Charge =  0 Multiplicity = 1

                         Standard orientation:
 ---------------------------------------------------------------------
 Center     Atomic      Atomic             Coordinates (Angstroms)
 Number     Number       Type             X           Y           Z
 ---------------------------------------------------------------------
      1          7           0       -6.599758   -1.020660    0.465920
      2          6           0       -7.901781   -0.336926    0.589499
      3          6           0       -4.453498   -1.494713    0.544362
      4          7           0       -5.075143   -2.601287   -0.015802
      5          6           0       -6.343299   -2.271394   -0.040638
      6          1           0       -7.142277   -2.908329   -0.421303
      7          7           0       -2.825470   -0.016841    1.397796
      8          6           0       -3.830317    0.833320    1.632501
      9          1           0       -3.540984    1.782770    2.080929
     10          7           0       -5.132775    0.687415    1.397555
     11          6           0       -5.380418   -0.512340    0.846484
     12          6           0       -3.107332   -1.215746    0.842579
     13          7           0       -2.105625   -2.065750    0.607521
     14          1           0       -2.267965   -2.964135    0.197917
     15          1           0       -1.159281   -1.833656    0.832699
     16          1           0       -8.509810   -0.877509    1.171090
     17          1           0       -7.767688    0.565788    0.997236
     18          1           0       -8.313828   -0.234016   -0.315832
     19          7           0       -3.423877    1.755085   -1.404214
     20          6           0       -2.070383    1.822001   -1.177008
     21          6           0       -4.405441    2.791082   -1.024794
     22          7           0        0.689709    3.521227    0.070499
     23          1           0        1.676371    3.376041    0.138798
     24          1           0        0.329574    4.375026    0.447398
     25          7           0       -1.415002    2.837222   -0.573820
     26          6           0       -0.115118    2.612408   -0.500667
     27          7           0        0.498037    1.480615   -0.980874
     28          1           0        1.497796    1.393632   -0.881490
     29          6           0       -0.156496    0.423322   -1.605041
     30          8           0        0.490924   -0.553235   -2.002443
     31          6           0       -1.553615    0.650420   -1.690961
     32          7           0       -2.562382   -0.136190   -2.229973
     33          6           0       -3.651301    0.557684   -2.037588
     34          1           0       -4.650478    0.241532   -2.339165
     35          1           0       -5.077518    2.401507   -0.396016
     36          1           0       -3.931533    3.548195   -0.577083
     37          1           0       -4.870531    3.127533   -1.842900
     38          1           0        6.391740    1.279121    0.492890
     39          1           0        6.655609    1.801934   -1.168948
     40          1           0        5.191290    2.288448   -0.314287
     41          1           0        5.840969   -2.891834   -1.840846
     42          6           0        5.281586   -1.977608   -1.642048
     43          8           0        3.188700   -2.903863   -2.265749
     44          6           0        3.867543   -1.960327   -1.861136
     45          1           0        2.258089   -0.703958   -1.721426
     46          7           0        3.256991   -0.755000   -1.578882
     47          8           0        3.232733    1.412252   -0.900922
     48          6           0        3.859043    0.390890   -1.122795
     49          1           0        6.970180   -0.836854   -1.015049
     50          6           0        5.897101   -0.875676   -1.197652
     51          6           0        5.911008    1.494853   -0.449674
     52          7           0        5.224043    0.295208   -0.936156
     53          1           0        4.423250    2.317587    3.563159
     54          1           0        3.259522    2.765398    2.510881
     55          1           0        4.808154    2.641021    2.010529
     56          1           0        1.190497   -3.693023    0.649844
     57          1           0        2.843398   -3.645071    1.069028
     58          7           0        1.977150   -3.157047    0.956522
     59          6           0        1.876562   -1.849579    1.204685
     60          6           0        2.692100    0.289553    1.853330
     61          7           0        1.516057    0.918717    1.693605
     62          1           0       -0.407594    0.493390    1.128583
     63          6           0        0.581190    0.063826    1.283634
     64          7           0        0.679958   -1.246044    1.034515
     65          1           0        5.829428   -0.039215    2.561304
     66          6           0        4.789660   -0.193837    2.271618
     67          7           0        4.281414   -1.345015    1.905374
     68          6           0        2.951980   -1.052582    1.637358
     69          6           0        4.111884    2.253768    2.615015
     70          7           0        3.883932    0.838781    2.263069
 ---------------------------------------------------------------------

 SCF Done:  E(RwB97XD) =  -2048.74872543     A.U. after   15 cycles

 The electronic state is 1-A.
 Alpha  occ. eigenvalues --  -19.25914 -19.21938 -19.20518 -14.52515 -14.51707
 Alpha  occ. eigenvalues --  -14.49745 -14.48354 -14.47825 -14.46921 -14.46565
 Alpha  occ. eigenvalues --  -14.46303 -14.44614 -14.43244 -14.43201 -14.42957
 Alpha  occ. eigenvalues --  -14.42326 -14.41982 -14.41824 -14.41033 -14.40573
 Alpha  occ. eigenvalues --  -10.45523 -10.40898 -10.40029 -10.38869 -10.38021
 Alpha  occ. eigenvalues --  -10.37612 -10.37228 -10.36290 -10.36284 -10.35889
 Alpha  occ. eigenvalues --  -10.34980 -10.34970 -10.34323 -10.34056 -10.33979
 Alpha  occ. eigenvalues --  -10.33700 -10.33072 -10.31860 -10.31620 -10.30905
 Alpha  occ. eigenvalues --  -10.29809 -10.29474 -10.27844  -1.19528  -1.14375
 Alpha  occ. eigenvalues --   -1.13042  -1.12960  -1.12318  -1.10317  -1.09371
 Alpha  occ. eigenvalues --   -1.08344  -1.08192  -1.05905  -1.03742  -1.02502
 Alpha  occ. eigenvalues --   -1.01344  -1.00159  -0.99444  -0.98315  -0.97866
 Alpha  occ. eigenvalues --   -0.96185  -0.95806  -0.93555  -0.90961  -0.86879
 Alpha  occ. eigenvalues --   -0.85341  -0.84879  -0.84018  -0.83712  -0.83215
 Alpha  occ. eigenvalues --   -0.81877  -0.78839  -0.76174  -0.74339  -0.73939
 Alpha  occ. eigenvalues --   -0.73771  -0.73452  -0.73304  -0.71981  -0.69554
 Alpha  occ. eigenvalues --   -0.67198  -0.67109  -0.66521  -0.65883  -0.64427
 Alpha  occ. eigenvalues --   -0.63675  -0.63473  -0.63329  -0.62507  -0.61457
 Alpha  occ. eigenvalues --   -0.61033  -0.60953  -0.59782  -0.59468  -0.58832
 Alpha  occ. eigenvalues --   -0.58209  -0.58053  -0.57487  -0.57363  -0.56388
 Alpha  occ. eigenvalues --   -0.56131  -0.55921  -0.54891  -0.54707  -0.54335
 Alpha  occ. eigenvalues --   -0.53876  -0.53343  -0.52955  -0.52776  -0.52550
 Alpha  occ. eigenvalues --   -0.52439  -0.52326  -0.51944  -0.51495  -0.51042
 Alpha  occ. eigenvalues --   -0.49935  -0.49860  -0.49411  -0.48979  -0.48741
 Alpha  occ. eigenvalues --   -0.48537  -0.48152  -0.47932  -0.47809  -0.47473
 Alpha  occ. eigenvalues --   -0.47247  -0.45655  -0.45367  -0.44120  -0.43455
 Alpha  occ. eigenvalues --   -0.42008  -0.40016  -0.39480  -0.38146  -0.37180
 Alpha  occ. eigenvalues --   -0.37067  -0.37033  -0.36628  -0.35585  -0.34529
 Alpha  occ. eigenvalues --   -0.34374  -0.33999  -0.33650  -0.33337  -0.33119
 Alpha  occ. eigenvalues --   -0.32537  -0.32043  -0.31828  -0.31778  -0.31654
 Alpha  occ. eigenvalues --   -0.31283  -0.28731  -0.26722  -0.25107
 Alpha virt. eigenvalues --    0.03116   0.04851   0.07014   0.08232   0.08316
 Alpha virt. eigenvalues --    0.09192   0.09917   0.10044   0.10952   0.11670
 Alpha virt. eigenvalues --    0.13064   0.13214   0.14571   0.14755   0.14944

 Mulliken charges:
               1
     1  N   -0.310796
     2  C    0.179586
     3  C    0.055064
     4  N   -0.253729
     5  C    0.129960
     6  H    0.029173
     7  N   -0.274836
     8  C    0.130995
     9  H    0.018264
    10  N   -0.292221
    11  C    0.231393
    12  C    0.098449
    13  N   -0.042744
    14  H    0.109094
    15  H    0.089090
    16  H    0.028795
    17  H    0.035114
    18  H    0.025374
    19  N   -0.294693
    20  C    0.249052
    21  C    0.180488
    22  N   -0.104284
    23  H    0.112052
    24  H    0.114246
    25  N   -0.298532
    26  C    0.219567
    27  N   -0.132941
    28  H    0.123655
    29  C    0.150597
    30  O   -0.323604
    31  C    0.005803
    32  N   -0.224197
    33  C    0.119300
    34  H    0.023015
    35  H    0.019261
    36  H    0.025032
    37  H    0.019400
    38  H    0.041455
    39  H    0.065214
    40  H    0.079078
    41  H    0.029262
    42  C   -0.095415
    43  O   -0.269828
    44  C    0.174937
    45  H    0.134382
    46  N   -0.126640
    47  O   -0.343052
    48  C    0.340397
    49  H    0.044546
    50  C    0.174817
    51  C    0.035571
    52  N   -0.279453
    53  H    0.033471
    54  H    0.035779
    55  H    0.007859
    56  H    0.121283
    57  H    0.119803
    58  N   -0.055868
    59  C    0.119983
    60  C    0.228206
    61  N   -0.280495
    62  H    0.033503
    63  C    0.169756
    64  N   -0.304309
    65  H    0.033426
    66  C    0.111116
    67  N   -0.245741
    68  C    0.009523
    69  C    0.184862
    70  N   -0.296674
 Sum of Mulliken charges =  -0.00000

 Dipole moment (field-independent basis, Debye):
    X=              5.3148    Y=              5.7507    Z=              4.2045  Tot=              8.8879
 Quadrupole moment (field-independent basis, Debye-Ang):
   XX=           -142.1413   YY=           -226.3179   ZZ=           -258.8078
   XY=             14.1988   XZ=             13.8145   YZ=             -5.6213

 Normal termination of Gaussian 16 at Sat Jan 20 04:54:44 2018.
