 Gaussian 16, Revision A.03,
 Gaussian 16:  EM64L-G16RevA.03 25-Dec-2016

 ---------------------------------------
 #p wb97xd/cc-pvdz sp scf=(maxcycles=20)
 ---------------------------------------

 ------------------
 Base pair stacking
 ------------------
 Symbolic Z-matrix:
 Charge =  0 Multiplicity = 1

                         Standard orientation:
 ---------------------------------------------------------------------
 Center     Atomic      Atomic             Coordinates (Angstroms)
 Number     Number       Type             X           Y           Z
 ---------------------------------------------------------------------
      1          7           0       -6.072721   -1.451561    0.564624
      2          6           0       -7.391297   -0.958407    1.007514
      3          6           0       -3.907943   -1.777640    0.353139
      4          7           0       -4.518213   -2.610549   -0.573439
      5          6           0       -5.797990   -2.380762   -0.408944
      6          1           0       -6.592923   -2.865801   -0.976194
      7          7           0       -2.290571   -0.655078    1.651955
      8          6           0       -3.312535   -0.034054    2.249866
      9          1           0       -3.034333    0.677487    3.026118
     10          7           0       -4.620405   -0.159433    2.033870
     11          6           0       -4.853316   -1.057049    1.062041
     12          6           0       -2.557911   -1.552497    0.678168
     13          7           0       -1.539102   -2.173443    0.080142
     14          1           0       -1.690276   -2.845296   -0.645795
     15          1           0       -0.590530   -1.988354    0.337205
     16          1           0       -7.936214   -1.723049    1.351846
     17          1           0       -7.268585   -0.283686    1.734717
     18          1           0       -7.866347   -0.533057    0.237190
     19          7           0       -4.002319    2.063214   -0.937280
     20          6           0       -2.639675    2.129449   -0.773358
     21          6           0       -4.979136    3.004218   -0.353314
     22          7           0        0.155444    3.689707    0.573724
     23          1           0        1.146742    3.561104    0.567524
     24          1           0       -0.197985    4.466947    1.094974
     25          7           0       -1.969561    3.057813   -0.057031
     26          6           0       -0.663917    2.857806   -0.086935
     27          7           0       -0.058809    1.828010   -0.765819
     28          1           0        0.946280    1.752534   -0.733136
     29          6           0       -0.728505    0.861277   -1.509321
     30          8           0       -0.087284   -0.026806   -2.084533
     31          6           0       -2.131960    1.062999   -1.486599
     32          7           0       -3.155260    0.341760   -2.086233
     33          6           0       -4.243702    0.970357   -1.733540
     34          1           0       -5.252436    0.678189   -2.027439
     35          1           0       -5.608509    2.506713    0.242663
     36          1           0       -4.494340    3.696511    0.179571
     37          1           0       -5.494583    3.448901   -1.085004
     38          1           0        5.910085    1.555938    0.350683
     39          1           0        6.072406    2.331396   -1.223152
     40          1           0        4.649470    2.645033   -0.229040
     41          1           0        5.303181   -2.225360   -2.561366
     42          6           0        4.739938   -1.366476   -2.196271
     43          8           0        2.632070   -2.240555   -2.844336
     44          6           0        3.315829   -1.352297   -2.336154
     45          1           0        1.695077   -0.173218   -1.922340
     46          7           0        2.701078   -0.219752   -1.841526
     47          8           0        2.676890    1.818215   -0.839869
     48          6           0        3.307539    0.858680   -1.247608
     49          1           0        6.440661   -0.291274   -1.491086
     50          6           0        5.359948   -0.329361   -1.621307
     51          6           0        5.374223    1.899814   -0.521478
     52          7           0        4.682227    0.770707   -1.149181
     53          1           0        4.981013    1.098666    4.246337
     54          1           0        3.732353    1.849323    3.511847
     55          1           0        5.248317    2.033624    2.935673
     56          1           0        1.818107   -3.467296   -0.674385
     57          1           0        3.491654   -3.481746   -0.344040
     58          7           0        2.600103   -3.046328   -0.214596
     59          6           0        2.461267   -1.952904    0.537960
     60          6           0        3.227267   -0.196242    1.948302
     61          7           0        2.017818    0.367050    2.104353
     62          1           0        0.080563    0.075779    1.502013
     63          6           0        1.094634   -0.314944    1.429433
     64          7           0        1.231691   -1.410304    0.675139
     65          1           0        6.415646   -0.573659    2.327808
     66          6           0        5.366399   -0.668344    2.046615
     67          7           0        4.883879   -1.611415    1.274947
     68          6           0        3.528503   -1.323819    1.204424
     69          6           0        4.610498    1.394689    3.365946
     70          7           0        4.419458    0.222438    2.489957
 ---------------------------------------------------------------------

 SCF Done:  E(RwB97XD) =  -2048.75052814     A.U. after   15 cycles

 The electronic state is 1-A.
 Alpha  occ. eigenvalues --  -19.25833 -19.21840 -19.20697 -14.52445 -14.51928
 Alpha  occ. eigenvalues --  -14.49148 -14.48719 -14.47775 -14.46963 -14.46692
 Alpha  occ. eigenvalues --  -14.46661 -14.44874 -14.43480 -14.43318 -14.42391
 Alpha  occ. eigenvalues --  -14.41999 -14.41637 -14.41272 -14.40809 -14.40492
 Alpha  occ. eigenvalues --  -10.45455 -10.41233 -10.40068 -10.38932 -10.38279
 Alpha  occ. eigenvalues --  -10.37617 -10.37415 -10.36522 -10.35664 -10.35534
 Alpha  occ. eigenvalues --  -10.35063 -10.34351 -10.34308 -10.33664 -10.33651
 Alpha  occ. eigenvalues --  -10.33366 -10.33296 -10.31877 -10.31500 -10.30758
 Alpha  occ. eigenvalues --  -10.30684 -10.28779 -10.28076  -1.19418  -1.14599
 Alpha  occ. eigenvalues --   -1.13225  -1.13047  -1.11676  -1.10563  -1.09288
 Alpha  occ. eigenvalues --   -1.08585  -1.08301  -1.05289  -1.03819  -1.02493
 Alpha  occ. eigenvalues --   -1.00681  -1.00318  -0.99745  -0.98534  -0.97261
 Alpha  occ. eigenvalues --   -0.96521  -0.95900  -0.92934  -0.90870  -0.86997
 Alpha  occ. eigenvalues --   -0.85400  -0.84290  -0.84049  -0.83783  -0.82678
 Alpha  occ. eigenvalues --   -0.82391  -0.78771  -0.76254  -0.74609  -0.74035
 Alpha  occ. eigenvalues --   -0.73635  -0.73319  -0.73180  -0.71334  -0.69597
 Alpha  occ. eigenvalues --   -0.67374  -0.66579  -0.66478  -0.65938  -0.64424
 Alpha  occ. eigenvalues --   -0.63745  -0.63424  -0.62951  -0.62644  -0.61741
 Alpha  occ. eigenvalues --   -0.60794  -0.60512  -0.59730  -0.59380  -0.58778
 Alpha  occ. eigenvalues --   -0.58464  -0.58363  -0.57084  -0.56826  -0.56343
 Alpha  occ. eigenvalues --   -0.55937  -0.55641  -0.54866  -0.54730  -0.54322
 Alpha  occ. eigenvalues --   -0.53649  -0.53534  -0.52962  -0.52906  -0.52608
 Alpha  occ. eigenvalues --   -0.52527  -0.52147  -0.52121  -0.51155  -0.50530
 Alpha  occ. eigenvalues --   -0.50144  -0.49592  -0.49496  -0.49343  -0.48944
 Alpha  occ. eigenvalues --   -0.48796  -0.48353  -0.47841  -0.47501  -0.47418
 Alpha  occ. eigenvalues --   -0.47237  -0.45717  -0.45219  -0.43856  -0.43372
 Alpha  occ. eigenvalues --   -0.41447  -0.40019  -0.39412  -0.37428  -0.37267
 Alpha  occ. eigenvalues --   -0.37236  -0.37211  -0.36795  -0.35936  -0.34241
 Alpha  occ. eigenvalues --   -0.34147  -0.33773  -0.33640  -0.33447  -0.33197
 Alpha  occ. eigenvalues --   -0.32651  -0.32325  -0.31890  -0.31727  -0.31213
 Alpha  occ. eigenvalues --   -0.30696  -0.28828  -0.25987  -0.25430
 Alpha virt. eigenvalues --    0.03198   0.04712   0.07622   0.07844   0.08288
 Alpha virt. eigenvalues --    0.08923   0.09774   0.10677   0.10881   0.11971
 Alpha virt. eigenvalues --    0.13355   0.13643   0.14083   0.14532   0.14995

 Mulliken charges:
               1
     1  N   -0.309392
     2  C    0.179453
     3  C    0.056459
     4  N   -0.247527
     5  C    0.124649
     6  H    0.026412
     7  N   -0.289521
     8  C    0.135410
     9  H    0.013484
    10  N   -0.291710
    11  C    0.230153
    12  C    0.095021
    13  N   -0.042129
    14  H    0.112350
    15  H    0.091330
    16  H    0.027972
    17  H    0.034629
    18  H    0.021266
    19  N   -0.304055
    20  C    0.256797
    21  C    0.182706
    22  N   -0.120643
    23  H    0.115859
    24  H    0.117969
    25  N   -0.308687
    26  C    0.241323
    27  N   -0.146787
    28  H    0.122737
    29  C    0.183360
    30  O   -0.326025
    31  C   -0.019272
    32  N   -0.219173
    33  C    0.128858
    34  H    0.020698
    35  H    0.025787
    36  H    0.029081
    37  H    0.021605
    38  H    0.045772
    39  H    0.062371
    40  H    0.075251
    41  H    0.024055
    42  C   -0.095547
    43  O   -0.279589
    44  C    0.152417
    45  H    0.135653
    46  N   -0.117158
    47  O   -0.344108
    48  C    0.342888
    49  H    0.043363
    50  C    0.183845
    51  C    0.042718
    52  N   -0.278850
    53  H    0.033851
    54  H    0.040985
    55  H    0.017850
    56  H    0.126326
    57  H    0.116194
    58  N   -0.036458
    59  C    0.093134
    60  C    0.239762
    61  N   -0.271368
    62  H    0.034129
    63  C    0.155988
    64  N   -0.302263
    65  H    0.032404
    66  C    0.112139
    67  N   -0.249426
    68  C    0.015488
    69  C    0.182622
    70  N   -0.304885
 Sum of Mulliken charges =  -0.00000

 Dipole moment (field-independent basis, Debye):
    X=              5.8303    Y=              5.7507    Z=              4.4370  Tot=              9.3139
 Quadrupole moment (field-independent basis, Debye-Ang):
   XX=           -144.8203   YY=           -224.8649   ZZ=           -257.7719
   XY=              8.7836   XZ=             10.7389   YZ=              2.8838

 Normal termination of Gaussian 16 at Fri Jan 19 14:18:53 2018.
