 Gaussian 16, Revision A.03,
 Gaussian 16:  EM64L-G16RevA.03 25-Dec-2016

 ---------------------------------------
 #p wb97xd/cc-pvdz sp scf=(maxcycles=20)
 ---------------------------------------

 ------------------
 Base pair stacking
 ------------------
 Symbolic Z-matrix:
 Charge =  0 Multiplicity = 1

                         Standard orientation:
 ---------------------------------------------------------------------
 Center     Atomic      Atomic             Coordinates (Angstroms)
 Number     Number       Type             X           Y           Z
 ---------------------------------------------------------------------
      1          7           0        6.039140   -1.145801   -0.817927
      2          6           0        7.350818   -0.481739   -0.946543
      3          6           0        3.880874   -1.568541   -0.839492
      4          7           0        4.498554   -2.725985   -0.388353
      5          6           0        5.774109   -2.424972   -0.393421
      6          1           0        6.572702   -3.104552   -0.094461
      7          7           0        2.254711    0.001439   -1.513054
      8          6           0        3.268928    0.845760   -1.727646
      9          1           0        2.984040    1.831464   -2.093002
     10          7           0        4.576091    0.656170   -1.559486
     11          6           0        4.817622   -0.585822   -1.108322
     12          6           0        2.530612   -1.240705   -1.059145
     13          7           0        1.519540   -2.084961   -0.844319
     14          1           0        1.677208   -3.014263   -0.508535
     15          1           0        0.570531   -1.817469   -1.011598
     16          1           0        7.921642   -0.990325   -1.591266
     17          1           0        7.221541    0.451165   -1.281358
     18          1           0        7.801816   -0.454409   -0.054437
     19          7           0        4.050537    1.562808    1.279566
     20          6           0        2.691099    1.671493    1.111729
     21          6           0        5.047074    2.561654    0.843765
     22          7           0       -0.065734    3.446060   -0.033927
     23          1           0       -1.058627    3.332559   -0.056567
     24          1           0        0.304557    4.283239   -0.437337
     25          7           0        2.042507    2.700754    0.525203
     26          6           0        0.734070    2.517892    0.512625
     27          7           0        0.106800    1.412356    1.034001
     28          1           0       -0.898683    1.357090    0.980156
     29          6           0        0.754137    0.341331    1.642068
     30          8           0        0.093953   -0.608875    2.080259
     31          6           0        2.160293    0.523422    1.663064
     32          7           0        3.166239   -0.289667    2.166898
     33          6           0        4.267290    0.365882    1.917551
     34          1           0        5.268238    0.020564    2.178589
     35          1           0        5.677440    2.143116    0.190872
     36          1           0        4.578300    3.328766    0.407820
     37          1           0        5.558887    2.891950    1.636076
     38          1           0       -5.850328    1.387581   -0.174418
     39          1           0       -6.022614    1.937641    1.490633
     40          1           0       -4.583040    2.366097    0.565750
     41          1           0       -5.330644   -2.772378    2.185930
     42          6           0       -4.751505   -1.879322    1.950827
     43          8           0       -2.663804   -2.866577    2.493000
     44          6           0       -3.329252   -1.905950    2.106798
     45          1           0       -1.687955   -0.704728    1.879799
     46          7           0       -2.693356   -0.724597    1.782324
     47          8           0       -2.629516    1.432839    1.076208
     48          6           0       -3.277911    0.435171    1.338702
     49          1           0       -6.428757   -0.690981    1.384695
     50          6           0       -5.350391   -0.762907    1.520043
     51          6           0       -5.321231    1.598131    0.743069
     52          7           0       -4.652262    0.382215    1.213987
     53          1           0       -5.019231    2.637867   -3.192760
     54          1           0       -3.803237    2.982779   -2.161010
     55          1           0       -5.332646    2.853693   -1.605747
     56          1           0       -1.813084   -3.636539   -0.865101
     57          1           0       -3.480139   -3.523807   -1.209098
     58          7           0       -2.598728   -3.063323   -1.098211
     59          6           0       -2.477500   -1.743466   -1.254490
     60          6           0       -3.268081    0.454022   -1.710316
     61          7           0       -2.071966    1.045368   -1.555263
     62          1           0       -0.137425    0.540038   -1.104942
     63          6           0       -1.141585    0.143515   -1.248748
     64          7           0       -1.261009   -1.178868   -1.091773
     65          1           0       -6.438604    0.242979   -2.306485
     66          6           0       -5.391812    0.046051   -2.073258
     67          7           0       -4.896372   -1.139226   -1.813790
     68          6           0       -3.550565   -0.894764   -1.581873
     69          6           0       -4.670986    2.497859   -2.265873
     70          7           0       -4.462350    1.056374   -2.027963
 ---------------------------------------------------------------------

 SCF Done:  E(RwB97XD) =  -2048.74280194     A.U. after   15 cycles

 The electronic state is 1-A.
 Alpha  occ. eigenvalues --  -19.25446 -19.21661 -19.20501 -14.52351 -14.52217
 Alpha  occ. eigenvalues --  -14.49548 -14.48335 -14.47616 -14.47498 -14.46686
 Alpha  occ. eigenvalues --  -14.46351 -14.45404 -14.43989 -14.43905 -14.42968
 Alpha  occ. eigenvalues --  -14.42031 -14.41772 -14.41586 -14.40797 -14.40554
 Alpha  occ. eigenvalues --  -10.45100 -10.40998 -10.39780 -10.39561 -10.38049
 Alpha  occ. eigenvalues --  -10.37904 -10.37419 -10.37004 -10.36105 -10.35372
 Alpha  occ. eigenvalues --  -10.35315 -10.34711 -10.34147 -10.34029 -10.33966
 Alpha  occ. eigenvalues --  -10.33608 -10.33043 -10.32425 -10.31896 -10.30638
 Alpha  occ. eigenvalues --  -10.29999 -10.29158 -10.27773  -1.19192  -1.15143
 Alpha  occ. eigenvalues --   -1.13026  -1.12686  -1.12062  -1.10294  -1.09141
 Alpha  occ. eigenvalues --   -1.08831  -1.08349  -1.05691  -1.04424  -1.02210
 Alpha  occ. eigenvalues --   -1.01160  -1.00894  -0.99468  -0.98324  -0.97681
 Alpha  occ. eigenvalues --   -0.96481  -0.96198  -0.93356  -0.90706  -0.87586
 Alpha  occ. eigenvalues --   -0.85972  -0.84676  -0.83759  -0.83655  -0.83070
 Alpha  occ. eigenvalues --   -0.81936  -0.78560  -0.76866  -0.74698  -0.74297
 Alpha  occ. eigenvalues --   -0.73594  -0.73391  -0.73082  -0.71713  -0.70226
 Alpha  occ. eigenvalues --   -0.67121  -0.67007  -0.66543  -0.66260  -0.64300
 Alpha  occ. eigenvalues --   -0.64070  -0.63509  -0.63388  -0.62487  -0.61813
 Alpha  occ. eigenvalues --   -0.61489  -0.60954  -0.60371  -0.59393  -0.59241
 Alpha  occ. eigenvalues --   -0.58122  -0.57917  -0.57628  -0.57251  -0.56330
 Alpha  occ. eigenvalues --   -0.56032  -0.55730  -0.55238  -0.54733  -0.54132
 Alpha  occ. eigenvalues --   -0.53938  -0.53287  -0.53260  -0.52821  -0.52659
 Alpha  occ. eigenvalues --   -0.52575  -0.52400  -0.52303  -0.51347  -0.50873
 Alpha  occ. eigenvalues --   -0.49910  -0.49778  -0.49312  -0.49195  -0.48798
 Alpha  occ. eigenvalues --   -0.48494  -0.48407  -0.48045  -0.47632  -0.47170
 Alpha  occ. eigenvalues --   -0.47051  -0.45619  -0.45464  -0.44533  -0.43115
 Alpha  occ. eigenvalues --   -0.41777  -0.40560  -0.39199  -0.37851  -0.37559
 Alpha  occ. eigenvalues --   -0.37372  -0.37140  -0.36981  -0.35943  -0.34551
 Alpha  occ. eigenvalues --   -0.34211  -0.34078  -0.33941  -0.33545  -0.32901
 Alpha  occ. eigenvalues --   -0.32440  -0.32209  -0.31715  -0.31629  -0.31248
 Alpha  occ. eigenvalues --   -0.31111  -0.29381  -0.26354  -0.25164
 Alpha virt. eigenvalues --    0.03367   0.04262   0.07090   0.07272   0.08322
 Alpha virt. eigenvalues --    0.08793   0.09987   0.10503   0.10916   0.12253
 Alpha virt. eigenvalues --    0.13229   0.13594   0.14055   0.14283   0.14737

 Mulliken charges:
               1
     1  N   -0.308909
     2  C    0.175373
     3  C    0.069661
     4  N   -0.251725
     5  C    0.128422
     6  H    0.028088
     7  N   -0.281946
     8  C    0.137970
     9  H    0.013554
    10  N   -0.287525
    11  C    0.223427
    12  C    0.091637
    13  N   -0.045522
    14  H    0.110242
    15  H    0.088571
    16  H    0.029574
    17  H    0.039614
    18  H    0.022943
    19  N   -0.284220
    20  C    0.226753
    21  C    0.187827
    22  N   -0.108085
    23  H    0.114436
    24  H    0.115427
    25  N   -0.296144
    26  C    0.217711
    27  N   -0.142758
    28  H    0.127425
    29  C    0.171414
    30  O   -0.323846
    31  C   -0.003767
    32  N   -0.217649
    33  C    0.121522
    34  H    0.016740
    35  H    0.014858
    36  H    0.027081
    37  H    0.018360
    38  H    0.034402
    39  H    0.060732
    40  H    0.074024
    41  H    0.026616
    42  C   -0.105139
    43  O   -0.268251
    44  C    0.167881
    45  H    0.132952
    46  N   -0.121096
    47  O   -0.334347
    48  C    0.332019
    49  H    0.042884
    50  C    0.175944
    51  C    0.048124
    52  N   -0.275594
    53  H    0.036402
    54  H    0.039841
    55  H    0.015689
    56  H    0.123645
    57  H    0.119646
    58  N   -0.056642
    59  C    0.110360
    60  C    0.213528
    61  N   -0.258792
    62  H    0.044223
    63  C    0.139458
    64  N   -0.301171
    65  H    0.038477
    66  C    0.106501
    67  N   -0.243438
    68  C    0.032773
    69  C    0.177896
    70  N   -0.296084
 Sum of Mulliken charges =  -0.00000

 Dipole moment (field-independent basis, Debye):
    X=             -5.4589    Y=              6.0548    Z=             -4.4987  Tot=              9.3113
 Quadrupole moment (field-independent basis, Debye-Ang):
   XX=           -145.7446   YY=           -226.0080   ZZ=           -261.0792
   XY=            -12.2336   XZ=              7.0947   YZ=              7.8776

 Normal termination of Gaussian 16 at Fri Jan 19 13:54:08 2018.
