 Gaussian 16, Revision A.03,
 Gaussian 16:  EM64L-G16RevA.03 25-Dec-2016

 ---------------------------------------
 #p wb97xd/cc-pvdz sp scf=(maxcycles=20)
 ---------------------------------------

 ------------------
 Base pair stacking
 ------------------
 Symbolic Z-matrix:
 Charge =  0 Multiplicity = 1

                         Standard orientation:
 ---------------------------------------------------------------------
 Center     Atomic      Atomic             Coordinates (Angstroms)
 Number     Number       Type             X           Y           Z
 ---------------------------------------------------------------------
      1          7           0       -5.704909    0.982051   -0.990153
      2          6           0       -6.976696    0.273704   -1.232671
      3          6           0       -3.570099    1.497865   -0.872638
      4          7           0       -4.261555    2.590102   -0.369005
      5          6           0       -5.520034    2.235613   -0.459961
      6          1           0       -6.362565    2.855542   -0.152108
      7          7           0       -1.842716    0.054991   -1.577750
      8          6           0       -2.805264   -0.813586   -1.904318
      9          1           0       -2.457899   -1.755585   -2.326502
     10          7           0       -4.126279   -0.693807   -1.788213
     11          6           0       -4.446353    0.498857   -1.259528
     12          6           0       -2.197223    1.246123   -1.048044
     13          7           0       -1.237825    2.114486   -0.721419
     14          1           0       -1.454229    3.008024   -0.326483
     15          1           0       -0.270590    1.901603   -0.860277
     16          1           0       -7.539993    0.804578   -1.865970
     17          1           0       -6.788503   -0.624716   -1.628339
     18          1           0       -7.467033    0.159452   -0.368672
     19          7           0       -4.512464   -1.088819    1.153982
     20          6           0       -3.177199   -1.338308    0.946929
     21          6           0       -5.625850   -1.879528    0.591984
     22          7           0       -0.663299   -3.247237   -0.501539
     23          1           0        0.336005   -3.255338   -0.525110
     24          1           0       -1.135157   -3.961745   -1.018795
     25          7           0       -2.662101   -2.339670    0.201267
     26          6           0       -1.341050   -2.320294    0.192245
     27          7           0       -0.580742   -1.392149    0.861564
     28          1           0        0.423791   -1.454228    0.798190
     29          6           0       -1.089382   -0.353223    1.634724
     30          8           0       -0.315798    0.431034    2.197968
     31          6           0       -2.507287   -0.361021    1.653981
     32          7           0       -3.403935    0.484991    2.292082
     33          6           0       -4.578186    0.015822    1.967680
     34          1           0       -5.528235    0.438999    2.295705
     35          1           0       -6.198567   -1.292649    0.020687
     36          1           0       -5.256451   -2.624223    0.037690
     37          1           0       -6.175391   -2.259569    1.335208
     38          1           0        5.333386   -1.922738   -0.438366
     39          1           0        5.434610   -2.734475    1.122239
     40          1           0        3.953271   -2.837233    0.170174
     41          1           0        5.336716    1.865993    2.526793
     42          6           0        4.650570    1.097137    2.171387
     43          8           0        2.702428    2.242036    2.893247
     44          6           0        3.242723    1.275712    2.355583
     45          1           0        1.464214    0.334807    1.981522
     46          7           0        2.464257    0.244597    1.869739
     47          8           0        2.131506   -1.757127    0.850140
     48          6           0        2.899428   -0.898377    1.247007
     49          1           0        6.166354   -0.190576    1.403280
     50          6           0        5.105384   -0.007010    1.567562
     51          6           0        4.781599   -2.202057    0.446835
     52          7           0        4.269685   -0.997672    1.106491
     53          1           0        5.616872   -2.130549   -3.081174
     54          1           0        4.371547   -2.604738   -2.139679
     55          1           0        5.865701   -2.452267   -1.500668
     56          1           0        2.015993    3.805423   -0.461372
     57          1           0        3.700717    3.791047   -0.728969
     58          7           0        2.837576    3.285926   -0.696464
     59          6           0        2.785572    1.977693   -0.955292
     60          6           0        3.698377   -0.142815   -1.531475
     61          7           0        2.525273   -0.795217   -1.480326
     62          1           0        0.550341   -0.409340   -1.091304
     63          6           0        1.540486    0.039867   -1.155180
     64          7           0        1.590542    1.350466   -0.895561
     65          1           0        6.879913    0.249279   -1.951267
     66          6           0        5.815331    0.382663   -1.756797
     67          7           0        5.253480    1.522405   -1.435917
     68          6           0        3.911220    1.203289   -1.290177
     69          6           0        5.219636   -2.076313   -2.165067
     70          7           0        4.932992   -0.667331   -1.832474
 ---------------------------------------------------------------------

 SCF Done:  E(RwB97XD) =  -2048.68377508     A.U. after   15 cycles

 The electronic state is 1-A.
 Alpha  occ. eigenvalues --  -19.24828 -19.21371 -19.20555 -14.52637 -14.51765
 Alpha  occ. eigenvalues --  -14.49624 -14.48656 -14.47674 -14.47235 -14.46692
 Alpha  occ. eigenvalues --  -14.46676 -14.45468 -14.44188 -14.44101 -14.43142
 Alpha  occ. eigenvalues --  -14.42067 -14.41736 -14.41259 -14.40815 -14.40783
 Alpha  occ. eigenvalues --  -10.44585 -10.41018 -10.39656 -10.39481 -10.38170
 Alpha  occ. eigenvalues --  -10.38129 -10.37248 -10.37084 -10.36261 -10.35708
 Alpha  occ. eigenvalues --  -10.34707 -10.34562 -10.34138 -10.34087 -10.33792
 Alpha  occ. eigenvalues --  -10.33676 -10.33328 -10.32580 -10.32230 -10.30389
 Alpha  occ. eigenvalues --  -10.30372 -10.29099 -10.28080  -1.18797  -1.15556
 Alpha  occ. eigenvalues --   -1.13167  -1.12383  -1.12168  -1.10480  -1.09191
 Alpha  occ. eigenvalues --   -1.08643  -1.08484  -1.05797  -1.04638  -1.02006
 Alpha  occ. eigenvalues --   -1.01396  -1.01250  -0.99676  -0.98413  -0.97912
 Alpha  occ. eigenvalues --   -0.96785  -0.96453  -0.93449  -0.90453  -0.88458
 Alpha  occ. eigenvalues --   -0.86851  -0.85075  -0.83940  -0.83505  -0.82918
 Alpha  occ. eigenvalues --   -0.82149  -0.78260  -0.77069  -0.74916  -0.74495
 Alpha  occ. eigenvalues --   -0.73738  -0.73528  -0.72871  -0.71824  -0.70521
 Alpha  occ. eigenvalues --   -0.67391  -0.67101  -0.66990  -0.66436  -0.64828
 Alpha  occ. eigenvalues --   -0.64416  -0.64089  -0.63539  -0.62883  -0.62523
 Alpha  occ. eigenvalues --   -0.61686  -0.61261  -0.60652  -0.59710  -0.59328
 Alpha  occ. eigenvalues --   -0.59181  -0.58401  -0.58227  -0.57424  -0.56542
 Alpha  occ. eigenvalues --   -0.55965  -0.55711  -0.55308  -0.54554  -0.54139
 Alpha  occ. eigenvalues --   -0.53976  -0.53849  -0.53336  -0.53090  -0.52751
 Alpha  occ. eigenvalues --   -0.52423  -0.51935  -0.51445  -0.51027  -0.50117
 Alpha  occ. eigenvalues --   -0.50082  -0.49765  -0.49541  -0.49059  -0.48884
 Alpha  occ. eigenvalues --   -0.48510  -0.48282  -0.48043  -0.47944  -0.47023
 Alpha  occ. eigenvalues --   -0.46889  -0.45927  -0.45642  -0.43791  -0.42306
 Alpha  occ. eigenvalues --   -0.41810  -0.40741  -0.38816  -0.37865  -0.37780
 Alpha  occ. eigenvalues --   -0.37506  -0.37050  -0.36548  -0.36076  -0.34842
 Alpha  occ. eigenvalues --   -0.34625  -0.34498  -0.33796  -0.33543  -0.32797
 Alpha  occ. eigenvalues --   -0.32381  -0.32148  -0.31759  -0.31421  -0.31155
 Alpha  occ. eigenvalues --   -0.31004  -0.29286  -0.27003  -0.24872
 Alpha virt. eigenvalues --    0.03624   0.03996   0.07094   0.07367   0.08804
 Alpha virt. eigenvalues --    0.09065   0.09529   0.10171   0.10680   0.12537
 Alpha virt. eigenvalues --    0.13128   0.13542   0.14160   0.14657   0.14735

 Mulliken charges:
               1
     1  N   -0.309938
     2  C    0.212297
     3  C    0.070280
     4  N   -0.243841
     5  C    0.119757
     6  H    0.025939
     7  N   -0.279974
     8  C    0.147813
     9  H    0.002477
    10  N   -0.276597
    11  C    0.209171
    12  C    0.072139
    13  N   -0.044002
    14  H    0.110387
    15  H    0.087183
    16  H    0.022768
    17  H    0.042202
    18  H    0.022478
    19  N   -0.280495
    20  C    0.213595
    21  C    0.230967
    22  N   -0.107608
    23  H    0.117915
    24  H    0.118001
    25  N   -0.285295
    26  C    0.211273
    27  N   -0.127071
    28  H    0.115195
    29  C    0.172343
    30  O   -0.321803
    31  C    0.007733
    32  N   -0.215038
    33  C    0.119352
    34  H    0.016848
    35  H   -0.072089
    36  H    0.037608
    37  H    0.023294
    38  H    0.051872
    39  H    0.049729
    40  H    0.073045
    41  H    0.025357
    42  C   -0.091947
    43  O   -0.269085
    44  C    0.165483
    45  H    0.130600
    46  N   -0.112415
    47  O   -0.331991
    48  C    0.322499
    49  H    0.039684
    50  C    0.164300
    51  C    0.028894
    52  N   -0.267688
    53  H    0.024907
    54  H    0.040802
    55  H    0.012607
    56  H    0.122577
    57  H    0.120591
    58  N   -0.058460
    59  C    0.109282
    60  C    0.197883
    61  N   -0.247439
    62  H    0.022734
    63  C    0.155464
    64  N   -0.295458
    65  H    0.036036
    66  C    0.117799
    67  N   -0.244580
    68  C    0.045084
    69  C    0.209651
    70  N   -0.313078
 Sum of Mulliken charges =  -0.00000

 Dipole moment (field-independent basis, Debye):
    X=              4.6211    Y=             -5.8333    Z=             -5.6454  Tot=              9.3409
 Quadrupole moment (field-independent basis, Debye-Ang):
   XX=           -146.6992   YY=           -224.9195   ZZ=           -265.4375
   XY=            -12.8822   XZ=             -7.4825   YZ=             -5.0578

 Normal termination of Gaussian 16 at Thu Jan 18 01:20:00 2018.
