 Gaussian 16, Revision A.03,
 Gaussian 16:  EM64L-G16RevA.03 25-Dec-2016

 ---------------------------------------
 #p wb97xd/cc-pvdz sp scf=(maxcycles=20)
 ---------------------------------------

 ------------------
 Base pair stacking
 ------------------
 Symbolic Z-matrix:
 Charge =  0 Multiplicity = 1

                         Standard orientation:
 ---------------------------------------------------------------------
 Center     Atomic      Atomic             Coordinates (Angstroms)
 Number     Number       Type             X           Y           Z
 ---------------------------------------------------------------------
      1          7           0       -6.825853   -0.741796    0.370299
      2          6           0       -8.081915   -0.034424    0.686416
      3          6           0       -4.712152   -1.342883    0.279291
      4          7           0       -5.406636   -2.244952   -0.513615
      5          6           0       -6.652271   -1.846712   -0.427046
      6          1           0       -7.492931   -2.326691   -0.928906
      7          7           0       -2.987275   -0.209100    1.420467
      8          6           0       -3.935324    0.615824    1.876839
      9          1           0       -3.583356    1.411530    2.531997
     10          7           0       -5.246707    0.605462    1.646494
     11          6           0       -5.573573   -0.410498    0.830769
     12          6           0       -3.348287   -1.221288    0.601784
     13          7           0       -2.403359   -2.045797    0.145189
     14          1           0       -2.625034   -2.808612   -0.463242
     15          1           0       -1.442198   -1.929192    0.395593
     16          1           0       -8.715909   -0.663207    1.136815
     17          1           0       -7.888188    0.734646    1.294792
     18          1           0       -8.496382    0.306459   -0.157396
     19          7           0       -3.276478    1.642480   -1.365445
     20          6           0       -1.946907    1.785072   -1.049293
     21          6           0       -4.361643    2.537394   -0.915732
     22          7           0        0.590104    3.514460    0.573852
     23          1           0        1.580959    3.439860    0.682880
     24          1           0        0.139130    4.278846    1.035413
     25          7           0       -1.412722    2.758848   -0.280874
     26          6           0       -0.103567    2.629693   -0.158220
     27          7           0        0.628352    1.624539   -0.742572
     28          1           0        1.625657    1.604302   -0.594439
     29          6           0        0.099699    0.612093   -1.537141
     30          8           0        0.848155   -0.248106   -2.017358
     31          6           0       -1.305755    0.737522   -1.678071
     32          7           0       -2.214527   -0.046937   -2.374958
     33          6           0       -3.367581    0.526621   -2.161190
     34          1           0       -4.319359    0.175799   -2.561594
     35          1           0       -5.028181    2.015145   -0.384899
     36          1           0       -3.977943    3.262708   -0.345690
     37          1           0       -4.812512    2.942686   -1.710248
     38          1           0        6.436211    1.693676    1.049721
     39          1           0        6.736800    2.453806   -0.511208
     40          1           0        5.194965    2.704063    0.308239
     41          1           0        6.365422   -2.157058   -1.833571
     42          6           0        5.719897   -1.324834   -1.552612
     43          8           0        3.748741   -2.321573   -2.417573
     44          6           0        4.322397   -1.390143   -1.853533
     45          1           0        2.605437   -0.295011   -1.650866
     46          7           0        3.596618   -0.285603   -1.455416
     47          8           0        3.351281    1.762408   -0.505346
     48          6           0        4.073819    0.832748   -0.818929
     49          1           0        7.270096   -0.148603   -0.681311
     50          6           0        6.214872   -0.247275   -0.932559
     51          6           0        5.986441    1.995168    0.115443
     52          7           0        5.430915    0.821084   -0.563271
     53          1           0        4.413910    1.117643    3.899275
     54          1           0        3.268915    1.871064    3.014162
     55          1           0        4.801574    1.782132    2.459978
     56          1           0        0.786560   -3.821496   -0.285546
     57          1           0        2.443615   -3.970394    0.091422
     58          7           0        1.607922   -3.420860    0.120654
     59          6           0        1.590668   -2.207804    0.676850
     60          6           0        2.543197   -0.337535    1.797802
     61          7           0        1.406508    0.377833    1.822734
     62          1           0       -0.545545    0.211601    1.220704
     63          6           0        0.416483   -0.298517    1.243680
     64          7           0        0.431769   -1.513579    0.686028
     65          1           0        5.661627   -1.005856    2.327782
     66          6           0        4.611310   -1.026547    2.035647
     67          7           0        4.029288   -2.024940    1.417470
     68          6           0        2.717636   -1.601056    1.260565
     69          6           0        4.089205    1.301473    2.971504
     70          7           0        3.770845    0.027969    2.297076
 ---------------------------------------------------------------------

 SCF Done:  E(RwB97XD) =  -2048.74995837     A.U. after   15 cycles

 The electronic state is 1-A.
 Alpha  occ. eigenvalues --  -19.26016 -19.21983 -19.20552 -14.52629 -14.51291
 Alpha  occ. eigenvalues --  -14.50070 -14.48351 -14.47852 -14.46631 -14.46442
 Alpha  occ. eigenvalues --  -14.46265 -14.44097 -14.43052 -14.42831 -14.42786
 Alpha  occ. eigenvalues --  -14.42728 -14.42121 -14.41854 -14.41216 -14.40615
 Alpha  occ. eigenvalues --  -10.45605 -10.40985 -10.40048 -10.38295 -10.38098
 Alpha  occ. eigenvalues --  -10.37616 -10.36779 -10.36503 -10.36074 -10.35808
 Alpha  occ. eigenvalues --  -10.35366 -10.34634 -10.34525 -10.34145 -10.34138
 Alpha  occ. eigenvalues --  -10.33286 -10.33039 -10.32065 -10.31125 -10.30991
 Alpha  occ. eigenvalues --  -10.29934 -10.29837 -10.27922  -1.19608  -1.13932
 Alpha  occ. eigenvalues --   -1.13084  -1.12973  -1.12664  -1.10356  -1.09491
 Alpha  occ. eigenvalues --   -1.08403  -1.07666  -1.06122  -1.03201  -1.02550
 Alpha  occ. eigenvalues --   -1.01552  -0.99677  -0.99531  -0.98344  -0.98170
 Alpha  occ. eigenvalues --   -0.96226  -0.95317  -0.93734  -0.91043  -0.86424
 Alpha  occ. eigenvalues --   -0.85168  -0.84952  -0.84099  -0.83785  -0.83480
 Alpha  occ. eigenvalues --   -0.81956  -0.78922  -0.75683  -0.74372  -0.74017
 Alpha  occ. eigenvalues --   -0.73509  -0.73425  -0.73361  -0.72219  -0.69044
 Alpha  occ. eigenvalues --   -0.67434  -0.67174  -0.66596  -0.65361  -0.64488
 Alpha  occ. eigenvalues --   -0.63832  -0.63544  -0.62883  -0.62506  -0.61512
 Alpha  occ. eigenvalues --   -0.61223  -0.61095  -0.59563  -0.59282  -0.58431
 Alpha  occ. eigenvalues --   -0.58148  -0.57798  -0.57714  -0.57484  -0.56427
 Alpha  occ. eigenvalues --   -0.56256  -0.55991  -0.55083  -0.54419  -0.54197
 Alpha  occ. eigenvalues --   -0.53807  -0.53409  -0.52979  -0.52937  -0.52607
 Alpha  occ. eigenvalues --   -0.52256  -0.51960  -0.51620  -0.51545  -0.51249
 Alpha  occ. eigenvalues --   -0.50141  -0.49919  -0.49464  -0.48690  -0.48602
 Alpha  occ. eigenvalues --   -0.48408  -0.48138  -0.48030  -0.47977  -0.47728
 Alpha  occ. eigenvalues --   -0.47311  -0.45976  -0.45233  -0.44144  -0.43144
 Alpha  occ. eigenvalues --   -0.42039  -0.39592  -0.39463  -0.38364  -0.37125
 Alpha  occ. eigenvalues --   -0.37102  -0.36602  -0.36204  -0.35645  -0.34785
 Alpha  occ. eigenvalues --   -0.34641  -0.34186  -0.33249  -0.33169  -0.32944
 Alpha  occ. eigenvalues --   -0.32588  -0.32346  -0.31885  -0.31769  -0.31722
 Alpha  occ. eigenvalues --   -0.31428  -0.28244  -0.26843  -0.25267
 Alpha virt. eigenvalues --    0.02960   0.05452   0.06700   0.08115   0.08824
 Alpha virt. eigenvalues --    0.09038   0.09824   0.10137   0.11053   0.12020
 Alpha virt. eigenvalues --    0.12791   0.13128   0.14688   0.14805   0.15194

 Mulliken charges:
               1
     1  N   -0.310252
     2  C    0.179907
     3  C    0.039618
     4  N   -0.253116
     5  C    0.129200
     6  H    0.030136
     7  N   -0.272019
     8  C    0.127142
     9  H    0.018883
    10  N   -0.289360
    11  C    0.232728
    12  C    0.090271
    13  N   -0.035531
    14  H    0.108265
    15  H    0.089049
    16  H    0.029546
    17  H    0.036111
    18  H    0.025743
    19  N   -0.298372
    20  C    0.250099
    21  C    0.186709
    22  N   -0.112859
    23  H    0.112397
    24  H    0.116238
    25  N   -0.299138
    26  C    0.226534
    27  N   -0.126511
    28  H    0.121151
    29  C    0.152089
    30  O   -0.324925
    31  C    0.000776
    32  N   -0.226576
    33  C    0.118355
    34  H    0.025765
    35  H    0.019119
    36  H    0.027355
    37  H    0.020223
    38  H    0.054259
    39  H    0.065711
    40  H    0.079983
    41  H    0.029710
    42  C   -0.078352
    43  O   -0.268292
    44  C    0.180294
    45  H    0.133552
    46  N   -0.125070
    47  O   -0.346315
    48  C    0.339709
    49  H    0.042922
    50  C    0.153805
    51  C    0.035657
    52  N   -0.282558
    53  H    0.032198
    54  H    0.037087
    55  H   -0.009809
    56  H    0.117761
    57  H    0.121165
    58  N   -0.056628
    59  C    0.132331
    60  C    0.220719
    61  N   -0.277767
    62  H    0.033817
    63  C    0.164377
    64  N   -0.305683
    65  H    0.024627
    66  C    0.116854
    67  N   -0.247298
    68  C    0.020018
    69  C    0.192041
    70  N   -0.295575
 Sum of Mulliken charges =  -0.00000

 Dipole moment (field-independent basis, Debye):
    X=              4.2951    Y=              5.3441    Z=              4.8392  Tot=              8.3919
 Quadrupole moment (field-independent basis, Debye-Ang):
   XX=           -140.8380   YY=           -226.0795   ZZ=           -258.3544
   XY=             15.1363   XZ=             21.5432   YZ=              0.0686

 Normal termination of Gaussian 16 at Wed Jan 17 19:56:52 2018.
