 Gaussian 16, Revision A.03,
 Gaussian 16:  EM64L-G16RevA.03 25-Dec-2016

 ---------------------------------------
 #p wb97xd/cc-pvdz sp scf=(maxcycles=20)
 ---------------------------------------

 ------------------
 Base pair stacking
 ------------------
 Symbolic Z-matrix:
 Charge =  0 Multiplicity = 1

                         Standard orientation:
 ---------------------------------------------------------------------
 Center     Atomic      Atomic             Coordinates (Angstroms)
 Number     Number       Type             X           Y           Z
 ---------------------------------------------------------------------
      1          7           0        6.278692   -0.961146   -0.623994
      2          6           0        7.544418   -0.285024   -0.968674
      3          6           0        4.151875   -1.500620   -0.472583
      4          7           0        4.844822   -2.439766    0.277455
      5          6           0        6.098416   -2.077173    0.156217
      6          1           0        6.940459   -2.592667    0.618999
      7          7           0        2.424945   -0.291684   -1.530481
      8          6           0        3.381830    0.514116   -2.002314
      9          1           0        3.032449    1.333792   -2.628666
     10          7           0        4.699321    0.459658   -1.817464
     11          6           0        5.022312   -0.582816   -1.034290
     12          6           0        2.782258   -1.331461   -0.745444
     13          7           0        1.828510   -2.136941   -0.273490
     14          1           0        2.047164   -2.918863    0.311328
     15          1           0        0.863457   -1.986342   -0.488266
     16          1           0        8.143314   -0.922710   -1.453307
     17          1           0        7.353879    0.502314   -1.554259
     18          1           0        7.997373    0.025211   -0.132857
     19          7           0        3.894459    1.494093    1.228281
     20          6           0        2.561391    1.675045    0.948600
     21          6           0        4.999146    2.309320    0.684439
     22          7           0        0.041713    3.407917   -0.697648
     23          1           0       -0.954727    3.370562   -0.767988
     24          1           0        0.507274    4.120421   -1.223312
     25          7           0        2.040905    2.620397    0.136525
     26          6           0        0.723852    2.541908    0.066953
     27          7           0       -0.027851    1.609702    0.740332
     28          1           0       -1.029870    1.624332    0.627662
     29          6           0        0.486445    0.627729    1.581213
     30          8           0       -0.279484   -0.165888    2.141798
     31          6           0        1.900146    0.699395    1.666008
     32          7           0        2.799988   -0.078425    2.381677
     33          6           0        3.967574    0.428511    2.091907
     34          1           0        4.917757    0.062127    2.482022
     35          1           0        5.623219    1.725089    0.166738
     36          1           0        4.625718    3.012979    0.081396
     37          1           0        5.495482    2.744225    1.434993
     38          1           0       -5.889386    1.821772   -0.855201
     39          1           0       -6.100317    2.692850    0.661835
     40          1           0       -4.580364    2.821436   -0.223928
     41          1           0       -5.875279   -1.835842    2.270210
     42          6           0       -5.206004   -1.052796    1.913655
     43          8           0       -3.248215   -2.078650    2.774916
     44          6           0       -3.802403   -1.160687    2.170764
     45          1           0       -2.049425   -0.158083    1.838820
     46          7           0       -3.045820   -0.117213    1.676806
     47          8           0       -2.749419    1.852875    0.586804
     48          6           0       -3.498491    0.978183    0.984897
     49          1           0       -6.736158    0.132925    1.020055
     50          6           0       -5.677539    0.003779    1.241402
     51          6           0       -5.393400    2.162187    0.041562
     52          7           0       -4.863325    1.010447    0.776592
     53          1           0       -5.011662    1.308265   -3.725786
     54          1           0       -3.814920    2.008062   -2.865427
     55          1           0       -5.330002    1.953140   -2.260792
     56          1           0       -1.397872   -3.825331    0.230511
     57          1           0       -3.070486   -3.916564   -0.092197
     58          7           0       -2.219841   -3.391744   -0.138977
     59          6           0       -2.184274   -2.168139   -0.670656
     60          6           0       -3.116443   -0.246725   -1.719917
     61          7           0       -1.959907    0.434734   -1.769369
     62          1           0        0.005370    0.197421   -1.238344
     63          6           0       -0.972052   -0.283120   -1.238588
     64          7           0       -1.005652   -1.508809   -0.705562
     65          1           0       -6.269986   -0.810095   -2.155820
     66          6           0       -5.211526   -0.868394   -1.900454
     67          7           0       -4.639782   -1.896707   -1.323096
     68          6           0       -3.311224   -1.515652   -1.202806
     69          6           0       -4.650345    1.462445   -2.806178
     70          7           0       -4.348507    0.165890   -2.169137
 ---------------------------------------------------------------------

 SCF Done:  E(RwB97XD) =  -2048.73927712     A.U. after   15 cycles

 The electronic state is 1-A.
 Alpha  occ. eigenvalues --  -19.25521 -19.21797 -19.20572 -14.52350 -14.51893
 Alpha  occ. eigenvalues --  -14.49939 -14.48463 -14.47537 -14.46935 -14.46720
 Alpha  occ. eigenvalues --  -14.46447 -14.44721 -14.43523 -14.43396 -14.43019
 Alpha  occ. eigenvalues --  -14.42443 -14.41832 -14.41778 -14.41017 -14.40604
 Alpha  occ. eigenvalues --  -10.45211 -10.41016 -10.39834 -10.38962 -10.38095
 Alpha  occ. eigenvalues --  -10.37435 -10.37288 -10.36434 -10.36326 -10.35625
 Alpha  occ. eigenvalues --  -10.35112 -10.34991 -10.34366 -10.34075 -10.33887
 Alpha  occ. eigenvalues --  -10.33520 -10.33099 -10.32125 -10.31865 -10.30650
 Alpha  occ. eigenvalues --  -10.30161 -10.29523 -10.27867  -1.19239  -1.14563
 Alpha  occ. eigenvalues --   -1.13078  -1.12773  -1.12461  -1.10377  -1.09216
 Alpha  occ. eigenvalues --   -1.08406  -1.08304  -1.05913  -1.03844  -1.02314
 Alpha  occ. eigenvalues --   -1.01368  -1.00314  -0.99538  -0.98339  -0.98013
 Alpha  occ. eigenvalues --   -0.96274  -0.95954  -0.93553  -0.90794  -0.87152
 Alpha  occ. eigenvalues --   -0.85685  -0.84989  -0.83838  -0.83745  -0.83360
 Alpha  occ. eigenvalues --   -0.82050  -0.78678  -0.76269  -0.74424  -0.74050
 Alpha  occ. eigenvalues --   -0.73855  -0.73440  -0.73197  -0.71996  -0.69688
 Alpha  occ. eigenvalues --   -0.67272  -0.67159  -0.66468  -0.65944  -0.64438
 Alpha  occ. eigenvalues --   -0.63731  -0.63645  -0.63372  -0.62494  -0.62226
 Alpha  occ. eigenvalues --   -0.61525  -0.61127  -0.59912  -0.59321  -0.58916
 Alpha  occ. eigenvalues --   -0.58220  -0.58052  -0.57454  -0.57371  -0.56378
 Alpha  occ. eigenvalues --   -0.56075  -0.55799  -0.55565  -0.54725  -0.54202
 Alpha  occ. eigenvalues --   -0.53855  -0.53369  -0.53038  -0.52858  -0.52563
 Alpha  occ. eigenvalues --   -0.52504  -0.52083  -0.51480  -0.51141  -0.51002
 Alpha  occ. eigenvalues --   -0.50029  -0.49868  -0.49296  -0.49214  -0.49008
 Alpha  occ. eigenvalues --   -0.48509  -0.48418  -0.48065  -0.47874  -0.47454
 Alpha  occ. eigenvalues --   -0.47249  -0.45918  -0.45347  -0.43884  -0.42889
 Alpha  occ. eigenvalues --   -0.41980  -0.40004  -0.39209  -0.38096  -0.37220
 Alpha  occ. eigenvalues --   -0.37093  -0.37037  -0.36876  -0.35897  -0.34534
 Alpha  occ. eigenvalues --   -0.34473  -0.34070  -0.33767  -0.33510  -0.32995
 Alpha  occ. eigenvalues --   -0.32526  -0.32261  -0.31710  -0.31552  -0.31375
 Alpha  occ. eigenvalues --   -0.31261  -0.28822  -0.26737  -0.25253
 Alpha virt. eigenvalues --    0.02825   0.05170   0.06940   0.07203   0.09082
 Alpha virt. eigenvalues --    0.09250   0.09811   0.10313   0.11120   0.12099
 Alpha virt. eigenvalues --    0.13111   0.13304   0.14260   0.14753   0.14976

 Mulliken charges:
               1
     1  N   -0.310496
     2  C    0.177747
     3  C    0.052274
     4  N   -0.246299
     5  C    0.122269
     6  H    0.028787
     7  N   -0.277669
     8  C    0.137404
     9  H    0.013610
    10  N   -0.286938
    11  C    0.225990
    12  C    0.086100
    13  N   -0.039795
    14  H    0.110354
    15  H    0.090739
    16  H    0.031678
    17  H    0.038825
    18  H    0.024302
    19  N   -0.292682
    20  C    0.242435
    21  C    0.195007
    22  N   -0.113932
    23  H    0.115510
    24  H    0.116781
    25  N   -0.299287
    26  C    0.221782
    27  N   -0.141964
    28  H    0.128193
    29  C    0.166581
    30  O   -0.324158
    31  C   -0.005680
    32  N   -0.222831
    33  C    0.127121
    34  H    0.022048
    35  H    0.005579
    36  H    0.030246
    37  H    0.018812
    38  H    0.045619
    39  H    0.062733
    40  H    0.075270
    41  H    0.026469
    42  C   -0.075512
    43  O   -0.268984
    44  C    0.166864
    45  H    0.134093
    46  N   -0.123351
    47  O   -0.337529
    48  C    0.331169
    49  H    0.041439
    50  C    0.158040
    51  C    0.044038
    52  N   -0.276597
    53  H    0.032580
    54  H    0.040421
    55  H   -0.001340
    56  H    0.120807
    57  H    0.120017
    58  N   -0.051042
    59  C    0.118517
    60  C    0.209660
    61  N   -0.262013
    62  H    0.037726
    63  C    0.146489
    64  N   -0.304407
    65  H    0.030534
    66  C    0.115829
    67  N   -0.242517
    68  C    0.024804
    69  C    0.186273
    70  N   -0.294540
 Sum of Mulliken charges =  -0.00000

 Dipole moment (field-independent basis, Debye):
    X=             -4.3698    Y=              5.1874    Z=             -5.3810  Tot=              8.6579
 Quadrupole moment (field-independent basis, Debye-Ang):
   XX=           -144.5337   YY=           -224.6596   ZZ=           -262.0682
   XY=            -13.5106   XZ=             15.3015   YZ=             -0.3125

 Normal termination of Gaussian 16 at Thu Jan 18 11:48:53 2018.
