 Gaussian 16, Revision A.03,
 Gaussian 16:  EM64L-G16RevA.03 25-Dec-2016

 ---------------------------------------
 #p wb97xd/cc-pvdz sp scf=(maxcycles=20)
 ---------------------------------------

 ------------------
 Base pair stacking
 ------------------
 Symbolic Z-matrix:
 Charge =  0 Multiplicity = 1

                         Standard orientation:
 ---------------------------------------------------------------------
 Center     Atomic      Atomic             Coordinates (Angstroms)
 Number     Number       Type             X           Y           Z
 ---------------------------------------------------------------------
      1          7           0       -6.316546   -1.329308    0.262460
      2          6           0       -7.593623   -1.044497    0.945074
      3          6           0       -4.179312   -1.600155   -0.180470
      4          7           0       -4.859464   -1.900096   -1.351859
      5          6           0       -6.119843   -1.724912   -1.038130
      6          1           0       -6.955431   -1.871527   -1.723136
      7          7           0       -2.467828   -1.246647    1.403447
      8          6           0       -3.437578   -0.928735    2.267222
      9          1           0       -3.099669   -0.656984    3.266336
     10          7           0       -4.755873   -0.896273    2.082975
     11          6           0       -5.064122   -1.246620    0.823351
     12          6           0       -2.810479   -1.594725    0.143884
     13          7           0       -1.843887   -1.912400   -0.719798
     14          1           0       -2.051447   -2.176103   -1.662455
     15          1           0       -0.879841   -1.897628   -0.454193
     16          1           0       -8.169042   -1.862382    0.933389
     17          1           0       -7.414279   -0.777801    1.891568
     18          1           0       -8.066569   -0.299561    0.474564
     19          7           0       -3.839544    2.175494   -0.607419
     20          6           0       -2.499723    2.246095   -0.310886
     21          6           0       -4.913734    2.877713    0.123136
     22          7           0        0.084738    3.475763    1.656401
     23          1           0        1.079768    3.392485    1.703446
     24          1           0       -0.354163    4.062491    2.337459
     25          7           0       -1.943884    2.963074    0.689636
     26          6           0       -0.629786    2.830054    0.722366
     27          7           0        0.087036    2.054711   -0.156548
     28          1           0        1.089598    2.012098   -0.056454
     29          6           0       -0.463979    1.308532   -1.193592
     30          8           0        0.272266    0.641644   -1.931128
     31          6           0       -1.874984    1.441390   -1.241457
     32          7           0       -2.803906    0.876957   -2.104828
     33          6           0       -3.952520    1.339588   -1.691464
     34          1           0       -4.916397    1.102147   -2.142954
     35          1           0       -5.553925    2.209739    0.500999
     36          1           0       -4.513985    3.412138    0.866677
     37          1           0       -5.399514    3.488523   -0.501151
     38          1           0        5.960988    1.713420    1.369402
     39          1           0        6.192304    2.902746    0.090084
     40          1           0        4.682278    2.871311    1.001229
     41          1           0        5.809075   -1.126178   -2.511356
     42          6           0        5.167974   -0.425689   -1.976055
     43          8           0        3.172704   -1.165291   -3.024393
     44          6           0        3.760200   -0.428221   -2.232951
     45          1           0        2.043123    0.524962   -1.657272
     46          7           0        3.041197    0.496730   -1.503062
     47          8           0        2.815951    2.171917    0.013576
     48          6           0        3.533548    1.389357   -0.584182
     49          1           0        6.741302    0.475192   -0.854057
     50          6           0        5.677804    0.433113   -1.085461
     51          6           0        5.471639    2.265886    0.581114
     52          7           0        4.899823    1.330741   -0.391649
     53          1           0        4.957927   -1.118171    4.146444
     54          1           0        3.731351   -0.072498    3.893125
     55          1           0        5.238199    0.299466    3.388031
     56          1           0        1.416108   -2.840842   -2.142708
     57          1           0        3.095089   -3.062591   -1.937881
     58          7           0        2.232305   -2.702092   -1.581706
     59          6           0        2.173861   -2.064794   -0.410552
     60          6           0        3.072881   -1.167143    1.601349
     61          7           0        1.900431   -0.693624    2.054725
     62          1           0       -0.065915   -0.611453    1.482565
     63          6           0        0.923175   -0.962262    1.191172
     64          7           0        0.979680   -1.600430    0.017671
     65          1           0        6.245697   -1.787877    1.610954
     66          6           0        5.185373   -1.707633    1.369685
     67          7           0        4.631165   -2.180445    0.280193
     68          6           0        3.291812   -1.844519    0.414427
     69          6           0        4.579252   -0.442170    3.514276
     70          7           0        4.300697   -1.082043    2.213901
 ---------------------------------------------------------------------

 SCF Done:  E(RwB97XD) =  -2048.73052417     A.U. after   15 cycles

 The electronic state is 1-A.
 Alpha  occ. eigenvalues --  -19.25766 -19.22361 -19.20835 -14.52333 -14.51244
 Alpha  occ. eigenvalues --  -14.49465 -14.48780 -14.47742 -14.47064 -14.46762
 Alpha  occ. eigenvalues --  -14.45427 -14.44092 -14.42714 -14.42457 -14.42334
 Alpha  occ. eigenvalues --  -14.42083 -14.42045 -14.41382 -14.40846 -14.40597
 Alpha  occ. eigenvalues --  -10.45394 -10.41313 -10.39959 -10.38378 -10.37833
 Alpha  occ. eigenvalues --  -10.37112 -10.36592 -10.35794 -10.35734 -10.35567
 Alpha  occ. eigenvalues --  -10.34729 -10.34397 -10.34362 -10.33961 -10.33507
 Alpha  occ. eigenvalues --  -10.33311 -10.33181 -10.31681 -10.31060 -10.30847
 Alpha  occ. eigenvalues --  -10.30621 -10.29087 -10.28168  -1.19362  -1.13942
 Alpha  occ. eigenvalues --   -1.13531  -1.13326  -1.12018  -1.10652  -1.09265
 Alpha  occ. eigenvalues --   -1.08691  -1.07377  -1.05432  -1.02993  -1.02540
 Alpha  occ. eigenvalues --   -1.00807  -0.99847  -0.99567  -0.98614  -0.97540
 Alpha  occ. eigenvalues --   -0.96605  -0.95045  -0.93032  -0.90667  -0.86291
 Alpha  occ. eigenvalues --   -0.84801  -0.84549  -0.84134  -0.83754  -0.82916
 Alpha  occ. eigenvalues --   -0.82504  -0.78676  -0.75491  -0.74665  -0.73728
 Alpha  occ. eigenvalues --   -0.73402  -0.73313  -0.73242  -0.71535  -0.68816
 Alpha  occ. eigenvalues --   -0.67439  -0.66772  -0.66432  -0.65171  -0.64428
 Alpha  occ. eigenvalues --   -0.63776  -0.63178  -0.62691  -0.62596  -0.61794
 Alpha  occ. eigenvalues --   -0.60622  -0.60454  -0.59351  -0.58992  -0.58449
 Alpha  occ. eigenvalues --   -0.58118  -0.58079  -0.57311  -0.56934  -0.56478
 Alpha  occ. eigenvalues --   -0.55947  -0.55665  -0.55029  -0.54371  -0.54095
 Alpha  occ. eigenvalues --   -0.53746  -0.53549  -0.52965  -0.52562  -0.52497
 Alpha  occ. eigenvalues --   -0.52220  -0.51830  -0.51437  -0.51395  -0.50693
 Alpha  occ. eigenvalues --   -0.50378  -0.49721  -0.49556  -0.49233  -0.49015
 Alpha  occ. eigenvalues --   -0.48514  -0.48393  -0.47777  -0.47640  -0.47504
 Alpha  occ. eigenvalues --   -0.47419  -0.45696  -0.45450  -0.43394  -0.42322
 Alpha  occ. eigenvalues --   -0.41617  -0.39415  -0.39389  -0.37659  -0.37528
 Alpha  occ. eigenvalues --   -0.37310  -0.37236  -0.36232  -0.35687  -0.34326
 Alpha  occ. eigenvalues --   -0.34026  -0.33964  -0.33717  -0.33377  -0.32869
 Alpha  occ. eigenvalues --   -0.32706  -0.32318  -0.31976  -0.31469  -0.30850
 Alpha  occ. eigenvalues --   -0.30591  -0.27289  -0.26224  -0.25478
 Alpha virt. eigenvalues --    0.03024   0.05345   0.07421   0.07772   0.08885
 Alpha virt. eigenvalues --    0.09707   0.09866   0.10546   0.10889   0.12369
 Alpha virt. eigenvalues --    0.13387   0.13711   0.13986   0.14609   0.14860

 Mulliken charges:
               1
     1  N   -0.310764
     2  C    0.180089
     3  C    0.034558
     4  N   -0.244019
     5  C    0.118985
     6  H    0.026781
     7  N   -0.288158
     8  C    0.136698
     9  H    0.014922
    10  N   -0.291938
    11  C    0.239443
    12  C    0.095932
    13  N   -0.038359
    14  H    0.112332
    15  H    0.093484
    16  H    0.028430
    17  H    0.035904
    18  H    0.021945
    19  N   -0.307092
    20  C    0.258971
    21  C    0.182820
    22  N   -0.123483
    23  H    0.116382
    24  H    0.118991
    25  N   -0.309918
    26  C    0.246370
    27  N   -0.147881
    28  H    0.121293
    29  C    0.183003
    30  O   -0.328123
    31  C   -0.017461
    32  N   -0.228279
    33  C    0.135022
    34  H    0.024254
    35  H    0.025883
    36  H    0.030036
    37  H    0.022427
    38  H    0.048876
    39  H    0.062395
    40  H    0.075786
    41  H    0.021192
    42  C   -0.045264
    43  O   -0.282043
    44  C    0.151058
    45  H    0.135830
    46  N   -0.123474
    47  O   -0.348849
    48  C    0.348942
    49  H    0.039724
    50  C    0.157417
    51  C    0.041798
    52  N   -0.284475
    53  H    0.032497
    54  H    0.041272
    55  H    0.014784
    56  H    0.118878
    57  H    0.115641
    58  N   -0.000795
    59  C    0.084731
    60  C    0.236017
    61  N   -0.276374
    62  H    0.029429
    63  C    0.156660
    64  N   -0.303530
    65  H    0.026142
    66  C    0.117431
    67  N   -0.246085
    68  C    0.005739
    69  C    0.181844
    70  N   -0.302675
 Sum of Mulliken charges =  -0.00000

 Dipole moment (field-independent basis, Debye):
    X=              4.7567    Y=              4.4020    Z=              5.4666  Tot=              8.4787
 Quadrupole moment (field-independent basis, Debye-Ang):
   XX=           -144.2619   YY=           -230.8396   ZZ=           -250.3617
   XY=              3.9287   XZ=             18.8570   YZ=             12.0202

 Normal termination of Gaussian 16 at Thu Jan 18 07:37:53 2018.
