 Gaussian 16, Revision A.03,
 Gaussian 16:  EM64L-G16RevA.03 25-Dec-2016

 ---------------------------------------
 #p wb97xd/cc-pvdz sp scf=(maxcycles=20)
 ---------------------------------------

 ------------------
 Base pair stacking
 ------------------
 Symbolic Z-matrix:
 Charge =  0 Multiplicity = 1

                         Standard orientation:
 ---------------------------------------------------------------------
 Center     Atomic      Atomic             Coordinates (Angstroms)
 Number     Number       Type             X           Y           Z
 ---------------------------------------------------------------------
      1          7           0       -6.764946    0.609898   -0.369987
      2          6           0       -8.002008   -0.193527   -0.416760
      3          6           0       -4.667276    1.257388   -0.503662
      4          7           0       -5.386240    2.359214   -0.063420
      5          6           0       -6.621231    1.925027   -0.000508
      6          1           0       -7.474958    2.527137    0.311819
      7          7           0       -2.911562   -0.156124   -1.198193
      8          6           0       -3.837392   -1.110457   -1.338387
      9          1           0       -3.463872   -2.073587   -1.683518
     10          7           0       -5.149196   -1.053941   -1.117305
     11          6           0       -5.503570    0.171677   -0.696947
     12          6           0       -3.299977    1.066122   -0.773538
     13          7           0       -2.377264    2.020055   -0.632962
     14          1           0       -2.619586    2.939492   -0.321279
     15          1           0       -1.412832    1.848303   -0.834297
     16          1           0       -8.650496    0.227147   -1.051324
     17          1           0       -7.787461   -1.119491   -0.726069
     18          1           0       -8.409880   -0.234714    0.495344
     19          7           0       -3.356826   -1.250740    1.395902
     20          6           0       -2.031219   -1.436654    1.085635
     21          6           0       -4.467669   -2.114614    0.948187
     22          7           0        0.456536   -3.254924   -0.516458
     23          1           0        1.449605   -3.211841   -0.622330
     24          1           0       -0.016331   -4.008093   -0.974550
     25          7           0       -1.524842   -2.431750    0.325748
     26          6           0       -0.211890   -2.344103    0.207087
     27          7           0        0.548832   -1.358159    0.787371
     28          1           0        1.546790   -1.369879    0.642801
     29          6           0        0.049087   -0.324410    1.573169
     30          8           0        0.822202    0.515419    2.050354
     31          6           0       -1.360070   -0.405224    1.709735
     32          7           0       -2.246474    0.411781    2.397967
     33          6           0       -3.416023   -0.127192    2.183793
     34          1           0       -4.357842    0.255717    2.578303
     35          1           0       -5.115818   -1.575581    0.411400
     36          1           0       -4.104671   -2.855352    0.384450
     37          1           0       -4.933663   -2.500301    1.743746
     38          1           0        6.357965   -1.619632   -0.982917
     39          1           0        6.629361   -2.378040    0.584187
     40          1           0        5.083375   -2.585947   -0.239260
     41          1           0        6.396670    2.251038    1.874181
     42          6           0        5.726616    1.437342    1.596437
     43          8           0        3.784332    2.500615    2.447378
     44          6           0        4.330763    1.548014    1.891730
     45          1           0        2.581366    0.505304    1.690073
     46          7           0        3.572453    0.463824    1.498365
     47          8           0        3.266985   -1.582040    0.561157
     48          6           0        4.016922   -0.673106    0.871160
     49          1           0        7.242584    0.207678    0.738788
     50          6           0        6.190062    0.340746    0.985463
     51          6           0        5.895794   -1.900640   -0.048300
     52          7           0        5.374617   -0.705290    0.620462
     53          1           0        4.526867   -2.070057   -3.118885
     54          1           0        3.398981   -2.502442   -2.022061
     55          1           0        4.927526   -2.191492   -1.541497
     56          1           0        0.765870    3.913462   -0.856613
     57          1           0        2.419582    3.964748   -1.272166
     58          7           0        1.598067    3.418162   -1.106134
     59          6           0        1.612746    2.087924   -1.212994
     60          6           0        2.614851   -0.029267   -1.631373
     61          7           0        1.496604   -0.737498   -1.402606
     62          1           0       -0.460524   -0.422951   -0.881711
     63          6           0        0.488421    0.071840   -1.084083
     64          7           0        0.471716    1.404402   -0.976528
     65          1           0        5.716789    0.493234   -2.377792
     66          6           0        4.665563    0.587014   -2.103834
     67          7           0        4.057040    1.722198   -1.861441
     68          6           0        2.756088    1.345712   -1.560597
     69          6           0        4.204564   -1.932787   -2.182252
     70          7           0        3.852565   -0.513502   -1.982910
 ---------------------------------------------------------------------

 SCF Done:  E(RwB97XD) =  -2048.62867238     A.U. after   15 cycles

 The electronic state is 1-A.
 Alpha  occ. eigenvalues --  -19.26116 -19.22073 -19.20460 -14.52997 -14.51274
 Alpha  occ. eigenvalues --  -14.50537 -14.48077 -14.47810 -14.46951 -14.45951
 Alpha  occ. eigenvalues --  -14.45932 -14.44233 -14.43435 -14.43205 -14.43075
 Alpha  occ. eigenvalues --  -14.42771 -14.42243 -14.41690 -14.41410 -14.40374
 Alpha  occ. eigenvalues --  -10.45804 -10.40555 -10.40164 -10.38748 -10.37934
 Alpha  occ. eigenvalues --  -10.37838 -10.36938 -10.36748 -10.36393 -10.36007
 Alpha  occ. eigenvalues --  -10.35718 -10.34923 -10.34902 -10.34191 -10.33815
 Alpha  occ. eigenvalues --  -10.32857 -10.32462 -10.32123 -10.31298 -10.31266
 Alpha  occ. eigenvalues --  -10.30259 -10.27707 -10.27548  -1.20005  -1.14095
 Alpha  occ. eigenvalues --   -1.13206  -1.13103  -1.13002  -1.10217  -1.09868
 Alpha  occ. eigenvalues --   -1.08364  -1.08003  -1.06670  -1.03748  -1.02839
 Alpha  occ. eigenvalues --   -1.02380  -0.99869  -0.99222  -0.98598  -0.98207
 Alpha  occ. eigenvalues --   -0.95949  -0.95661  -0.94388  -0.91600  -0.87336
 Alpha  occ. eigenvalues --   -0.85981  -0.85721  -0.83923  -0.83757  -0.83440
 Alpha  occ. eigenvalues --   -0.81198  -0.79265  -0.76101  -0.74551  -0.74156
 Alpha  occ. eigenvalues --   -0.73961  -0.73798  -0.73261  -0.72766  -0.69568
 Alpha  occ. eigenvalues --   -0.67922  -0.67096  -0.66784  -0.66268  -0.65257
 Alpha  occ. eigenvalues --   -0.64347  -0.63486  -0.63288  -0.62811  -0.62210
 Alpha  occ. eigenvalues --   -0.61639  -0.61225  -0.60254  -0.59704  -0.59081
 Alpha  occ. eigenvalues --   -0.58901  -0.58047  -0.57822  -0.57438  -0.56986
 Alpha  occ. eigenvalues --   -0.56765  -0.56469  -0.56000  -0.55145  -0.54563
 Alpha  occ. eigenvalues --   -0.54180  -0.53604  -0.53503  -0.53025  -0.52315
 Alpha  occ. eigenvalues --   -0.52202  -0.51682  -0.51611  -0.50784  -0.50664
 Alpha  occ. eigenvalues --   -0.50520  -0.49807  -0.49565  -0.49024  -0.48627
 Alpha  occ. eigenvalues --   -0.48492  -0.48122  -0.47953  -0.47629  -0.47124
 Alpha  occ. eigenvalues --   -0.47025  -0.45786  -0.45442  -0.44141  -0.42841
 Alpha  occ. eigenvalues --   -0.40588  -0.40143  -0.39763  -0.38628  -0.37200
 Alpha  occ. eigenvalues --   -0.36927  -0.36775  -0.36466  -0.35592  -0.35256
 Alpha  occ. eigenvalues --   -0.34823  -0.34037  -0.33566  -0.33385  -0.33191
 Alpha  occ. eigenvalues --   -0.32563  -0.32420  -0.31882  -0.31758  -0.31600
 Alpha  occ. eigenvalues --   -0.31040  -0.27998  -0.26431  -0.25040
 Alpha virt. eigenvalues --    0.02733   0.04992   0.06020   0.07943   0.08309
 Alpha virt. eigenvalues --    0.08764   0.09619   0.10528   0.11138   0.11865
 Alpha virt. eigenvalues --    0.12141   0.12997   0.14497   0.14706   0.14897

 Mulliken charges:
               1
     1  N   -0.313725
     2  C    0.179542
     3  C    0.055903
     4  N   -0.253016
     5  C    0.132280
     6  H    0.031573
     7  N   -0.250370
     8  C    0.095797
     9  H    0.023579
    10  N   -0.289195
    11  C    0.233485
    12  C    0.082402
    13  N   -0.039262
    14  H    0.106837
    15  H    0.087775
    16  H    0.031253
    17  H    0.037776
    18  H    0.027811
    19  N   -0.290743
    20  C    0.225937
    21  C    0.225645
    22  N   -0.084949
    23  H    0.111174
    24  H    0.110995
    25  N   -0.278505
    26  C    0.185934
    27  N   -0.126628
    28  H    0.135260
    29  C    0.139222
    30  O   -0.324830
    31  C    0.025196
    32  N   -0.224636
    33  C    0.115309
    34  H    0.021922
    35  H    0.017243
    36  H    0.014659
    37  H   -0.001689
    38  H    0.040847
    39  H    0.059432
    40  H    0.076286
    41  H    0.032543
    42  C   -0.088153
    43  O   -0.261620
    44  C    0.183740
    45  H    0.132129
    46  N   -0.119684
    47  O   -0.341944
    48  C    0.333489
    49  H    0.044304
    50  C    0.156283
    51  C    0.087514
    52  N   -0.283948
    53  H    0.026130
    54  H    0.024797
    55  H   -0.036499
    56  H    0.117151
    57  H    0.121196
    58  N   -0.068157
    59  C    0.135441
    60  C    0.209943
    61  N   -0.301281
    62  H    0.027394
    63  C    0.192173
    64  N   -0.311647
    65  H    0.026287
    66  C    0.113058
    67  N   -0.249955
    68  C    0.031829
    69  C    0.202471
    70  N   -0.288510
 Sum of Mulliken charges =  -0.00000

 Dipole moment (field-independent basis, Debye):
    X=              3.9229    Y=             -5.2955    Z=             -5.3688  Tot=              8.5003
 Quadrupole moment (field-independent basis, Debye-Ang):
   XX=           -138.9097   YY=           -227.5831   ZZ=           -263.1548
   XY=            -19.4023   XZ=            -16.1932   YZ=             -5.7307

 Normal termination of Gaussian 16 at Thu Jan 18 08:54:00 2018.
