 Gaussian 16, Revision A.03,
 Gaussian 16:  EM64L-G16RevA.03 25-Dec-2016

 ---------------------------------------
 #p wb97xd/cc-pvdz sp scf=(maxcycles=20)
 ---------------------------------------

 ------------------
 Base pair stacking
 ------------------
 Symbolic Z-matrix:
 Charge =  0 Multiplicity = 1

                         Standard orientation:
 ---------------------------------------------------------------------
 Center     Atomic      Atomic             Coordinates (Angstroms)
 Number     Number       Type             X           Y           Z
 ---------------------------------------------------------------------
      1          7           0        4.538639   -0.515051   -1.907412
      2          6           0        5.810359    0.217126   -2.064485
      3          6           0        2.406310   -1.013601   -1.702641
      4          7           0        3.092543   -2.218552   -1.658813
      5          6           0        4.349719   -1.869968   -1.783937
      6          1           0        5.188383   -2.566755   -1.792721
      7          7           0        0.687474    0.601493   -1.699668
      8          6           0        1.651142    1.516391   -1.847631
      9          1           0        1.307790    2.548473   -1.904045
     10          7           0        2.969080    1.348587   -1.935945
     11          6           0        3.284312    0.045293   -1.855557
     12          6           0        1.037085   -0.701124   -1.621992
     13          7           0        0.076569   -1.615873   -1.474283
     14          1           0        0.289391   -2.591614   -1.412306
     15          1           0       -0.887971   -1.357176   -1.420569
     16          1           0        6.272604   -0.089652   -2.896595
     17          1           0        5.625700    1.197359   -2.129003
     18          1           0        6.398146    0.041652   -1.274740
     19          7           0        5.659216    0.444938    0.934242
     20          6           0        4.325140    0.768457    0.994341
     21          6           0        6.751927    1.384824    0.612834
     22          7           0        1.785097    3.120637    0.716525
     23          1           0        0.790191    3.146419    0.810016
     24          1           0        2.240703    3.978470    0.477255
     25          7           0        3.792647    1.989492    0.771655
     26          6           0        2.478019    1.987133    0.903421
     27          7           0        1.739482    0.875163    1.228357
     28          1           0        0.738309    0.966401    1.307688
     29          6           0        2.266277   -0.391261    1.461858
     30          8           0        1.511680   -1.328752    1.748985
     31          6           0        3.677546   -0.404480    1.323959
     32          7           0        4.586772   -1.443452    1.467913
     33          6           0        5.746407   -0.893996    1.228024
     34          1           0        6.700460   -1.421710    1.251989
     35          1           0        7.233449    1.071635   -0.204999
     36          1           0        6.369541    2.292668    0.445913
     37          1           0        7.391619    1.429565    1.379387
     38          1           0       -4.237718    1.935687    0.917257
     39          1           0       -4.141006    2.053381    2.672664
     40          1           0       -2.757669    2.516561    1.681084
     41          1           0       -4.148718   -2.724580    2.109131
     42          6           0       -3.461286   -1.883885    2.014892
     43          8           0       -1.514760   -3.239571    1.998544
     44          6           0       -2.053581   -2.133903    1.954094
     45          1           0       -0.273399   -1.137867    1.789243
     46          7           0       -1.273400   -1.001466    1.835184
     47          8           0       -0.937443    1.238154    1.666509
     48          6           0       -1.706805    0.299185    1.771854
     49          1           0       -4.975175   -0.382670    1.997636
     50          6           0       -3.914388   -0.626197    1.955521
     51          6           0       -3.587098    1.831147    1.772732
     52          7           0       -3.077047    0.458745    1.836645
     53          1           0       -6.771296    3.250383   -1.519786
     54          1           0       -5.407223    3.381117   -0.634177
     55          1           0       -6.827616    3.050982    0.099016
     56          1           0       -3.210633   -3.258511   -1.372979
     57          1           0       -4.911656   -3.137192   -1.416673
     58          7           0       -4.025590   -2.680449   -1.330135
     59          6           0       -3.935864   -1.359141   -1.164965
     60          6           0       -4.797402    0.845737   -0.924179
     61          7           0       -3.594104    1.431963   -0.810839
     62          1           0       -1.610553    0.916081   -0.805809
     63          6           0       -2.623304    0.524012   -0.888780
     64          7           0       -2.711137   -0.799818   -1.054188
     65          1           0       -8.021646    0.650369   -1.059167
     66          6           0       -6.950303    0.447855   -1.047114
     67          7           0       -6.415292   -0.741761   -1.174613
     68          6           0       -5.050649   -0.503718   -1.098422
     69          6           0       -6.278743    2.899830   -0.723226
     70          7           0       -6.029344    1.455057   -0.891857
 ---------------------------------------------------------------------

 SCF Done:  E(RwB97XD) =  -2048.72390230     A.U. after   15 cycles

 The electronic state is 1-A.
 Alpha  occ. eigenvalues --  -19.25045 -19.21226 -19.20738 -14.52910 -14.51481
 Alpha  occ. eigenvalues --  -14.49511 -14.49084 -14.48363 -14.47027 -14.46821
 Alpha  occ. eigenvalues --  -14.46710 -14.45604 -14.44634 -14.44562 -14.43055
 Alpha  occ. eigenvalues --  -14.41902 -14.41657 -14.41480 -14.41472 -14.41017
 Alpha  occ. eigenvalues --  -10.44622 -10.41210 -10.40258 -10.39319 -10.38404
 Alpha  occ. eigenvalues --  -10.38181 -10.37544 -10.36836 -10.36204 -10.36100
 Alpha  occ. eigenvalues --  -10.34743 -10.34403 -10.34350 -10.34017 -10.33854
 Alpha  occ. eigenvalues --  -10.33631 -10.33096 -10.32998 -10.31797 -10.31275
 Alpha  occ. eigenvalues --  -10.30141 -10.29019 -10.28534  -1.18652  -1.15610
 Alpha  occ. eigenvalues --   -1.13464  -1.12237  -1.11695  -1.11131  -1.09738
 Alpha  occ. eigenvalues --   -1.08702  -1.08339  -1.05727  -1.05260  -1.01626
 Alpha  occ. eigenvalues --   -1.01285  -1.01123  -0.99818  -0.98811  -0.97501
 Alpha  occ. eigenvalues --   -0.97326  -0.97055  -0.93409  -0.90081  -0.88006
 Alpha  occ. eigenvalues --   -0.86324  -0.85054  -0.84175  -0.83464  -0.82623
 Alpha  occ. eigenvalues --   -0.82389  -0.77998  -0.77357  -0.75358  -0.75036
 Alpha  occ. eigenvalues --   -0.73765  -0.73436  -0.72475  -0.71648  -0.70742
 Alpha  occ. eigenvalues --   -0.67610  -0.67188  -0.66889  -0.65692  -0.64734
 Alpha  occ. eigenvalues --   -0.64579  -0.63362  -0.63200  -0.62747  -0.61954
 Alpha  occ. eigenvalues --   -0.61251  -0.61127  -0.60781  -0.60009  -0.59759
 Alpha  occ. eigenvalues --   -0.59011  -0.58767  -0.58392  -0.57220  -0.56174
 Alpha  occ. eigenvalues --   -0.55855  -0.55591  -0.55215  -0.54518  -0.54319
 Alpha  occ. eigenvalues --   -0.54245  -0.53894  -0.53310  -0.53240  -0.53001
 Alpha  occ. eigenvalues --   -0.52564  -0.52200  -0.51233  -0.50916  -0.50522
 Alpha  occ. eigenvalues --   -0.50381  -0.49836  -0.49527  -0.49400  -0.49217
 Alpha  occ. eigenvalues --   -0.49032  -0.48694  -0.48046  -0.47514  -0.47401
 Alpha  occ. eigenvalues --   -0.47069  -0.46151  -0.45002  -0.44586  -0.42939
 Alpha  occ. eigenvalues --   -0.41145  -0.40726  -0.38844  -0.38360  -0.37998
 Alpha  occ. eigenvalues --   -0.37795  -0.37417  -0.37067  -0.35549  -0.35001
 Alpha  occ. eigenvalues --   -0.34520  -0.34179  -0.33909  -0.33645  -0.33257
 Alpha  occ. eigenvalues --   -0.33087  -0.32423  -0.32008  -0.31406  -0.31181
 Alpha  occ. eigenvalues --   -0.30810  -0.29884  -0.27234  -0.24892
 Alpha virt. eigenvalues --    0.03437   0.04309   0.06453   0.07270   0.08511
 Alpha virt. eigenvalues --    0.09012   0.09377   0.10115   0.10694   0.12559
 Alpha virt. eigenvalues --    0.13076   0.13299   0.14037   0.14607   0.14754

 Mulliken charges:
               1
     1  N   -0.294457
     2  C    0.193721
     3  C    0.053525
     4  N   -0.245110
     5  C    0.144985
     6  H    0.026333
     7  N   -0.279141
     8  C    0.118363
     9  H   -0.001920
    10  N   -0.265260
    11  C    0.219468
    12  C    0.074685
    13  N   -0.052990
    14  H    0.114057
    15  H    0.085596
    16  H    0.025867
    17  H    0.034122
    18  H    0.002210
    19  N   -0.299330
    20  C    0.222908
    21  C    0.176304
    22  N   -0.101221
    23  H    0.119880
    24  H    0.119637
    25  N   -0.271956
    26  C    0.194858
    27  N   -0.112173
    28  H    0.119554
    29  C    0.175782
    30  O   -0.317746
    31  C    0.002180
    32  N   -0.209704
    33  C    0.098080
    34  H    0.023049
    35  H    0.007229
    36  H    0.037696
    37  H    0.028939
    38  H    0.047186
    39  H    0.041276
    40  H    0.070320
    41  H    0.021105
    42  C   -0.100213
    43  O   -0.273288
    44  C    0.177304
    45  H    0.130029
    46  N   -0.116406
    47  O   -0.342714
    48  C    0.312404
    49  H    0.044698
    50  C    0.153039
    51  C    0.066589
    52  N   -0.266460
    53  H    0.037286
    54  H    0.046944
    55  H    0.029488
    56  H    0.124455
    57  H    0.120476
    58  N   -0.061349
    59  C    0.111356
    60  C    0.225214
    61  N   -0.285836
    62  H    0.035568
    63  C    0.165171
    64  N   -0.308163
    65  H    0.040008
    66  C    0.138575
    67  N   -0.255826
    68  C    0.038221
    69  C    0.179429
    70  N   -0.313907
 Sum of Mulliken charges =  -0.00000

 Dipole moment (field-independent basis, Debye):
    X=             -5.1392    Y=              7.7777    Z=             -2.0437  Tot=              9.5436
 Quadrupole moment (field-independent basis, Debye-Ang):
   XX=           -146.0998   YY=           -235.4921   ZZ=           -254.4920
   XY=             -4.2063   XZ=            -10.6690   YZ=             18.2939

 Normal termination of Gaussian 16 at Wed Jan 17 23:54:27 2018.
