 Gaussian 16, Revision A.03,
 Gaussian 16:  EM64L-G16RevA.03 25-Dec-2016

 ---------------------------------------
 #p wb97xd/cc-pvdz sp scf=(maxcycles=20)
 ---------------------------------------

 ------------------
 Base pair stacking
 ------------------
 Symbolic Z-matrix:
 Charge =  0 Multiplicity = 1

                         Standard orientation:
 ---------------------------------------------------------------------
 Center     Atomic      Atomic             Coordinates (Angstroms)
 Number     Number       Type             X           Y           Z
 ---------------------------------------------------------------------
      1          7           0        5.112877   -1.787573   -0.796692
      2          6           0        6.383346   -1.474469   -1.479251
      3          6           0        2.979272   -1.952679   -0.288997
      4          7           0        3.672241   -2.573506    0.740120
      5          6           0        4.929931   -2.449191    0.393071
      6          1           0        5.773238   -2.824976    0.973205
      7          7           0        1.250040   -1.090179   -1.641335
      8          6           0        2.211092   -0.675184   -2.473045
      9          1           0        1.862372   -0.152713   -3.362806
     10          7           0        3.532018   -0.808069   -2.371156
     11          6           0        3.853839   -1.463351   -1.243562
     12          6           0        1.606283   -1.746442   -0.515500
     13          7           0        0.648393   -2.161483    0.315975
     14          1           0        0.866103   -2.651195    1.160959
     15          1           0       -0.318975   -1.997152    0.122729
     16          1           0        6.869767   -2.323271   -1.686866
     17          1           0        6.193826   -0.983614   -2.329112
     18          1           0        6.950961   -0.903591   -0.886048
     19          7           0        5.104782    1.409019    0.518647
     20          6           0        3.769135    1.642535    0.295991
     21          6           0        6.212861    1.946977   -0.295880
     22          7           0        1.246428    3.137957   -1.564496
     23          1           0        0.247839    3.181681   -1.552254
     24          1           0        1.713900    3.644269   -2.289641
     25          7           0        3.248793    2.396596   -0.696330
     26          6           0        1.928871    2.432333   -0.650018
     27          7           0        1.174365    1.780207    0.294948
     28          1           0        0.170253    1.863726    0.253240
     29          6           0        1.688460    0.998837    1.325011
     30          8           0        0.919876    0.452761    2.126154
     31          6           0        3.105235    0.950939    1.288319
     32          7           0        4.005955    0.296414    2.117302
     33          6           0        5.176655    0.596187    1.623546
     34          1           0        6.128357    0.249824    2.027983
     35          1           0        6.739432    1.192117   -0.685372
     36          1           0        5.839561    2.507244   -1.034121
     37          1           0        6.808855    2.507664    0.277914
     38          1           0       -4.777168    2.152440   -0.883595
     39          1           0       -4.778421    3.396928    0.363760
     40          1           0       -3.342452    3.146636   -0.629570
     41          1           0       -4.750560   -0.573514    3.080633
     42          6           0       -4.059679    0.023727    2.485455
     43          8           0       -2.114074   -0.936014    3.444950
     44          6           0       -2.650558   -0.152133    2.662332
     45          1           0       -0.864841    0.556512    1.957111
     46          7           0       -1.865969    0.652201    1.860636
     47          8           0       -1.523113    2.241593    0.275237
     48          6           0       -2.296314    1.574542    0.939970
     49          1           0       -5.571591    1.087188    1.422914
     50          6           0       -4.509889    0.915568    1.595209
     51          6           0       -4.175088    2.659432   -0.144312
     52          7           0       -3.668174    1.686259    0.827141
     53          1           0       -6.228699    0.348749   -3.804733
     54          1           0       -4.889726    1.190682   -3.404208
     55          1           0       -6.326973    1.575938   -2.733392
     56          1           0       -2.629121   -3.083112    1.702619
     57          1           0       -4.329149   -3.095523    1.561703
     58          7           0       -3.448833   -2.745016    1.240127
     59          6           0       -3.372534   -1.865810    0.238955
     60          6           0       -4.255158   -0.453771   -1.460703
     61          7           0       -3.059344   -0.000294   -1.871553
     62          1           0       -1.073180   -0.233563   -1.422810
     63          6           0       -2.080660   -0.548193   -1.153993
     64          7           0       -2.155038   -1.428960   -0.150851
     65          1           0       -7.473238   -0.758731   -1.404690
     66          6           0       -6.401252   -0.834361   -1.220148
     67          7           0       -5.854953   -1.592390   -0.301102
     68          6           0       -4.494482   -1.360509   -0.442834
     69          6           0       -5.755277    0.824726   -3.063573
     70          7           0       -5.491640   -0.117700   -1.958887
 ---------------------------------------------------------------------

 SCF Done:  E(RwB97XD) =  -2048.74677676     A.U. after   15 cycles

 The electronic state is 1-A.
 Alpha  occ. eigenvalues --  -19.25409 -19.21679 -19.20674 -14.52426 -14.51964
 Alpha  occ. eigenvalues --  -14.49107 -14.49093 -14.47601 -14.47302 -14.46848
 Alpha  occ. eigenvalues --  -14.46662 -14.45195 -14.44204 -14.44111 -14.42627
 Alpha  occ. eigenvalues --  -14.41995 -14.41392 -14.41331 -14.41131 -14.40797
 Alpha  occ. eigenvalues --  -10.44971 -10.41214 -10.39743 -10.39594 -10.38308
 Alpha  occ. eigenvalues --  -10.37802 -10.37169 -10.36979 -10.35849 -10.35676
 Alpha  occ. eigenvalues --  -10.34837 -10.34506 -10.34214 -10.34061 -10.33708
 Alpha  occ. eigenvalues --  -10.33636 -10.33530 -10.32388 -10.31695 -10.31412
 Alpha  occ. eigenvalues --  -10.30422 -10.28823 -10.28267  -1.18984  -1.15096
 Alpha  occ. eigenvalues --   -1.13274  -1.12701  -1.11632  -1.10806  -1.09088
 Alpha  occ. eigenvalues --   -1.08834  -1.08585  -1.05484  -1.04523  -1.02055
 Alpha  occ. eigenvalues --   -1.00825  -1.00794  -0.99743  -0.98608  -0.97294
 Alpha  occ. eigenvalues --   -0.96806  -0.96629  -0.93144  -0.90512  -0.87489
 Alpha  occ. eigenvalues --   -0.85881  -0.84550  -0.84175  -0.83255  -0.83013
 Alpha  occ. eigenvalues --   -0.82606  -0.78394  -0.76808  -0.74801  -0.74668
 Alpha  occ. eigenvalues --   -0.73662  -0.73273  -0.72882  -0.71427  -0.70152
 Alpha  occ. eigenvalues --   -0.67475  -0.66689  -0.66554  -0.66076  -0.64470
 Alpha  occ. eigenvalues --   -0.63979  -0.63610  -0.63091  -0.62664  -0.61841
 Alpha  occ. eigenvalues --   -0.61055  -0.60717  -0.60242  -0.59379  -0.59058
 Alpha  occ. eigenvalues --   -0.58652  -0.58424  -0.58307  -0.56961  -0.55865
 Alpha  occ. eigenvalues --   -0.55783  -0.55676  -0.55189  -0.54515  -0.54175
 Alpha  occ. eigenvalues --   -0.54083  -0.53598  -0.53532  -0.53085  -0.52842
 Alpha  occ. eigenvalues --   -0.52652  -0.52216  -0.51952  -0.51003  -0.50682
 Alpha  occ. eigenvalues --   -0.50296  -0.49975  -0.49329  -0.49226  -0.49016
 Alpha  occ. eigenvalues --   -0.48904  -0.48381  -0.48125  -0.47783  -0.47346
 Alpha  occ. eigenvalues --   -0.47291  -0.46189  -0.44859  -0.44573  -0.43284
 Alpha  occ. eigenvalues --   -0.41374  -0.40541  -0.39067  -0.37775  -0.37497
 Alpha  occ. eigenvalues --   -0.37355  -0.37270  -0.37123  -0.35927  -0.34618
 Alpha  occ. eigenvalues --   -0.34361  -0.34027  -0.33719  -0.33600  -0.33042
 Alpha  occ. eigenvalues --   -0.32699  -0.32344  -0.31896  -0.31545  -0.31074
 Alpha  occ. eigenvalues --   -0.30753  -0.29642  -0.26943  -0.24730
 Alpha virt. eigenvalues --    0.03103   0.04588   0.06732   0.07121   0.08630
 Alpha virt. eigenvalues --    0.09352   0.09905   0.10629   0.11065   0.12067
 Alpha virt. eigenvalues --    0.12814   0.13688   0.14203   0.14423   0.15214

 Mulliken charges:
               1
     1  N   -0.302201
     2  C    0.182034
     3  C    0.052759
     4  N   -0.236301
     5  C    0.130608
     6  H    0.023936
     7  N   -0.289267
     8  C    0.130965
     9  H    0.009517
    10  N   -0.280414
    11  C    0.234228
    12  C    0.074668
    13  N   -0.042183
    14  H    0.115124
    15  H    0.085900
    16  H    0.027508
    17  H    0.034910
    18  H    0.017486
    19  N   -0.300922
    20  C    0.252117
    21  C    0.189009
    22  N   -0.123464
    23  H    0.118261
    24  H    0.119043
    25  N   -0.303170
    26  C    0.240586
    27  N   -0.137945
    28  H    0.121117
    29  C    0.180101
    30  O   -0.323250
    31  C   -0.011909
    32  N   -0.210705
    33  C    0.111107
    34  H    0.019377
    35  H   -0.000693
    36  H    0.035082
    37  H    0.026900
    38  H    0.033036
    39  H    0.056758
    40  H    0.078043
    41  H    0.020054
    42  C   -0.102662
    43  O   -0.276178
    44  C    0.165914
    45  H    0.127513
    46  N   -0.104372
    47  O   -0.348956
    48  C    0.330396
    49  H    0.044698
    50  C    0.171833
    51  C    0.052136
    52  N   -0.273069
    53  H    0.036700
    54  H    0.041734
    55  H    0.030147
    56  H    0.126472
    57  H    0.117108
    58  N   -0.038899
    59  C    0.073929
    60  C    0.219426
    61  N   -0.265140
    62  H    0.026430
    63  C    0.159029
    64  N   -0.296277
    65  H    0.036672
    66  C    0.126892
    67  N   -0.252541
    68  C    0.045350
    69  C    0.176326
    70  N   -0.308420
 Sum of Mulliken charges =  -0.00000

 Dipole moment (field-independent basis, Debye):
    X=             -4.8163    Y=              4.5094    Z=             -6.2576  Tot=              9.0934
 Quadrupole moment (field-independent basis, Debye-Ang):
   XX=           -146.5108   YY=           -227.4307   ZZ=           -258.8842
   XY=            -10.3114   XZ=              4.1456   YZ=            -10.7411

 Normal termination of Gaussian 16 at Thu Jan 18 12:26:10 2018.
