 Gaussian 16, Revision A.03,
 Gaussian 16:  EM64L-G16RevA.03 25-Dec-2016

 ---------------------------------------
 #p wb97xd/cc-pvdz sp scf=(maxcycles=20)
 ---------------------------------------

 ------------------
 Base pair stacking
 ------------------
 Symbolic Z-matrix:
 Charge =  0 Multiplicity = 1

                         Standard orientation:
 ---------------------------------------------------------------------
 Center     Atomic      Atomic             Coordinates (Angstroms)
 Number     Number       Type             X           Y           Z
 ---------------------------------------------------------------------
      1          7           0        4.790809   -2.287197   -0.268333
      2          6           0        6.039215   -2.391296   -1.048493
      3          6           0        2.678569   -2.081816    0.309228
      4          7           0        3.393896   -2.205659    1.491475
      5          6           0        4.637809   -2.324438    1.096193
      6          1           0        5.491829   -2.442978    1.763685
      7          7           0        0.923389   -1.830951   -1.246198
      8          6           0        1.860017   -1.894601   -2.198180
      9          1           0        1.490922   -1.814483   -3.219753
     10          7           0        3.177927   -2.041676   -2.078258
     11          6           0        3.526068   -2.130276   -0.783901
     12          6           0        1.305762   -1.923176    0.046230
     13          7           0        0.372275   -1.859852    0.997942
     14          1           0        0.609801   -1.923724    1.967844
     15          1           0       -0.595790   -1.746468    0.774027
     16          1           0        6.481087   -3.267917   -0.857556
     17          1           0        5.829643   -2.330225   -2.023923
     18          1           0        6.656435   -1.646589   -0.794649
     19          7           0        5.401827    1.467000    0.007376
     20          6           0        4.069785    1.689711   -0.245872
     21          6           0        6.510850    1.785075   -0.914357
     22          7           0        1.559564    2.834949   -2.355128
     23          1           0        0.562971    2.911526   -2.342041
     24          1           0        2.028938    3.161115   -3.176111
     25          7           0        3.554419    2.232165   -1.370229
     26          6           0        2.237007    2.318228   -1.318799
     27          7           0        1.480325    1.905223   -0.249050
     28          1           0        0.478423    2.009414   -0.297077
     29          6           0        1.989303    1.344288    0.918065
     30          8           0        1.219135    1.004831    1.824891
     31          6           0        3.403322    1.245367    0.877607
     32          7           0        4.298931    0.753584    1.817255
     33          6           0        5.469193    0.905053    1.258900
     34          1           0        6.417358    0.622681    1.717733
     35          1           0        7.009150    0.948681   -1.140098
     36          1           0        6.141223    2.187495   -1.750836
     37          1           0        7.132093    2.435718   -0.479015
     38          1           0       -4.477253    2.205327   -1.417603
     39          1           0       -4.422173    3.685394   -0.463138
     40          1           0       -3.010820    3.185351   -1.395552
     41          1           0       -4.461278    0.382337    3.034700
     42          6           0       -3.763847    0.817875    2.319071
     43          8           0       -1.830383    0.022935    3.440182
     44          6           0       -2.357506    0.639476    2.514545
     45          1           0       -0.564518    1.126221    1.656300
     46          7           0       -1.564004    1.230580    1.552148
     47          8           0       -1.202921    2.436184   -0.338181
     48          6           0       -1.983445    1.949786    0.461109
     49          1           0       -5.262631    1.678704    1.070702
     50          6           0       -4.203478    1.514353    1.264436
     51          6           0       -3.848661    2.838416   -0.809219
     52          7           0       -3.353287    2.077932    0.341448
     53          1           0       -6.585532   -1.108670   -3.649693
     54          1           0       -5.196688   -0.254466   -3.709183
     55          1           0       -6.584245    0.474652   -3.254059
     56          1           0       -2.870488   -1.862578    2.729624
     57          1           0       -4.574406   -1.840805    2.650252
     58          7           0       -3.696927   -1.725427    2.183427
     59          6           0       -3.632818   -1.402990    0.889932
     60          6           0       -4.537443   -0.869579   -1.245208
     61          7           0       -3.345152   -0.721183   -1.845907
     62          1           0       -1.350954   -0.837818   -1.387421
     63          6           0       -2.356414   -0.938019   -0.980871
     64          7           0       -2.418565   -1.261051    0.315029
     65          1           0       -7.758918   -0.931980   -0.979945
     66          6           0       -6.683302   -0.976421   -0.806704
     67          7           0       -6.125025   -1.263897    0.343676
     68          6           0       -4.764569   -1.199625    0.079555
     69          6           0       -6.059145   -0.375754   -3.218695
     70          7           0       -5.781611   -0.726731   -1.812354
 ---------------------------------------------------------------------

 SCF Done:  E(RwB97XD) =  -2048.73219318     A.U. after   15 cycles

 The electronic state is 1-A.
 Alpha  occ. eigenvalues --  -19.25488 -19.22311 -19.20930 -14.52277 -14.51971
 Alpha  occ. eigenvalues --  -14.49320 -14.48691 -14.47586 -14.47137 -14.47135
 Alpha  occ. eigenvalues --  -14.46907 -14.45157 -14.44196 -14.44071 -14.42287
 Alpha  occ. eigenvalues --  -14.42202 -14.41335 -14.41035 -14.40876 -14.40463
 Alpha  occ. eigenvalues --  -10.45054 -10.41516 -10.40204 -10.39480 -10.38559
 Alpha  occ. eigenvalues --  -10.37742 -10.36956 -10.36890 -10.35674 -10.35483
 Alpha  occ. eigenvalues --  -10.34864 -10.34759 -10.33800 -10.33786 -10.33778
 Alpha  occ. eigenvalues --  -10.33360 -10.33205 -10.32364 -10.31589 -10.31240
 Alpha  occ. eigenvalues --  -10.30539 -10.28517 -10.28477  -1.19070  -1.14991
 Alpha  occ. eigenvalues --   -1.13525  -1.13352  -1.11234  -1.11028  -1.09141
 Alpha  occ. eigenvalues --   -1.08917  -1.08768  -1.05133  -1.04540  -1.02324
 Alpha  occ. eigenvalues --   -1.00703  -1.00440  -1.00006  -0.98874  -0.97094
 Alpha  occ. eigenvalues --   -0.96828  -0.96573  -0.92788  -0.90642  -0.87396
 Alpha  occ. eigenvalues --   -0.85696  -0.84604  -0.83917  -0.83314  -0.83017
 Alpha  occ. eigenvalues --   -0.82368  -0.78512  -0.76753  -0.75029  -0.74674
 Alpha  occ. eigenvalues --   -0.73917  -0.73081  -0.72883  -0.71068  -0.70068
 Alpha  occ. eigenvalues --   -0.67715  -0.66704  -0.66299  -0.66052  -0.64683
 Alpha  occ. eigenvalues --   -0.63912  -0.63816  -0.62876  -0.62696  -0.62089
 Alpha  occ. eigenvalues --   -0.60495  -0.60380  -0.60095  -0.59306  -0.59117
 Alpha  occ. eigenvalues --   -0.58861  -0.58618  -0.57650  -0.56575  -0.56131
 Alpha  occ. eigenvalues --   -0.55935  -0.55458  -0.55032  -0.54745  -0.54332
 Alpha  occ. eigenvalues --   -0.53990  -0.53833  -0.53446  -0.53297  -0.52949
 Alpha  occ. eigenvalues --   -0.52558  -0.52097  -0.51788  -0.50845  -0.50582
 Alpha  occ. eigenvalues --   -0.50322  -0.49983  -0.49767  -0.49302  -0.49064
 Alpha  occ. eigenvalues --   -0.48888  -0.48744  -0.48281  -0.47549  -0.47310
 Alpha  occ. eigenvalues --   -0.46979  -0.46143  -0.44859  -0.44817  -0.42880
 Alpha  occ. eigenvalues --   -0.41102  -0.40489  -0.39238  -0.37948  -0.37619
 Alpha  occ. eigenvalues --   -0.37520  -0.37191  -0.36994  -0.35860  -0.34593
 Alpha  occ. eigenvalues --   -0.34292  -0.33947  -0.33741  -0.33612  -0.33328
 Alpha  occ. eigenvalues --   -0.33038  -0.32474  -0.31870  -0.31116  -0.30960
 Alpha  occ. eigenvalues --   -0.30438  -0.29716  -0.26676  -0.24894
 Alpha virt. eigenvalues --    0.03521   0.04265   0.06746   0.07599   0.08672
 Alpha virt. eigenvalues --    0.09174   0.09643   0.10693   0.11083   0.11794
 Alpha virt. eigenvalues --    0.12777   0.13412   0.14205   0.14459   0.14989

 Mulliken charges:
               1
     1  N   -0.306601
     2  C    0.183013
     3  C    0.037046
     4  N   -0.232410
     5  C    0.139570
     6  H    0.022903
     7  N   -0.295783
     8  C    0.130761
     9  H    0.010276
    10  N   -0.287029
    11  C    0.242742
    12  C    0.081238
    13  N   -0.045464
    14  H    0.119250
    15  H    0.087669
    16  H    0.026463
    17  H    0.034527
    18  H    0.012945
    19  N   -0.307237
    20  C    0.259546
    21  C    0.181709
    22  N   -0.124125
    23  H    0.118113
    24  H    0.119788
    25  N   -0.311873
    26  C    0.251426
    27  N   -0.147472
    28  H    0.120874
    29  C    0.191332
    30  O   -0.322605
    31  C   -0.016438
    32  N   -0.209195
    33  C    0.108718
    34  H    0.020203
    35  H    0.017738
    36  H    0.033052
    37  H    0.027039
    38  H    0.052023
    39  H    0.056924
    40  H    0.075157
    41  H    0.013151
    42  C   -0.103083
    43  O   -0.287425
    44  C    0.179310
    45  H    0.127518
    46  N   -0.107409
    47  O   -0.353065
    48  C    0.339132
    49  H    0.044402
    50  C    0.173965
    51  C    0.046730
    52  N   -0.278323
    53  H    0.035425
    54  H    0.041862
    55  H    0.027063
    56  H    0.127082
    57  H    0.114989
    58  N   -0.037669
    59  C    0.063665
    60  C    0.234248
    61  N   -0.267835
    62  H    0.031831
    63  C    0.161934
    64  N   -0.299605
    65  H    0.037198
    66  C    0.132305
    67  N   -0.257144
    68  C    0.037225
    69  C    0.178337
    70  N   -0.311623
 Sum of Mulliken charges =  -0.00000

 Dipole moment (field-independent basis, Debye):
    X=             -4.8027    Y=              3.8368    Z=             -6.8982  Tot=              9.2398
 Quadrupole moment (field-independent basis, Debye-Ang):
   XX=           -146.1485   YY=           -235.9683   ZZ=           -247.7712
   XY=             -9.6969   XZ=              4.1625   YZ=            -15.7640

 Normal termination of Gaussian 16 at Thu Jan 18 08:40:52 2018.
