 Gaussian 16, Revision A.03,
 Gaussian 16:  EM64L-G16RevA.03 25-Dec-2016

 ---------------------------------------
 #p wb97xd/cc-pvdz sp scf=(maxcycles=20)
 ---------------------------------------

 ------------------
 Base pair stacking
 ------------------
 Symbolic Z-matrix:
 Charge =  0 Multiplicity = 1

                         Standard orientation:
 ---------------------------------------------------------------------
 Center     Atomic      Atomic             Coordinates (Angstroms)
 Number     Number       Type             X           Y           Z
 ---------------------------------------------------------------------
      1          7           0        4.794730   -2.196996   -0.402319
      2          6           0        6.049070   -2.204763   -1.179861
      3          6           0        2.677098   -2.072675    0.178612
      4          7           0        3.385631   -2.321085    1.345235
      5          6           0        4.633068   -2.386045    0.948553
      6          1           0        5.483628   -2.571223    1.605204
      7          7           0        0.930173   -1.664604   -1.352624
      8          6           0        1.873546   -1.615532   -2.298779
      9          1           0        1.510534   -1.425728   -3.307968
     10          7           0        3.191822   -1.765013   -2.186009
     11          6           0        3.532155   -1.993570   -0.906810
     12          6           0        1.304787   -1.896284   -0.075484
     13          7           0        0.364553   -1.945636    0.870404
     14          1           0        0.596209   -2.114572    1.829047
     15          1           0       -0.602926   -1.815489    0.653162
     16          1           0        6.496957   -3.093766   -1.083687
     17          1           0        5.845427   -2.037787   -2.144112
     18          1           0        6.658398   -1.488056   -0.840657
     19          7           0        5.402316    1.416084    0.099089
     20          6           0        4.070001    1.643941   -0.148013
     21          6           0        6.510714    1.757786   -0.814917
     22          7           0        1.557996    2.839089   -2.227250
     23          1           0        0.561351    2.914526   -2.211874
     24          1           0        2.026771    3.185874   -3.040092
     25          7           0        3.553739    2.213679   -1.258394
     26          6           0        2.236286    2.297388   -1.204318
     27          7           0        1.480372    1.857405   -0.144832
     28          1           0        0.478366    1.961953   -0.189859
     29          6           0        1.990281    1.268128    1.007829
     30          8           0        1.220754    0.905692    1.906269
     31          6           0        3.404359    1.171361    0.964365
     32          7           0        4.300753    0.657168    1.891176
     33          6           0        5.470657    0.823357    1.336289
     34          1           0        6.419236    0.530456    1.787600
     35          1           0        7.009575    0.927639   -1.061504
     36          1           0        6.140415    2.180516   -1.641016
     37          1           0        7.131630    2.397934   -0.363834
     38          1           0       -4.477930    2.181626   -1.303199
     39          1           0       -4.423613    3.637631   -0.312377
     40          1           0       -3.012254    3.161966   -1.257457
     41          1           0       -4.458644    0.248888    3.102560
     42          6           0       -3.761868    0.702586    2.397658
     43          8           0       -1.827311   -0.118355    3.497965
     44          6           0       -2.355301    0.520521    2.588091
     45          1           0       -0.563056    1.029804    1.741448
     46          7           0       -1.562677    1.135919    1.640321
     47          8           0       -1.203333    2.388278   -0.219700
     48          6           0       -1.983134    1.881598    0.567603
     49          1           0       -5.261849    1.592892    1.171604
     50          6           0       -4.202493    1.424627    1.360785
     51          6           0       -3.849581    2.799948   -0.679567
     52          7           0       -3.353130    2.011579    0.451703
     53          1           0       -6.568501   -0.737665   -3.717549
     54          1           0       -5.186455    0.128342   -3.671904
     55          1           0       -6.583004    0.792169   -3.149358
     56          1           0       -2.889410   -2.164287    2.566914
     57          1           0       -4.592892   -2.146739    2.477727
     58          7           0       -3.713346   -1.973826    2.033062
     59          6           0       -3.643410   -1.509862    0.783654
     60          6           0       -4.538364   -0.750470   -1.286152
     61          7           0       -3.343413   -0.527569   -1.857854
     62          1           0       -1.351385   -0.679136   -1.400192
     63          6           0       -2.358619   -0.831256   -1.014721
     64          7           0       -2.426617   -1.296072    0.237035
     65          1           0       -7.760879   -0.866122   -1.053466
     66          6           0       -6.686096   -0.921334   -0.878180
     67          7           0       -6.133037   -1.330025    0.237516
     68          6           0       -4.771452   -1.226674   -0.007711
     69          6           0       -6.051085   -0.052951   -3.204282
     70          7           0       -5.779904   -0.555171   -1.843302
 ---------------------------------------------------------------------

 SCF Done:  E(RwB97XD) =  -2048.74157853     A.U. after   15 cycles

 The electronic state is 1-A.
 Alpha  occ. eigenvalues --  -19.25442 -19.22065 -19.20867 -14.52360 -14.51943
 Alpha  occ. eigenvalues --  -14.49311 -14.48790 -14.47438 -14.47434 -14.47064
 Alpha  occ. eigenvalues --  -14.46840 -14.45210 -14.44278 -14.44155 -14.42352
 Alpha  occ. eigenvalues --  -14.42219 -14.41334 -14.41139 -14.40997 -14.40579
 Alpha  occ. eigenvalues --  -10.45004 -10.41449 -10.39995 -10.39610 -10.38503
 Alpha  occ. eigenvalues --  -10.37797 -10.37034 -10.36984 -10.35759 -10.35603
 Alpha  occ. eigenvalues --  -10.34792 -10.34723 -10.33902 -10.33870 -10.33793
 Alpha  occ. eigenvalues --  -10.33463 -10.33310 -10.32442 -10.31600 -10.31341
 Alpha  occ. eigenvalues --  -10.30444 -10.28581 -10.28481  -1.19008  -1.15064
 Alpha  occ. eigenvalues --   -1.13470  -1.13044  -1.11332  -1.11003  -1.09185
 Alpha  occ. eigenvalues --   -1.08865  -1.08724  -1.05246  -1.04593  -1.02172
 Alpha  occ. eigenvalues --   -1.00772  -1.00560  -0.99940  -0.98823  -0.97097
 Alpha  occ. eigenvalues --   -0.96905  -0.96652  -0.92906  -0.90561  -0.87471
 Alpha  occ. eigenvalues --   -0.85778  -0.84590  -0.84012  -0.83245  -0.83001
 Alpha  occ. eigenvalues --   -0.82465  -0.78427  -0.76822  -0.74990  -0.74721
 Alpha  occ. eigenvalues --   -0.73858  -0.72998  -0.72962  -0.71176  -0.70146
 Alpha  occ. eigenvalues --   -0.67661  -0.66648  -0.66409  -0.66065  -0.64634
 Alpha  occ. eigenvalues --   -0.63946  -0.63728  -0.62840  -0.62802  -0.62034
 Alpha  occ. eigenvalues --   -0.60555  -0.60488  -0.60170  -0.59368  -0.59082
 Alpha  occ. eigenvalues --   -0.58838  -0.58560  -0.57847  -0.56684  -0.56035
 Alpha  occ. eigenvalues --   -0.55864  -0.55583  -0.55097  -0.54601  -0.54279
 Alpha  occ. eigenvalues --   -0.54022  -0.53715  -0.53506  -0.53255  -0.52961
 Alpha  occ. eigenvalues --   -0.52626  -0.52019  -0.51890  -0.50874  -0.50527
 Alpha  occ. eigenvalues --   -0.50418  -0.49931  -0.49701  -0.49206  -0.49012
 Alpha  occ. eigenvalues --   -0.48987  -0.48624  -0.48300  -0.47499  -0.47400
 Alpha  occ. eigenvalues --   -0.47086  -0.46124  -0.44894  -0.44849  -0.43017
 Alpha  occ. eigenvalues --   -0.41196  -0.40557  -0.39171  -0.37909  -0.37587
 Alpha  occ. eigenvalues --   -0.37474  -0.37292  -0.37093  -0.35853  -0.34565
 Alpha  occ. eigenvalues --   -0.34362  -0.33988  -0.33754  -0.33467  -0.33330
 Alpha  occ. eigenvalues --   -0.32964  -0.32468  -0.31936  -0.31277  -0.31024
 Alpha  occ. eigenvalues --   -0.30552  -0.29776  -0.26734  -0.24912
 Alpha virt. eigenvalues --    0.03552   0.04220   0.06683   0.07522   0.08639
 Alpha virt. eigenvalues --    0.09220   0.09691   0.10629   0.11020   0.11859
 Alpha virt. eigenvalues --    0.12863   0.13495   0.14213   0.14447   0.14972

 Mulliken charges:
               1
     1  N   -0.305126
     2  C    0.184784
     3  C    0.040055
     4  N   -0.234208
     5  C    0.139857
     6  H    0.023510
     7  N   -0.294478
     8  C    0.130377
     9  H    0.010014
    10  N   -0.285743
    11  C    0.241664
    12  C    0.079028
    13  N   -0.045511
    14  H    0.118242
    15  H    0.087187
    16  H    0.026796
    17  H    0.034629
    18  H    0.010512
    19  N   -0.305804
    20  C    0.258304
    21  C    0.183211
    22  N   -0.124020
    23  H    0.118207
    24  H    0.119707
    25  N   -0.310520
    26  C    0.250416
    27  N   -0.145344
    28  H    0.121234
    29  C    0.188266
    30  O   -0.321764
    31  C   -0.015168
    32  N   -0.209726
    33  C    0.107389
    34  H    0.020330
    35  H    0.013859
    36  H    0.033701
    37  H    0.027341
    38  H    0.049436
    39  H    0.056296
    40  H    0.075571
    41  H    0.014027
    42  C   -0.103389
    43  O   -0.282924
    44  C    0.176010
    45  H    0.127651
    46  N   -0.108250
    47  O   -0.351900
    48  C    0.335192
    49  H    0.044700
    50  C    0.172393
    51  C    0.047653
    52  N   -0.275810
    53  H    0.036242
    54  H    0.041736
    55  H    0.027656
    56  H    0.126856
    57  H    0.116168
    58  N   -0.039390
    59  C    0.067882
    60  C    0.229961
    61  N   -0.267216
    62  H    0.031630
    63  C    0.161970
    64  N   -0.300470
    65  H    0.037458
    66  C    0.132355
    67  N   -0.256400
    68  C    0.039370
    69  C    0.177474
    70  N   -0.311150
 Sum of Mulliken charges =  -0.00000

 Dipole moment (field-independent basis, Debye):
    X=             -4.8466    Y=              3.8172    Z=             -6.8606  Tot=              9.2265
 Quadrupole moment (field-independent basis, Debye-Ang):
   XX=           -146.1954   YY=           -234.1683   ZZ=           -250.4244
   XY=            -10.1494   XZ=              3.3964   YZ=            -15.6048

 Normal termination of Gaussian 16 at Thu Jan 18 04:03:40 2018.
