 Gaussian 16, Revision A.03,
 Gaussian 16:  EM64L-G16RevA.03 25-Dec-2016

 ---------------------------------------
 #p wb97xd/cc-pvdz sp scf=(maxcycles=20)
 ---------------------------------------

 ------------------
 Base pair stacking
 ------------------
 Symbolic Z-matrix:
 Charge =  0 Multiplicity = 1

                         Standard orientation:
 ---------------------------------------------------------------------
 Center     Atomic      Atomic             Coordinates (Angstroms)
 Number     Number       Type             X           Y           Z
 ---------------------------------------------------------------------
      1          7           0        4.813688   -1.543319   -1.304968
      2          6           0        6.082553   -1.059662   -1.882942
      3          6           0        2.682777   -1.821124   -0.836610
      4          7           0        3.374828   -2.730164   -0.049576
      5          6           0        4.630930   -2.526420   -0.363245
      6          1           0        5.473144   -3.070070    0.065770
      7          7           0        0.955804   -0.570125   -1.844337
      8          6           0        1.915656    0.059679   -2.529613
      9          1           0        1.567402    0.828368   -3.218164
     10          7           0        3.234895   -0.116654   -2.492216
     11          6           0        3.556267   -1.082524   -1.615724
     12          6           0        1.311552   -1.536902   -0.970349
     13          7           0        0.354846   -2.166734   -0.285350
     14          1           0        0.572250   -2.888917    0.372221
     15          1           0       -0.611285   -1.938308   -0.406054
     16          1           0        6.551078   -1.815124   -2.341133
     17          1           0        5.893309   -0.335338   -2.545272
     18          1           0        6.666719   -0.699564   -1.155561
     19          7           0        5.394193    1.066833    0.710366
     20          6           0        4.060224    1.367413    0.575346
     21          6           0        6.498231    1.746428    0.003297
     22          7           0        1.536848    3.273768   -0.859973
     23          1           0        0.539993    3.332352   -0.814424
     24          1           0        2.001605    3.915159   -1.470995
     25          7           0        3.538132    2.326381   -0.219547
     26          6           0        2.220573    2.375803   -0.134654
     27          7           0        1.469858    1.550168    0.666770
     28          1           0        0.467332    1.659294    0.668282
     29          6           0        1.985814    0.556540    1.492818
     30          8           0        1.220669   -0.134389    2.176842
     31          6           0        3.400088    0.491393    1.412360
     32          7           0        4.301476   -0.342377    2.059842
     33          6           0        5.468890    0.034624    1.613480
     34          1           0        6.420046   -0.408043    1.911154
     35          1           0        6.999288    1.083129   -0.551482
     36          1           0        6.123601    2.458906   -0.588567
     37          1           0        7.118326    2.159763    0.669207
     38          1           0       -4.493476    2.276914   -0.259962
     39          1           0       -4.441125    3.224513    1.224615
     40          1           0       -3.031244    3.166653    0.166190
     41          1           0       -4.452226   -1.236318    3.026700
     42          6           0       -3.759493   -0.538172    2.556646
     43          8           0       -1.818232   -1.717364    3.240863
     44          6           0       -2.351633   -0.773970    2.657510
     45          1           0       -0.564140    0.036278    2.077291
     46          7           0       -1.564468    0.168982    2.027863
     47          8           0       -1.216005    2.054951    0.811766
     48          6           0       -1.991280    1.275240    1.336801
     49          1           0       -5.266861    0.756387    1.783492
     50          6           0       -4.206258    0.532133    1.889228
     51          6           0       -3.865279    2.602177    0.555904
     52          7           0       -3.362124    1.433970    1.283821
     53          1           0       -6.517198    1.555954   -3.366327
     54          1           0       -5.158854    2.220950   -2.754125
     55          1           0       -6.581722    2.409822   -1.977029
     56          1           0       -2.924524   -3.411770    0.814578
     57          1           0       -4.625863   -3.357006    0.702533
     58          7           0       -3.742624   -2.939451    0.486290
     59          6           0       -3.660529   -1.803246   -0.209038
     60          6           0       -4.534574    0.063429   -1.397849
     61          7           0       -3.334921    0.601260   -1.673535
     62          1           0       -1.348855    0.216186   -1.345138
     63          6           0       -2.359108   -0.149557   -1.166620
     64          7           0       -2.439300   -1.287867   -0.469911
     65          1           0       -7.756968   -0.197670   -1.385587
     66          6           0       -6.684698   -0.340352   -1.248420
     67          7           0       -6.142957   -1.345461   -0.605029
     68          6           0       -4.779989   -1.101665   -0.692272
     69          6           0       -6.027417    1.782769   -2.524505
     70          7           0       -5.769746    0.550463   -1.754409
 ---------------------------------------------------------------------

 SCF Done:  E(RwB97XD) =  -2048.74693682     A.U. after   15 cycles

 The electronic state is 1-A.
 Alpha  occ. eigenvalues --  -19.25256 -19.21514 -19.20726 -14.52645 -14.51740
 Alpha  occ. eigenvalues --  -14.49284 -14.49079 -14.48040 -14.47132 -14.46836
 Alpha  occ. eigenvalues --  -14.46690 -14.45401 -14.44452 -14.44417 -14.42775
 Alpha  occ. eigenvalues --  -14.41976 -14.41402 -14.41358 -14.41346 -14.40886
 Alpha  occ. eigenvalues --  -10.44810 -10.41226 -10.39968 -10.39557 -10.38356
 Alpha  occ. eigenvalues --  -10.37986 -10.37259 -10.37035 -10.35987 -10.35927
 Alpha  occ. eigenvalues --  -10.34607 -10.34344 -10.34245 -10.34191 -10.33777
 Alpha  occ. eigenvalues --  -10.33744 -10.33580 -10.32694 -10.31600 -10.31574
 Alpha  occ. eigenvalues --  -10.30256 -10.28865 -10.28387  -1.18825  -1.15331
 Alpha  occ. eigenvalues --   -1.13337  -1.12496  -1.11631  -1.10935  -1.09414
 Alpha  occ. eigenvalues --   -1.08688  -1.08550  -1.05566  -1.04861  -1.01846
 Alpha  occ. eigenvalues --   -1.01040  -1.00904  -0.99762  -0.98677  -0.97332
 Alpha  occ. eigenvalues --   -0.96982  -0.96883  -0.93234  -0.90323  -0.87735
 Alpha  occ. eigenvalues --   -0.86083  -0.84714  -0.84167  -0.83210  -0.82883
 Alpha  occ. eigenvalues --   -0.82621  -0.78201  -0.77093  -0.74971  -0.74890
 Alpha  occ. eigenvalues --   -0.73703  -0.73306  -0.72695  -0.71483  -0.70438
 Alpha  occ. eigenvalues --   -0.67526  -0.66846  -0.66737  -0.65904  -0.64559
 Alpha  occ. eigenvalues --   -0.64273  -0.63430  -0.63163  -0.62688  -0.61886
 Alpha  occ. eigenvalues --   -0.61037  -0.60835  -0.60484  -0.59651  -0.58934
 Alpha  occ. eigenvalues --   -0.58868  -0.58769  -0.58389  -0.57020  -0.55963
 Alpha  occ. eigenvalues --   -0.55699  -0.55427  -0.55277  -0.54456  -0.54332
 Alpha  occ. eigenvalues --   -0.54087  -0.53773  -0.53411  -0.53103  -0.52967
 Alpha  occ. eigenvalues --   -0.52864  -0.52201  -0.51665  -0.50840  -0.50634
 Alpha  occ. eigenvalues --   -0.50294  -0.50177  -0.49317  -0.49283  -0.49049
 Alpha  occ. eigenvalues --   -0.48805  -0.48528  -0.48251  -0.47719  -0.47389
 Alpha  occ. eigenvalues --   -0.47206  -0.46131  -0.44950  -0.44843  -0.43062
 Alpha  occ. eigenvalues --   -0.41384  -0.40760  -0.38961  -0.37888  -0.37701
 Alpha  occ. eigenvalues --   -0.37568  -0.37377  -0.37148  -0.35811  -0.34674
 Alpha  occ. eigenvalues --   -0.34506  -0.34157  -0.33893  -0.33754  -0.33034
 Alpha  occ. eigenvalues --   -0.32693  -0.32532  -0.31968  -0.31475  -0.31055
 Alpha  occ. eigenvalues --   -0.30789  -0.29852  -0.27068  -0.24789
 Alpha virt. eigenvalues --    0.03633   0.04086   0.06477   0.07138   0.08391
 Alpha virt. eigenvalues --    0.09370   0.09789   0.10398   0.11064   0.12293
 Alpha virt. eigenvalues --    0.12916   0.13513   0.14113   0.14760   0.14981

 Mulliken charges:
               1
     1  N   -0.299187
     2  C    0.187585
     3  C    0.053031
     4  N   -0.239851
     5  C    0.139764
     6  H    0.025023
     7  N   -0.286505
     8  C    0.124169
     9  H    0.006584
    10  N   -0.274458
    11  C    0.231242
    12  C    0.071341
    13  N   -0.046058
    14  H    0.115223
    15  H    0.085876
    16  H    0.027741
    17  H    0.035098
    18  H    0.007960
    19  N   -0.299821
    20  C    0.245599
    21  C    0.186114
    22  N   -0.117813
    23  H    0.118796
    24  H    0.119515
    25  N   -0.294242
    26  C    0.228095
    27  N   -0.130809
    28  H    0.121153
    29  C    0.178893
    30  O   -0.320011
    31  C   -0.007609
    32  N   -0.210016
    33  C    0.103172
    34  H    0.020753
    35  H   -0.000692
    36  H    0.036078
    37  H    0.028296
    38  H    0.034859
    39  H    0.052748
    40  H    0.076008
    41  H    0.019040
    42  C   -0.105467
    43  O   -0.275261
    44  C    0.172529
    45  H    0.128179
    46  N   -0.109682
    47  O   -0.347674
    48  C    0.321493
    49  H    0.044559
    50  C    0.165538
    51  C    0.056913
    52  N   -0.269311
    53  H    0.037845
    54  H    0.043496
    55  H    0.029788
    56  H    0.126451
    57  H    0.118659
    58  N   -0.050807
    59  C    0.093916
    60  C    0.217014
    61  N   -0.267083
    62  H    0.028331
    63  C    0.166070
    64  N   -0.304788
    65  H    0.038324
    66  C    0.133273
    67  N   -0.254747
    68  C    0.043516
    69  C    0.177367
    70  N   -0.311127
 Sum of Mulliken charges =  -0.00000

 Dipole moment (field-independent basis, Debye):
    X=             -4.9584    Y=              5.7974    Z=             -5.2786  Tot=              9.2768
 Quadrupole moment (field-independent basis, Debye-Ang):
   XX=           -146.5235   YY=           -224.0999   ZZ=           -263.3998
   XY=            -10.4730   XZ=             -2.6068   YZ=             -1.2957

 Normal termination of Gaussian 16 at Wed Jan 17 19:44:38 2018.
