 Gaussian 16, Revision A.03,
 Gaussian 16:  EM64L-G16RevA.03 25-Dec-2016

 ---------------------------------------
 #p wb97xd/cc-pvdz sp scf=(maxcycles=20)
 ---------------------------------------

 ------------------
 Base pair stacking
 ------------------
 Symbolic Z-matrix:
 Charge =  0 Multiplicity = 1

                         Standard orientation:
 ---------------------------------------------------------------------
 Center     Atomic      Atomic             Coordinates (Angstroms)
 Number     Number       Type             X           Y           Z
 ---------------------------------------------------------------------
      1          7           0        4.191042   -2.182965   -0.883564
      2          6           0        5.432874   -2.080952   -1.674418
      3          6           0        2.089083   -2.096750   -0.241937
      4          7           0        2.802490   -2.606256    0.833331
      5          6           0        4.040286   -2.637802    0.403740
      6          1           0        4.891170   -2.986746    0.989546
      7          7           0        0.340153   -1.315600   -1.618155
      8          6           0        1.271422   -1.111249   -2.555459
      9          1           0        0.902857   -0.704892   -3.496355
     10          7           0        2.583462   -1.332459   -2.505236
     11          6           0        2.931485   -1.831071   -1.307447
     12          6           0        0.722247   -1.818185   -0.423797
     13          7           0       -0.205910   -2.022868    0.513117
     14          1           0        0.031640   -2.393314    1.411768
     15          1           0       -1.169812   -1.813028    0.348805
     16          1           0        5.843260   -2.987776   -1.771528
     17          1           0        5.223144   -1.712396   -2.579573
     18          1           0        6.077252   -1.473359   -1.210101
     19          7           0        5.962051    1.012698    0.156329
     20          6           0        4.636141    1.327660   -0.019219
     21          6           0        7.060955    1.411645   -0.745858
     22          7           0        2.130237    2.873978   -1.860718
     23          1           0        1.139116    2.991369   -1.804566
     24          1           0        2.593411    3.294363   -2.641392
     25          7           0        4.118592    2.048717   -1.037202
     26          6           0        2.808584    2.183979   -0.931382
     27          7           0        2.060756    1.654420    0.092250
     28          1           0        1.064103    1.808161    0.092070
     29          6           0        2.572140    0.909214    1.150093
     30          8           0        1.810193    0.476456    2.023517
     31          6           0        3.978290    0.755418    1.050151
     32          7           0        4.873190    0.094496    1.880364
     33          6           0        6.034603    0.273623    1.311814
     34          1           0        6.979637   -0.113199    1.694637
     35          1           0        7.512609    0.595607   -1.104869
     36          1           0        6.689620    1.946347   -1.503807
     37          1           0        7.723672    1.964858   -0.242305
     38          1           0       -3.903694    2.380277   -0.827952
     39          1           0       -3.753178    3.703273    0.326038
     40          1           0       -2.391882    3.281777   -0.713477
     41          1           0       -3.860494   -0.065073    3.315112
     42          6           0       -3.161644    0.438259    2.646909
     43          8           0       -1.240292   -0.593952    3.579677
     44          6           0       -1.760904    0.172181    2.769249
     45          1           0        0.030663    0.698797    1.931822
     46          7           0       -0.965031    0.860705    1.876075
     47          8           0       -0.595350    2.309518    0.166846
     48          6           0       -1.377463    1.747476    0.913226
     49          1           0       -4.649090    1.534937    1.583613
     50          6           0       -3.594396    1.298185    1.717469
     51          6           0       -3.230018    2.890835   -0.155966
     52          7           0       -2.742209    1.951333    0.857506
     53          1           0       -7.143884    0.370217   -3.575076
     54          1           0       -5.725231    1.153424   -3.385056
     55          1           0       -7.084367    1.750838   -2.706879
     56          1           0       -3.442213   -2.455510    2.202334
     57          1           0       -5.144422   -2.352975    2.156961
     58          7           0       -4.264544   -2.127562    1.737181
     59          6           0       -4.192145   -1.420982    0.607273
     60          6           0       -5.082348   -0.219623   -1.243658
     61          7           0       -3.887014    0.068231   -1.784713
     62          1           0       -1.897176   -0.252109   -1.412516
     63          6           0       -2.904551   -0.440053   -1.043545
     64          7           0       -2.975021   -1.148025    0.088438
     65          1           0       -8.303289   -0.253359   -0.966913
     66          6           0       -7.229542   -0.385555   -0.830795
     67          7           0       -6.679075   -1.035285    0.165459
     68          6           0       -5.317866   -0.937698   -0.084167
     69          6           0       -6.590252    0.914530   -2.944834
     70          7           0       -6.321985    0.134268   -1.721222
 ---------------------------------------------------------------------

 SCF Done:  E(RwB97XD) =  -2048.75046666     A.U. after   15 cycles

 The electronic state is 1-A.
 Alpha  occ. eigenvalues --  -19.25215 -19.21704 -19.20836 -14.52522 -14.51680
 Alpha  occ. eigenvalues --  -14.49708 -14.48670 -14.48193 -14.47256 -14.47110
 Alpha  occ. eigenvalues --  -14.46881 -14.45371 -14.44716 -14.44570 -14.42750
 Alpha  occ. eigenvalues --  -14.42372 -14.41793 -14.41328 -14.40970 -14.40818
 Alpha  occ. eigenvalues --  -10.44800 -10.41589 -10.40084 -10.39667 -10.38581
 Alpha  occ. eigenvalues --  -10.37975 -10.37441 -10.36783 -10.36193 -10.35848
 Alpha  occ. eigenvalues --  -10.35044 -10.34188 -10.34100 -10.33943 -10.33832
 Alpha  occ. eigenvalues --  -10.33540 -10.33485 -10.32839 -10.31889 -10.31031
 Alpha  occ. eigenvalues --  -10.30191 -10.28747 -10.28714  -1.18763  -1.15293
 Alpha  occ. eigenvalues --   -1.13605  -1.12638  -1.11310  -1.11254  -1.09586
 Alpha  occ. eigenvalues --   -1.08874  -1.08503  -1.05447  -1.05053  -1.01880
 Alpha  occ. eigenvalues --   -1.00998  -1.00800  -1.00017  -0.99023  -0.97343
 Alpha  occ. eigenvalues --   -0.97187  -0.96837  -0.93129  -0.90247  -0.87779
 Alpha  occ. eigenvalues --   -0.85965  -0.84855  -0.83998  -0.83303  -0.82732
 Alpha  occ. eigenvalues --   -0.82416  -0.78169  -0.77152  -0.75193  -0.75052
 Alpha  occ. eigenvalues --   -0.73973  -0.73069  -0.72706  -0.71303  -0.70523
 Alpha  occ. eigenvalues --   -0.67791  -0.66947  -0.66493  -0.65913  -0.64837
 Alpha  occ. eigenvalues --   -0.64324  -0.63429  -0.62941  -0.62922  -0.62155
 Alpha  occ. eigenvalues --   -0.60680  -0.60619  -0.60126  -0.59660  -0.58936
 Alpha  occ. eigenvalues --   -0.58877  -0.58569  -0.58167  -0.56736  -0.55894
 Alpha  occ. eigenvalues --   -0.55814  -0.55783  -0.55317  -0.54622  -0.54354
 Alpha  occ. eigenvalues --   -0.54100  -0.53729  -0.53497  -0.53247  -0.52918
 Alpha  occ. eigenvalues --   -0.52672  -0.51785  -0.51649  -0.50826  -0.50667
 Alpha  occ. eigenvalues --   -0.50466  -0.50119  -0.49734  -0.49404  -0.49091
 Alpha  occ. eigenvalues --   -0.48925  -0.48599  -0.48397  -0.47449  -0.47311
 Alpha  occ. eigenvalues --   -0.47118  -0.45843  -0.45364  -0.45157  -0.42784
 Alpha  occ. eigenvalues --   -0.41408  -0.40853  -0.39069  -0.37912  -0.37853
 Alpha  occ. eigenvalues --   -0.37702  -0.37580  -0.37222  -0.35419  -0.34967
 Alpha  occ. eigenvalues --   -0.34648  -0.34269  -0.33574  -0.33515  -0.33297
 Alpha  occ. eigenvalues --   -0.33249  -0.32785  -0.32171  -0.31187  -0.31095
 Alpha  occ. eigenvalues --   -0.30708  -0.30137  -0.26477  -0.25647
 Alpha virt. eigenvalues --    0.03004   0.04617   0.06729   0.07771   0.08558
 Alpha virt. eigenvalues --    0.09030   0.09362   0.10297   0.10574   0.12516
 Alpha virt. eigenvalues --    0.13427   0.13454   0.13976   0.14330   0.14832

 Mulliken charges:
               1
     1  N   -0.303109
     2  C    0.190344
     3  C    0.034845
     4  N   -0.238523
     5  C    0.149283
     6  H    0.026833
     7  N   -0.294964
     8  C    0.126569
     9  H    0.008818
    10  N   -0.282206
    11  C    0.239652
    12  C    0.080677
    13  N   -0.058029
    14  H    0.120158
    15  H    0.091167
    16  H    0.025831
    17  H    0.034375
    18  H    0.005319
    19  N   -0.304879
    20  C    0.247120
    21  C    0.181432
    22  N   -0.121469
    23  H    0.119279
    24  H    0.119840
    25  N   -0.309646
    26  C    0.252338
    27  N   -0.142829
    28  H    0.120211
    29  C    0.189443
    30  O   -0.317283
    31  C   -0.010425
    32  N   -0.214873
    33  C    0.102059
    34  H    0.023955
    35  H    0.017160
    36  H    0.034100
    37  H    0.028417
    38  H    0.056314
    39  H    0.052669
    40  H    0.072614
    41  H    0.013019
    42  C   -0.089979
    43  O   -0.280475
    44  C    0.175480
    45  H    0.131023
    46  N   -0.124469
    47  O   -0.352144
    48  C    0.343636
    49  H    0.046043
    50  C    0.152451
    51  C    0.042802
    52  N   -0.273463
    53  H    0.035485
    54  H    0.041604
    55  H    0.029359
    56  H    0.127254
    57  H    0.119236
    58  N   -0.055831
    59  C    0.083777
    60  C    0.235177
    61  N   -0.271579
    62  H    0.036647
    63  C    0.159364
    64  N   -0.302796
    65  H    0.039481
    66  C    0.140069
    67  N   -0.259147
    68  C    0.039806
    69  C    0.178836
    70  N   -0.313251
 Sum of Mulliken charges =  -0.00000

 Dipole moment (field-independent basis, Debye):
    X=             -5.0009    Y=              4.7621    Z=             -6.4225  Tot=              9.4306
 Quadrupole moment (field-independent basis, Debye-Ang):
   XX=           -145.4989   YY=           -229.3211   ZZ=           -256.0435
   XY=            -11.7928   XZ=             -6.1007   YZ=            -11.5916

 Normal termination of Gaussian 16 at Thu Jan 18 01:06:48 2018.
