 Gaussian 16, Revision A.03,
 Gaussian 16:  EM64L-G16RevA.03 25-Dec-2016

 ---------------------------------------
 #p wb97xd/cc-pvdz sp scf=(maxcycles=20)
 ---------------------------------------

 ------------------
 Base pair stacking
 ------------------
 Symbolic Z-matrix:
 Charge =  0 Multiplicity = 1

                         Standard orientation:
 ---------------------------------------------------------------------
 Center     Atomic      Atomic             Coordinates (Angstroms)
 Number     Number       Type             X           Y           Z
 ---------------------------------------------------------------------
      1          7           0       -5.420272   -1.957982    0.282079
      2          6           0       -6.687427   -1.918384    1.037563
      3          6           0       -3.288454   -1.936841   -0.258507
      4          7           0       -3.987873   -2.107572   -1.444419
      5          6           0       -5.244218   -2.113473   -1.071270
      6          1           0       -6.091414   -2.228980   -1.747926
      7          7           0       -1.550301   -1.677655    1.314581
      8          6           0       -2.506993   -1.604408    2.245685
      9          1           0       -2.152839   -1.467458    3.266508
     10          7           0       -3.829262   -1.674623    2.105782
     11          6           0       -4.157899   -1.843063    0.814257
     12          6           0       -1.913376   -1.847322    0.024434
     13          7           0       -0.959834   -1.920663   -0.906460
     14          1           0       -1.182634   -2.045892   -1.873872
     15          1           0        0.009212   -1.852960   -0.668729
     16          1           0       -7.183060   -2.776845    0.905037
     17          1           0       -6.492804   -1.793677    2.010033
     18          1           0       -7.248698   -1.157691    0.711475
     19          7           0       -4.794757    1.825499   -0.203203
     20          6           0       -3.455880    1.980621    0.064016
     21          6           0       -5.897414    2.287235    0.663776
     22          7           0       -0.915393    3.124444    2.137490
     23          1           0        0.084166    3.134825    2.142569
     24          1           0       -1.377475    3.544674    2.918906
     25          7           0       -2.926929    2.576140    1.154717
     26          6           0       -1.605984    2.572060    1.128598
     27          7           0       -0.858339    2.027011    0.112997
     28          1           0        0.147186    2.069368    0.176954
     29          6           0       -1.381335    1.409300   -1.018714
     30          8           0       -0.618440    0.949482   -1.877373
     31          6           0       -2.799326    1.405990   -1.004867
     32          7           0       -3.707731    0.900279   -1.924633
     33          6           0       -4.875681    1.171372   -1.408287
     34          1           0       -5.831671    0.915607   -1.866466
     35          1           0       -6.454559    1.505587    0.942025
     36          1           0       -5.517716    2.730029    1.474966
     37          1           0       -6.465514    2.940191    0.164059
     38          1           0        5.082730    2.031387    1.398297
     39          1           0        5.144586    3.431308    0.330095
     40          1           0        3.685586    3.099749    1.264303
     41          1           0        5.029760   -0.134976   -2.897134
     42          6           0        4.349462    0.400487   -2.234777
     43          8           0        2.388940   -0.353799   -3.336818
     44          6           0        2.938321    0.298858   -2.449680
     45          1           0        1.165806    0.967761   -1.675679
     46          7           0        2.167879    1.014919   -1.555860
     47          8           0        1.852159    2.387920    0.225250
     48          6           0        2.613549    1.789817   -0.514493
     49          1           0        5.878345    1.258658   -1.021564
     50          6           0        4.814461    1.148578   -1.227423
     51          6           0        4.509411    2.653588    0.727291
     52          7           0        3.986369    1.837816   -0.372110
     53          1           0        5.943082   -1.255916    3.835232
     54          1           0        4.613395   -0.311262    3.794223
     55          1           0        6.054879    0.287654    3.317251
     56          1           0        2.307822   -2.271745   -2.553703
     57          1           0        4.007584   -2.354494   -2.435082
     58          7           0        3.131039   -2.145585   -2.000046
     59          6           0        3.064034   -1.717838   -0.737620
     60          6           0        3.961512   -1.076235    1.370596
     61          7           0        2.770579   -0.803392    1.928858
     62          1           0        0.782107   -0.826306    1.432781
     63          6           0        1.786185   -1.023631    1.059737
     64          7           0        1.851251   -1.452043   -0.205095
     65          1           0        7.176112   -1.368698    1.189011
     66          6           0        6.103409   -1.356798    0.993805
     67          7           0        5.549148   -1.697961   -0.143776
     68          6           0        4.191236   -1.524636    0.081536
     69          6           0        5.475012   -0.526953    3.335717
     70          7           0        5.201443   -0.969870    1.954773
 ---------------------------------------------------------------------

 SCF Done:  E(RwB97XD) =  -2048.71904153     A.U. after   15 cycles

 The electronic state is 1-A.
 Alpha  occ. eigenvalues --  -19.25759 -19.21644 -19.20851 -14.52460 -14.51868
 Alpha  occ. eigenvalues --  -14.49079 -14.48922 -14.47819 -14.47102 -14.46846
 Alpha  occ. eigenvalues --  -14.46090 -14.44704 -14.43499 -14.43298 -14.42193
 Alpha  occ. eigenvalues --  -14.42181 -14.41257 -14.41048 -14.41024 -14.40403
 Alpha  occ. eigenvalues --  -10.45356 -10.41416 -10.40153 -10.38613 -10.38473
 Alpha  occ. eigenvalues --  -10.37451 -10.37360 -10.36412 -10.35523 -10.35357
 Alpha  occ. eigenvalues --  -10.35010 -10.34577 -10.34017 -10.33584 -10.33553
 Alpha  occ. eigenvalues --  -10.33498 -10.33246 -10.31749 -10.31438 -10.31321
 Alpha  occ. eigenvalues --  -10.30691 -10.28592 -10.28327  -1.19369  -1.14558
 Alpha  occ. eigenvalues --   -1.13467  -1.13416  -1.11446  -1.10839  -1.09306
 Alpha  occ. eigenvalues --   -1.08774  -1.08209  -1.05156  -1.03786  -1.02548
 Alpha  occ. eigenvalues --   -1.00488  -1.00204  -0.99931  -0.98737  -0.97061
 Alpha  occ. eigenvalues --   -0.96804  -0.95876  -0.92793  -0.90889  -0.86916
 Alpha  occ. eigenvalues --   -0.85322  -0.84397  -0.84090  -0.83702  -0.82845
 Alpha  occ. eigenvalues --   -0.82508  -0.78833  -0.76195  -0.74870  -0.74064
 Alpha  occ. eigenvalues --   -0.73822  -0.73279  -0.73011  -0.71158  -0.69483
 Alpha  occ. eigenvalues --   -0.67599  -0.66487  -0.66395  -0.65960  -0.64595
 Alpha  occ. eigenvalues --   -0.63966  -0.63288  -0.62813  -0.62772  -0.61962
 Alpha  occ. eigenvalues --   -0.60730  -0.60360  -0.59681  -0.59364  -0.58743
 Alpha  occ. eigenvalues --   -0.58583  -0.58565  -0.57463  -0.56662  -0.56291
 Alpha  occ. eigenvalues --   -0.56017  -0.55473  -0.55320  -0.54737  -0.54343
 Alpha  occ. eigenvalues --   -0.53909  -0.53805  -0.53204  -0.52968  -0.52524
 Alpha  occ. eigenvalues --   -0.52397  -0.52085  -0.51961  -0.51024  -0.50444
 Alpha  occ. eigenvalues --   -0.50398  -0.50127  -0.49509  -0.49452  -0.49081
 Alpha  occ. eigenvalues --   -0.48845  -0.48602  -0.47896  -0.47596  -0.47188
 Alpha  occ. eigenvalues --   -0.47084  -0.46222  -0.44895  -0.43768  -0.42605
 Alpha  occ. eigenvalues --   -0.41171  -0.39986  -0.39414  -0.38006  -0.37485
 Alpha  occ. eigenvalues --   -0.37410  -0.37054  -0.36690  -0.35577  -0.34645
 Alpha  occ. eigenvalues --   -0.33847  -0.33694  -0.33581  -0.33330  -0.33159
 Alpha  occ. eigenvalues --   -0.32883  -0.32327  -0.31900  -0.31719  -0.30968
 Alpha  occ. eigenvalues --   -0.30466  -0.28168  -0.26549  -0.24934
 Alpha virt. eigenvalues --    0.02733   0.04847   0.07321   0.07813   0.08645
 Alpha virt. eigenvalues --    0.09270   0.09586   0.10865   0.11000   0.11684
 Alpha virt. eigenvalues --    0.12768   0.13653   0.14195   0.14278   0.15089

 Mulliken charges:
               1
     1  N   -0.307135
     2  C    0.179477
     3  C    0.041945
     4  N   -0.231704
     5  C    0.119466
     6  H    0.022795
     7  N   -0.294493
     8  C    0.135166
     9  H    0.011597
    10  N   -0.289463
    11  C    0.240604
    12  C    0.088244
    13  N   -0.040540
    14  H    0.115930
    15  H    0.087637
    16  H    0.027553
    17  H    0.034603
    18  H    0.018588
    19  N   -0.306957
    20  C    0.260612
    21  C    0.181755
    22  N   -0.124884
    23  H    0.117487
    24  H    0.119474
    25  N   -0.311474
    26  C    0.250159
    27  N   -0.148366
    28  H    0.119626
    29  C    0.195216
    30  O   -0.328716
    31  C   -0.024053
    32  N   -0.210849
    33  C    0.123664
    34  H    0.018515
    35  H    0.020232
    36  H    0.032427
    37  H    0.025220
    38  H    0.049065
    39  H    0.060307
    40  H    0.077419
    41  H    0.022358
    42  C   -0.092261
    43  O   -0.291356
    44  C    0.152042
    45  H    0.129301
    46  N   -0.098910
    47  O   -0.350527
    48  C    0.343102
    49  H    0.044407
    50  C    0.183787
    51  C    0.044824
    52  N   -0.279819
    53  H    0.034469
    54  H    0.041602
    55  H    0.023230
    56  H    0.129822
    57  H    0.111361
    58  N   -0.011524
    59  C    0.042455
    60  C    0.234299
    61  N   -0.271243
    62  H    0.028765
    63  C    0.158651
    64  N   -0.294217
    65  H    0.033576
    66  C    0.119505
    67  N   -0.252167
    68  C    0.039029
    69  C    0.178274
    70  N   -0.308984
 Sum of Mulliken charges =  -0.00000

 Dipole moment (field-independent basis, Debye):
    X=              4.8396    Y=              4.1802    Z=              6.3868  Tot=              9.0381
 Quadrupole moment (field-independent basis, Debye-Ang):
   XX=           -145.7157   YY=           -234.3030   ZZ=           -249.0851
   XY=              7.0756   XZ=              9.9046   YZ=             15.2769

 Normal termination of Gaussian 16 at Thu Jan 18 06:58:31 2018.
