 Gaussian 16, Revision A.03,
 Gaussian 16:  EM64L-G16RevA.03 25-Dec-2016

 ---------------------------------------
 #p wb97xd/cc-pvdz sp scf=(maxcycles=20)
 ---------------------------------------

 ------------------
 Base pair stacking
 ------------------
 Symbolic Z-matrix:
 Charge =  0 Multiplicity = 1

                         Standard orientation:
 ---------------------------------------------------------------------
 Center     Atomic      Atomic             Coordinates (Angstroms)
 Number     Number       Type             X           Y           Z
 ---------------------------------------------------------------------
      1          7           0       -4.216941   -0.579488    2.124431
      2          6           0       -5.473051    0.133096    2.428483
      3          6           0       -2.101244   -1.057534    1.760270
      4          7           0       -2.799995   -2.245933    1.604698
      5          6           0       -4.046652   -1.910364    1.830322
      6          1           0       -4.890457   -2.600069    1.795185
      7          7           0       -0.369426    0.539888    1.869640
      8          6           0       -1.316549    1.433833    2.171978
      9          1           0       -0.961318    2.450355    2.335545
     10          7           0       -2.630433    1.261425    2.301981
     11          6           0       -2.961238   -0.021557    2.080738
     12          6           0       -0.734424   -0.742621    1.652806
     13          7           0        0.209564   -1.636429    1.350887
     14          1           0       -0.015014   -2.596846    1.182375
     15          1           0        1.172918   -1.376674    1.282889
     16          1           0       -5.898773   -0.269932    3.238728
     17          1           0       -5.276443    1.097755    2.601391
     18          1           0       -6.098683    0.056114    1.652174
     19          7           0       -5.949766    0.463917   -0.831907
     20          6           0       -4.620574    0.793344   -0.944907
     21          6           0       -7.041388    1.411370   -0.529599
     22          7           0       -2.094037    3.174684   -0.857802
     23          1           0       -1.102253    3.202660   -0.979589
     24          1           0       -2.550319    4.040483   -0.650642
     25          7           0       -4.092672    2.027994   -0.799924
     26          6           0       -2.782086    2.028157   -0.967180
     27          7           0       -2.043126    0.906153   -1.254500
     28          1           0       -1.045254    1.000275   -1.365678
     29          6           0       -2.565232   -0.374345   -1.408099
     30          8           0       -1.810698   -1.320042   -1.667082
     31          6           0       -3.972134   -0.390427   -1.231284
     32          7           0       -4.876052   -1.441873   -1.296763
     33          6           0       -6.033441   -0.888990   -1.053928
     34          1           0       -6.983286   -1.424000   -1.024711
     35          1           0       -7.498092    1.137430    0.316082
     36          1           0       -6.662365    2.329308   -0.420092
     37          1           0       -7.701790    1.411919   -1.279712
     38          1           0        3.931050    2.023681   -1.161422
     39          1           0        3.786236    2.049871   -2.917268
     40          1           0        2.426152    2.553824   -1.913485
     41          1           0        3.849623   -2.692439   -2.109115
     42          6           0        3.157859   -1.852880   -2.039540
     43          8           0        1.224056   -3.219687   -1.900427
     44          6           0        1.754474   -2.109415   -1.927622
     45          1           0       -0.029032   -1.118837   -1.765747
     46          7           0        0.968185   -0.977897   -1.845894
     47          8           0        0.617880    1.264996   -1.783557
     48          6           0        1.392080    0.327329   -1.861399
     49          1           0        4.658879   -0.342092   -2.140815
     50          6           0        3.601713   -0.590628   -2.057326
     51          6           0        3.258602    1.870490   -1.992332
     52          7           0        2.758680    0.493034   -1.971638
     53          1           0        7.097219    3.163914    1.655199
     54          1           0        5.694556    3.405286    0.857477
     55          1           0        7.076022    3.160642    0.023346
     56          1           0        3.472981   -3.266928    0.897125
     57          1           0        5.175238   -3.157958    0.874259
     58          7           0        4.290406   -2.690887    0.885354
     59          6           0        4.205395   -1.358986    0.884491
     60          6           0        5.075297    0.855681    0.869561
     61          7           0        3.873552    1.455680    0.884691
     62          1           0        1.887200    0.951400    0.911939
     63          6           0        2.899013    0.548493    0.899049
     64          7           0        2.982106   -0.785926    0.899945
     65          1           0        8.300373    0.633717    0.826878
     66          6           0        7.227791    0.438039    0.841481
     67          7           0        6.688236   -0.756314    0.850470
     68          6           0        5.323793   -0.505847    0.868293
     69          6           0        6.564754    2.913606    0.846606
     70          7           0        6.310030    1.459965    0.852192
 ---------------------------------------------------------------------

 SCF Done:  E(RwB97XD) =  -2048.75078797     A.U. after   15 cycles

 The electronic state is 1-A.
 Alpha  occ. eigenvalues --  -19.25080 -19.21399 -19.20771 -14.52670 -14.51507
 Alpha  occ. eigenvalues --  -14.49715 -14.48855 -14.48382 -14.47102 -14.46990
 Alpha  occ. eigenvalues --  -14.46753 -14.45469 -14.44810 -14.44696 -14.43057
 Alpha  occ. eigenvalues --  -14.42260 -14.41814 -14.41548 -14.41247 -14.41069
 Alpha  occ. eigenvalues --  -10.44653 -10.41472 -10.40248 -10.39438 -10.38517
 Alpha  occ. eigenvalues --  -10.38062 -10.37563 -10.36749 -10.36340 -10.36108
 Alpha  occ. eigenvalues --  -10.35005 -10.34194 -10.34103 -10.34077 -10.33750
 Alpha  occ. eigenvalues --  -10.33721 -10.33402 -10.32956 -10.31967 -10.31076
 Alpha  occ. eigenvalues --  -10.30160 -10.28955 -10.28705  -1.18622  -1.15428
 Alpha  occ. eigenvalues --   -1.13553  -1.12373  -1.11496  -1.11270  -1.09716
 Alpha  occ. eigenvalues --   -1.08772  -1.08344  -1.05693  -1.05216  -1.01692
 Alpha  occ. eigenvalues --   -1.01122  -1.01056  -0.99896  -0.98968  -0.97379
 Alpha  occ. eigenvalues --   -0.97324  -0.97044  -0.93380  -0.90089  -0.87916
 Alpha  occ. eigenvalues --   -0.86107  -0.84871  -0.84194  -0.83324  -0.82591
 Alpha  occ. eigenvalues --   -0.82411  -0.78021  -0.77280  -0.75226  -0.75153
 Alpha  occ. eigenvalues --   -0.73873  -0.73309  -0.72515  -0.71542  -0.70663
 Alpha  occ. eigenvalues --   -0.67703  -0.67083  -0.66732  -0.65746  -0.64825
 Alpha  occ. eigenvalues --   -0.64459  -0.63248  -0.63175  -0.62855  -0.62055
 Alpha  occ. eigenvalues --   -0.60879  -0.60795  -0.60350  -0.59839  -0.58901
 Alpha  occ. eigenvalues --   -0.58819  -0.58774  -0.58438  -0.56968  -0.56061
 Alpha  occ. eigenvalues --   -0.55721  -0.55547  -0.55477  -0.54614  -0.54364
 Alpha  occ. eigenvalues --   -0.54232  -0.53842  -0.53387  -0.53138  -0.53019
 Alpha  occ. eigenvalues --   -0.52452  -0.51955  -0.51341  -0.50758  -0.50694
 Alpha  occ. eigenvalues --   -0.50571  -0.50280  -0.49620  -0.49405  -0.49285
 Alpha  occ. eigenvalues --   -0.48819  -0.48660  -0.48177  -0.47373  -0.47309
 Alpha  occ. eigenvalues --   -0.47167  -0.45863  -0.45490  -0.44987  -0.42891
 Alpha  occ. eigenvalues --   -0.41528  -0.40908  -0.38936  -0.37950  -0.37917
 Alpha  occ. eigenvalues --   -0.37829  -0.37515  -0.37399  -0.35343  -0.35035
 Alpha  occ. eigenvalues --   -0.34723  -0.34169  -0.33825  -0.33662  -0.33270
 Alpha  occ. eigenvalues --   -0.33235  -0.32568  -0.32103  -0.31354  -0.31230
 Alpha  occ. eigenvalues --   -0.30905  -0.30128  -0.26657  -0.25649
 Alpha virt. eigenvalues --    0.03070   0.04666   0.06541   0.07543   0.08552
 Alpha virt. eigenvalues --    0.09102   0.09373   0.10148   0.10321   0.12624
 Alpha virt. eigenvalues --    0.13334   0.13660   0.13902   0.14311   0.14848

 Mulliken charges:
               1
     1  N   -0.299128
     2  C    0.195864
     3  C    0.041291
     4  N   -0.241455
     5  C    0.148643
     6  H    0.027547
     7  N   -0.289156
     8  C    0.120766
     9  H    0.005927
    10  N   -0.274889
    11  C    0.232253
    12  C    0.079303
    13  N   -0.057466
    14  H    0.117911
    15  H    0.088696
    16  H    0.026634
    17  H    0.034969
    18  H   -0.002909
    19  N   -0.300982
    20  C    0.232997
    21  C    0.180033
    22  N   -0.114967
    23  H    0.119101
    24  H    0.119348
    25  N   -0.300451
    26  C    0.240965
    27  N   -0.133287
    28  H    0.119178
    29  C    0.182540
    30  O   -0.316938
    31  C   -0.003033
    32  N   -0.213510
    33  C    0.099105
    34  H    0.023867
    35  H    0.015612
    36  H    0.035300
    37  H    0.029011
    38  H    0.061100
    39  H    0.047756
    40  H    0.071027
    41  H    0.017052
    42  C   -0.092873
    43  O   -0.276114
    44  C    0.174851
    45  H    0.131184
    46  N   -0.124206
    47  O   -0.348031
    48  C    0.335742
    49  H    0.045448
    50  C    0.150007
    51  C    0.041188
    52  N   -0.269987
    53  H    0.036380
    54  H    0.042499
    55  H    0.029871
    56  H    0.125412
    57  H    0.119910
    58  N   -0.058861
    59  C    0.096191
    60  C    0.234167
    61  N   -0.277916
    62  H    0.038731
    63  C    0.158802
    64  N   -0.304237
    65  H    0.039877
    66  C    0.140577
    67  N   -0.258021
    68  C    0.039681
    69  C    0.178198
    70  N   -0.314099
 Sum of Mulliken charges =  -0.00000

 Dipole moment (field-independent basis, Debye):
    X=              5.1463    Y=              7.8524    Z=              1.1472  Tot=              9.4584
 Quadrupole moment (field-independent basis, Debye-Ang):
   XX=           -145.7055   YY=           -235.0081   ZZ=           -252.4347
   XY=              1.9298   XZ=            -13.3052   YZ=            -16.9143

 Normal termination of Gaussian 16 at Wed Jan 17 20:33:03 2018.
