 Gaussian 16, Revision A.03,
 Gaussian 16:  EM64L-G16RevA.03 25-Dec-2016

 ---------------------------------------
 #p wb97xd/cc-pvdz sp scf=(maxcycles=20)
 ---------------------------------------

 ------------------
 Base pair stacking
 ------------------
 Symbolic Z-matrix:
 Charge =  0 Multiplicity = 1

                         Standard orientation:
 ---------------------------------------------------------------------
 Center     Atomic      Atomic             Coordinates (Angstroms)
 Number     Number       Type             X           Y           Z
 ---------------------------------------------------------------------
      1          7           0        4.180631   -2.396320   -0.409389
      2          6           0        5.414126   -2.512863   -1.211205
      3          6           0        2.086606   -2.128631    0.207619
      4          7           0        2.808782   -2.350111    1.371300
      5          6           0        4.041460   -2.502516    0.952992
      6          1           0        4.896621   -2.696296    1.601119
      7          7           0        0.327320   -1.712947   -1.307322
      8          6           0        1.249292   -1.765567   -2.274161
      9          1           0        0.872770   -1.612210   -3.284596
     10          7           0        2.560374   -1.978194   -2.180676
     11          6           0        2.918648   -2.154243   -0.898070
     12          6           0        0.719596   -1.894043   -0.027329
     13          7           0       -0.199252   -1.841868    0.939193
     14          1           0        0.046007   -1.970229    1.900740
     15          1           0       -1.163589   -1.672792    0.735206
     16          1           0        5.817637   -3.417734   -1.074943
     17          1           0        5.196601   -2.388245   -2.178823
     18          1           0        6.067521   -1.811947   -0.925244
     19          7           0        5.965130    1.059914   -0.061017
     20          6           0        4.640887    1.344093   -0.292680
     21          6           0        7.067731    1.292083   -1.015505
     22          7           0        2.145443    2.555131   -2.382635
     23          1           0        1.154661    2.683900   -2.350758
     24          1           0        2.612125    2.831731   -3.223115
     25          7           0        4.128587    1.878858   -1.422117
     26          6           0        2.818869    2.034970   -1.345414
     27          7           0        2.066540    1.694082   -0.247544
     28          1           0        1.070489    1.848870   -0.277483
     29          6           0        2.572480    1.142478    0.925321
     30          8           0        1.806762    0.870840    1.858388
     31          6           0        3.978253    0.968822    0.857921
     32          7           0        4.868576    0.459297    1.793130
     33          6           0        6.032039    0.532828    1.205614
     34          1           0        6.974634    0.215242    1.652746
     35          1           0        7.517056    0.424503   -1.225739
     36          1           0        6.700304    1.688073   -1.856011
     37          1           0        7.731401    1.922178   -0.613831
     38          1           0       -3.892819    2.269280   -1.298040
     39          1           0       -3.739896    3.772303   -0.391288
     40          1           0       -2.377778    3.171762   -1.337520
     41          1           0       -3.869065    0.581666    3.207288
     42          6           0       -3.166661    0.958709    2.463844
     43          8           0       -1.251583    0.097891    3.567747
     44          6           0       -1.767272    0.713163    2.634850
     45          1           0        0.028335    1.079947    1.724037
     46          7           0       -0.966574    1.233109    1.637959
     47          8           0       -0.587162    2.361283   -0.296073
     48          6           0       -1.373244    1.940301    0.534307
     49          1           0       -4.647268    1.858833    1.221521
     50          6           0       -3.593829    1.645357    1.397710
     51          6           0       -3.218767    2.886626   -0.723047
     52          7           0       -2.737045    2.136050    0.439846
     53          1           0       -7.167358   -0.521166   -3.563806
     54          1           0       -5.741723    0.271725   -3.595273
     55          1           0       -7.089341    1.036030   -3.081627
     56          1           0       -3.419079   -1.795145    2.712560
     57          1           0       -5.121003   -1.692413    2.657977
     58          7           0       -4.244478   -1.590802    2.186167
     59          6           0       -4.180278   -1.200101    0.911641
     60          6           0       -5.083576   -0.508568   -1.178223
     61          7           0       -3.892581   -0.380731   -1.786192
     62          1           0       -1.900763   -0.612239   -1.362316
     63          6           0       -2.905110   -0.689604   -0.948104
     64          7           0       -2.967363   -1.081128    0.328773
     65          1           0       -8.301346   -0.440736   -0.872491
     66          6           0       -7.227001   -0.543061   -0.716782
     67          7           0       -6.669524   -0.918908    0.408224
     68          6           0       -5.310611   -0.901273    0.129346
     69          6           0       -6.603246    0.162222   -3.100390
     70          7           0       -6.326226   -0.278590   -1.719462
 ---------------------------------------------------------------------

 SCF Done:  E(RwB97XD) =  -2048.74590974     A.U. after   15 cycles

 The electronic state is 1-A.
 Alpha  occ. eigenvalues --  -19.25274 -19.21908 -19.20873 -14.52464 -14.51750
 Alpha  occ. eigenvalues --  -14.49697 -14.48565 -14.48065 -14.47350 -14.47165
 Alpha  occ. eigenvalues --  -14.46948 -14.45335 -14.44653 -14.44511 -14.42579
 Alpha  occ. eigenvalues --  -14.42423 -14.41788 -14.41199 -14.40825 -14.40682
 Alpha  occ. eigenvalues --  -10.44865 -10.41641 -10.39999 -10.39810 -10.38614
 Alpha  occ. eigenvalues --  -10.37943 -10.37388 -10.36766 -10.36120 -10.35705
 Alpha  occ. eigenvalues --  -10.35059 -10.34327 -10.34186 -10.33878 -10.33701
 Alpha  occ. eigenvalues --  -10.33421 -10.33356 -10.32790 -10.31857 -10.30973
 Alpha  occ. eigenvalues --  -10.30187 -10.28767 -10.28584  -1.18832  -1.15242
 Alpha  occ. eigenvalues --   -1.13636  -1.12814  -1.11293  -1.11165  -1.09549
 Alpha  occ. eigenvalues --   -1.08926  -1.08572  -1.05315  -1.05004  -1.01987
 Alpha  occ. eigenvalues --   -1.00955  -1.00660  -1.00077  -0.99054  -0.97350
 Alpha  occ. eigenvalues --   -0.97120  -0.96724  -0.92993  -0.90326  -0.87724
 Alpha  occ. eigenvalues --   -0.85910  -0.84859  -0.83888  -0.83304  -0.82863
 Alpha  occ. eigenvalues --   -0.82314  -0.78250  -0.77102  -0.75216  -0.74987
 Alpha  occ. eigenvalues --   -0.74022  -0.72949  -0.72804  -0.71176  -0.70473
 Alpha  occ. eigenvalues --   -0.67835  -0.66905  -0.66369  -0.66002  -0.64851
 Alpha  occ. eigenvalues --   -0.64295  -0.63513  -0.62978  -0.62791  -0.62204
 Alpha  occ. eigenvalues --   -0.60593  -0.60553  -0.60046  -0.59578  -0.58986
 Alpha  occ. eigenvalues --   -0.58914  -0.58628  -0.57948  -0.56618  -0.55978
 Alpha  occ. eigenvalues --   -0.55884  -0.55657  -0.55248  -0.54654  -0.54372
 Alpha  occ. eigenvalues --   -0.54071  -0.53689  -0.53569  -0.53308  -0.52869
 Alpha  occ. eigenvalues --   -0.52766  -0.51830  -0.51688  -0.50804  -0.50686
 Alpha  occ. eigenvalues --   -0.50375  -0.50040  -0.49833  -0.49416  -0.49012
 Alpha  occ. eigenvalues --   -0.48930  -0.48604  -0.48503  -0.47519  -0.47373
 Alpha  occ. eigenvalues --   -0.47001  -0.45864  -0.45294  -0.45099  -0.42727
 Alpha  occ. eigenvalues --   -0.41301  -0.40799  -0.39132  -0.37921  -0.37823
 Alpha  occ. eigenvalues --   -0.37653  -0.37606  -0.37097  -0.35488  -0.34941
 Alpha  occ. eigenvalues --   -0.34585  -0.34323  -0.33552  -0.33421  -0.33326
 Alpha  occ. eigenvalues --   -0.33183  -0.32909  -0.32188  -0.31089  -0.30980
 Alpha  occ. eigenvalues --   -0.30587  -0.30133  -0.26421  -0.25594
 Alpha virt. eigenvalues --    0.02940   0.04586   0.06839   0.07882   0.08545
 Alpha virt. eigenvalues --    0.08984   0.09351   0.10366   0.10710   0.12468
 Alpha virt. eigenvalues --    0.13283   0.13476   0.14039   0.14315   0.14902

 Mulliken charges:
               1
     1  N   -0.304899
     2  C    0.187785
     3  C    0.032614
     4  N   -0.237113
     5  C    0.149425
     6  H    0.026311
     7  N   -0.296696
     8  C    0.127865
     9  H    0.009423
    10  N   -0.284102
    11  C    0.241178
    12  C    0.081541
    13  N   -0.058378
    14  H    0.121166
    15  H    0.092354
    16  H    0.025368
    17  H    0.033977
    18  H    0.009369
    19  N   -0.306658
    20  C    0.251246
    21  C    0.181464
    22  N   -0.122604
    23  H    0.119239
    24  H    0.119952
    25  N   -0.311796
    26  C    0.254038
    27  N   -0.145319
    28  H    0.120478
    29  C    0.191587
    30  O   -0.317396
    31  C   -0.012195
    32  N   -0.215450
    33  C    0.103690
    34  H    0.023982
    35  H    0.018420
    36  H    0.033601
    37  H    0.028265
    38  H    0.055793
    39  H    0.054164
    40  H    0.073001
    41  H    0.011832
    42  C   -0.089082
    43  O   -0.282859
    44  C    0.177124
    45  H    0.130932
    46  N   -0.124412
    47  O   -0.353555
    48  C    0.346580
    49  H    0.046064
    50  C    0.154198
    51  C    0.043584
    52  N   -0.275512
    53  H    0.035118
    54  H    0.041616
    55  H    0.029119
    56  H    0.127341
    57  H    0.119315
    58  N   -0.054802
    59  C    0.076484
    60  C    0.236770
    61  N   -0.270711
    62  H    0.035647
    63  C    0.160558
    64  N   -0.301714
    65  H    0.039322
    66  C    0.139911
    67  N   -0.259800
    68  C    0.040370
    69  C    0.179099
    70  N   -0.313225
 Sum of Mulliken charges =  -0.00000

 Dipole moment (field-independent basis, Debye):
    X=             -4.9322    Y=              3.7799    Z=             -7.1245  Tot=              9.4537
 Quadrupole moment (field-independent basis, Debye-Ang):
   XX=           -145.3017   YY=           -234.9922   ZZ=           -249.4507
   XY=            -12.7225   XZ=             -3.1593   YZ=            -15.3385

 Normal termination of Gaussian 16 at Thu Jan 18 05:42:12 2018.
