 Gaussian 16, Revision A.03,
 Gaussian 16:  EM64L-G16RevA.03 25-Dec-2016

 ---------------------------------------
 #p wb97xd/cc-pvdz sp scf=(maxcycles=20)
 ---------------------------------------

 ------------------
 Base pair stacking
 ------------------
 Symbolic Z-matrix:
 Charge =  0 Multiplicity = 1

                         Standard orientation:
 ---------------------------------------------------------------------
 Center     Atomic      Atomic             Coordinates (Angstroms)
 Number     Number       Type             X           Y           Z
 ---------------------------------------------------------------------
      1          7           0       -5.701478    0.887602   -1.002814
      2          6           0       -6.971328    0.151671   -1.157372
      3          6           0       -3.568447    1.421751   -0.956436
      4          7           0       -4.262073    2.560378   -0.572871
      5          6           0       -5.519388    2.192996   -0.616155
      6          1           0       -6.363023    2.839915   -0.373808
      7          7           0       -1.838439   -0.083610   -1.507715
      8          6           0       -2.798804   -0.986893   -1.729928
      9          1           0       -2.449486   -1.968541   -2.047104
     10          7           0       -4.119674   -0.860207   -1.619684
     11          6           0       -4.442256    0.382499   -1.224659
     12          6           0       -2.195432    1.157544   -1.111282
     13          7           0       -1.238229    2.060589   -0.888974
     14          1           0       -1.456509    2.991585   -0.594305
     15          1           0       -0.270826    1.837454   -1.009311
     16          1           0       -7.540674    0.606729   -1.842173
     17          1           0       -6.781233   -0.784363   -1.452036
     18          1           0       -7.456206    0.132095   -0.283006
     19          7           0       -4.515880   -0.983004    1.172479
     20          6           0       -3.180679   -1.239626    0.973896
     21          6           0       -5.629590   -1.785932    0.628733
     22          7           0       -0.667435   -3.188090   -0.422122
     23          1           0        0.331891   -3.198268   -0.443880
     24          1           0       -1.139577   -3.914659   -0.922014
     25          7           0       -2.665943   -2.260166    0.254463
     26          6           0       -1.344851   -2.242998    0.247067
     27          7           0       -0.584176   -1.299456    0.894073
     28          1           0        0.420369   -1.364610    0.833891
     29          6           0       -1.092433   -0.240677    1.640077
     30          8           0       -0.318523    0.556329    2.184676
     31          6           0       -2.510371   -0.245879    1.657243
     32          7           0       -3.406724    0.617236    2.272462
     33          6           0       -4.581176    0.141823    1.958058
     34          1           0       -5.531089    0.574528    2.273825
     35          1           0       -6.200506   -1.212743    0.041958
     36          1           0       -5.260471   -2.544868    0.093924
     37          1           0       -6.180884   -2.146354    1.380389
     38          1           0        5.331175   -1.871370   -0.382628
     39          1           0        5.428707   -2.643789    1.198039
     40          1           0        3.948699   -2.768223    0.246485
     41          1           0        5.335660    1.990653    2.486405
     42          6           0        4.648891    1.214141    2.149326
     43          8           0        2.701376    2.379722    2.839072
     44          6           0        3.241039    1.399392    2.326721
     45          1           0        1.461672    0.452040    1.973577
     46          7           0        2.461753    0.357547    1.865693
     47          8           0        2.127527   -1.668662    0.896177
     48          6           0        2.896149   -0.801349    1.272575
     49          1           0        6.163897   -0.094728    1.416240
     50          6           0        5.102957    0.094492    1.574166
     51          6           0        4.777571   -2.127531    0.508421
     52          7           0        4.266465   -0.906181    1.136790
     53          1           0        5.622508   -2.392914   -2.805307
     54          1           0        4.384768   -2.764588   -1.809337
     55          1           0        5.881812   -2.536209   -1.200420
     56          1           0        2.009166    3.782846   -0.838261
     57          1           0        3.692377    3.745545   -1.113005
     58          7           0        2.831789    3.243724   -1.019323
     59          6           0        2.784373    1.914651   -1.131042
     60          6           0        3.703684   -0.253067   -1.473949
     61          7           0        2.533917   -0.900418   -1.343484
     62          1           0        0.559471   -0.481577   -0.987525
     63          6           0        1.547142   -0.038311   -1.106954
     64          7           0        1.592617    1.293201   -0.994707
     65          1           0        6.880935    0.102628   -1.954291
     66          6           0        5.816867    0.252548   -1.769261
     67          7           0        5.251580    1.418634   -1.573391
     68          6           0        3.911667    1.112337   -1.384856
     69          6           0        5.230246   -2.238890   -1.898442
     70          7           0        4.938979   -0.802847   -1.722506
 ---------------------------------------------------------------------

 SCF Done:  E(RwB97XD) =  -2048.61520735     A.U. after   15 cycles

 The electronic state is 1-A.
 Alpha  occ. eigenvalues --  -19.24674 -19.21298 -19.20639 -14.52792 -14.51603
 Alpha  occ. eigenvalues --  -14.49578 -14.48625 -14.47796 -14.47198 -14.46936
 Alpha  occ. eigenvalues --  -14.46718 -14.45652 -14.44345 -14.44178 -14.43196
 Alpha  occ. eigenvalues --  -14.42029 -14.41800 -14.40883 -14.40845 -14.40571
 Alpha  occ. eigenvalues --  -10.44423 -10.41098 -10.39763 -10.39412 -10.38330
 Alpha  occ. eigenvalues --  -10.38244 -10.37400 -10.37031 -10.36255 -10.35808
 Alpha  occ. eigenvalues --  -10.34809 -10.34619 -10.34121 -10.34016 -10.33811
 Alpha  occ. eigenvalues --  -10.33360 -10.32819 -10.32729 -10.32260 -10.30357
 Alpha  occ. eigenvalues --  -10.29958 -10.28929 -10.28174  -1.18828  -1.15911
 Alpha  occ. eigenvalues --   -1.13334  -1.12327  -1.12164  -1.10503  -1.09388
 Alpha  occ. eigenvalues --   -1.08722  -1.08502  -1.05783  -1.04822  -1.02330
 Alpha  occ. eigenvalues --   -1.01602  -1.01318  -0.99854  -0.98531  -0.97988
 Alpha  occ. eigenvalues --   -0.96995  -0.96478  -0.93428  -0.90666  -0.89239
 Alpha  occ. eigenvalues --   -0.87195  -0.85331  -0.83949  -0.83647  -0.82588
 Alpha  occ. eigenvalues --   -0.81968  -0.78220  -0.77268  -0.75131  -0.74579
 Alpha  occ. eigenvalues --   -0.73802  -0.73642  -0.72924  -0.71852  -0.70770
 Alpha  occ. eigenvalues --   -0.67620  -0.67503  -0.67102  -0.66954  -0.65129
 Alpha  occ. eigenvalues --   -0.64717  -0.64219  -0.63572  -0.62925  -0.62639
 Alpha  occ. eigenvalues --   -0.61821  -0.61438  -0.60922  -0.60051  -0.59591
 Alpha  occ. eigenvalues --   -0.59372  -0.58590  -0.58394  -0.57482  -0.56910
 Alpha  occ. eigenvalues --   -0.56401  -0.55790  -0.55344  -0.54509  -0.54329
 Alpha  occ. eigenvalues --   -0.54183  -0.53827  -0.53386  -0.53238  -0.52792
 Alpha  occ. eigenvalues --   -0.52333  -0.51641  -0.51255  -0.51088  -0.50134
 Alpha  occ. eigenvalues --   -0.49833  -0.49711  -0.49486  -0.49027  -0.48883
 Alpha  occ. eigenvalues --   -0.48392  -0.48079  -0.47996  -0.47761  -0.46802
 Alpha  occ. eigenvalues --   -0.46655  -0.45843  -0.45557  -0.43421  -0.41995
 Alpha  occ. eigenvalues --   -0.41813  -0.40834  -0.38837  -0.37926  -0.37768
 Alpha  occ. eigenvalues --   -0.37642  -0.37118  -0.36416  -0.36144  -0.35044
 Alpha  occ. eigenvalues --   -0.34693  -0.34509  -0.33705  -0.33439  -0.32823
 Alpha  occ. eigenvalues --   -0.32337  -0.32224  -0.31816  -0.31109  -0.31035
 Alpha  occ. eigenvalues --   -0.30843  -0.29148  -0.27098  -0.24682
 Alpha virt. eigenvalues --    0.03554   0.03899   0.07010   0.07466   0.08677
 Alpha virt. eigenvalues --    0.08929   0.09333   0.09972   0.11036   0.12330
 Alpha virt. eigenvalues --    0.13292   0.13487   0.14015   0.14670   0.14741

 Mulliken charges:
               1
     1  N   -0.314556
     2  C    0.242139
     3  C    0.073471
     4  N   -0.244925
     5  C    0.118584
     6  H    0.025211
     7  N   -0.277651
     8  C    0.152523
     9  H   -0.003313
    10  N   -0.279683
    11  C    0.203234
    12  C    0.067713
    13  N   -0.045116
    14  H    0.109548
    15  H    0.086680
    16  H    0.017846
    17  H    0.039826
    18  H    0.016409
    19  N   -0.275323
    20  C    0.201843
    21  C    0.249241
    22  N   -0.100801
    23  H    0.118305
    24  H    0.119497
    25  N   -0.282407
    26  C    0.204243
    27  N   -0.120248
    28  H    0.115884
    29  C    0.168925
    30  O   -0.320145
    31  C    0.017992
    32  N   -0.215468
    33  C    0.119589
    34  H    0.016768
    35  H   -0.099531
    36  H    0.038468
    37  H    0.021732
    38  H    0.069838
    39  H    0.044865
    40  H    0.069692
    41  H    0.025647
    42  C   -0.094381
    43  O   -0.268863
    44  C    0.169030
    45  H    0.129855
    46  N   -0.112679
    47  O   -0.326658
    48  C    0.316958
    49  H    0.039084
    50  C    0.164233
    51  C    0.007048
    52  N   -0.264150
    53  H    0.018724
    54  H    0.039809
    55  H    0.011416
    56  H    0.122135
    57  H    0.120976
    58  N   -0.062941
    59  C    0.114262
    60  C    0.190749
    61  N   -0.244068
    62  H    0.019040
    63  C    0.157671
    64  N   -0.295455
    65  H    0.037082
    66  C    0.118799
    67  N   -0.244026
    68  C    0.048237
    69  C    0.226329
    70  N   -0.314765
 Sum of Mulliken charges =  -0.00000

 Dipole moment (field-independent basis, Debye):
    X=              4.6749    Y=             -6.1426    Z=             -5.6471  Tot=              9.5643
 Quadrupole moment (field-independent basis, Debye-Ang):
   XX=           -147.3251   YY=           -225.8943   ZZ=           -266.0926
   XY=            -12.8205   XZ=             -6.9099   YZ=             -7.6300

 Normal termination of Gaussian 16 at Thu Jan 18 05:55:33 2018.
