 Gaussian 16, Revision A.03,
 Gaussian 16:  EM64L-G16RevA.03 25-Dec-2016

 ---------------------------------------
 #p wb97xd/cc-pvdz sp scf=(maxcycles=20)
 ---------------------------------------

 ------------------
 Base pair stacking
 ------------------
 Symbolic Z-matrix:
 Charge =  0 Multiplicity = 1

                         Standard orientation:
 ---------------------------------------------------------------------
 Center     Atomic      Atomic             Coordinates (Angstroms)
 Number     Number       Type             X           Y           Z
 ---------------------------------------------------------------------
      1          7           0        4.289117    0.077289    1.894500
      2          6           0        5.564205   -0.663397    1.835045
      3          6           0        2.154479    0.604232    1.839892
      4          7           0        2.835174    1.773614    2.146392
      5          6           0        4.093968    1.409347    2.167026
      6          1           0        4.929429    2.077677    2.377441
      7          7           0        0.443062   -0.948935    1.369067
      8          6           0        1.410947   -1.863312    1.247817
      9          1           0        1.072344   -2.869283    1.003642
     10          7           0        2.728113   -1.722264    1.382284
     11          6           0        3.037359   -0.449821    1.681743
     12          6           0        0.786684    0.322233    1.670964
     13          7           0       -0.178049    1.236412    1.792412
     14          1           0        0.030294    2.189475    2.014862
     15          1           0       -1.141403    0.999929    1.665250
     16          1           0        6.025207   -0.607721    2.720804
     17          1           0        5.384058   -1.621360    1.613760
     18          1           0        6.151028   -0.264894    1.130188
     19          7           0        5.899431   -0.254843   -0.778766
     20          6           0        4.563516   -0.552079   -0.901319
     21          6           0        6.976046   -1.240139   -0.553427
     22          7           0        1.994614   -2.888667   -0.954601
     23          1           0        1.001484   -2.890573   -1.068344
     24          1           0        2.436704   -3.774686   -0.812325
     25          7           0        4.014342   -1.784276   -0.836996
     26          6           0        2.702599   -1.749662   -0.991072
     27          7           0        1.981896   -0.597531   -1.192803
     28          1           0        0.981565   -0.666043   -1.300494
     29          6           0        2.526052    0.681110   -1.262498
     30          8           0        1.786791    1.655688   -1.448016
     31          6           0        3.934457    0.659994   -1.098728
     32          7           0        4.856898    1.697303   -1.100089
     33          6           0        6.005992    1.108521   -0.907410
     34          1           0        6.965686    1.623328   -0.850501
     35          1           0        7.444880   -1.033665    0.304692
     36          1           0        6.581225   -2.156627   -0.504021
     37          1           0        7.629923   -1.200330   -1.308199
     38          1           0       -4.010738   -1.612992   -1.119009
     39          1           0       -3.881369   -1.519843   -2.873785
     40          1           0       -2.522257   -2.116203   -1.920616
     41          1           0       -3.851004    3.155343   -1.738744
     42          6           0       -3.174166    2.300876   -1.734203
     43          8           0       -1.214528    3.620325   -1.519689
     44          6           0       -1.765416    2.524163   -1.618489
     45          1           0        0.000957    1.493357   -1.542985
     46          7           0       -0.999319    1.375977   -1.622964
     47          8           0       -0.689643   -0.871684   -1.719448
     48          6           0       -1.447164    0.082669   -1.724628
     49          1           0       -4.703415    0.827534   -1.925150
     50          6           0       -3.641202    1.050947   -1.834977
     51          6           0       -3.342691   -1.414438   -1.943845
     52          7           0       -2.817463   -0.050795   -1.832742
     53          1           0       -7.003533   -3.466377    0.424086
     54          1           0       -5.639044   -3.329942   -0.460031
     55          1           0       -7.061086   -2.808603   -1.068378
     56          1           0       -3.472766    2.823768    2.165701
     57          1           0       -5.173205    2.687446    2.170608
     58          7           0       -4.285067    2.279040    1.956959
     59          6           0       -4.189319    1.062017    1.417652
     60          6           0       -5.040793   -0.983404    0.549914
     61          7           0       -3.834850   -1.506627    0.273590
     62          1           0       -1.853687   -1.002430    0.419867
     63          6           0       -2.868203   -0.655473    0.611301
     64          7           0       -2.962067    0.563899    1.151569
     65          1           0       -8.265874   -0.849636    0.731903
     66          6           0       -7.195475   -0.647500    0.780004
     67          7           0       -6.665889    0.457094    1.245951
     68          6           0       -5.300184    0.257236    1.105854
     69          6           0       -6.512753   -2.898699   -0.236883
     70          7           0       -6.269941   -1.562947    0.341752
 ---------------------------------------------------------------------

 SCF Done:  E(RwB97XD) =  -2048.62392890     A.U. after   15 cycles

 The electronic state is 1-A.
 Alpha  occ. eigenvalues --  -19.24889 -19.21095 -19.20691 -14.53194 -14.51230
 Alpha  occ. eigenvalues --  -14.49621 -14.48973 -14.48473 -14.46943 -14.46710
 Alpha  occ. eigenvalues --  -14.46295 -14.45779 -14.45108 -14.44918 -14.43457
 Alpha  occ. eigenvalues --  -14.41939 -14.41865 -14.41625 -14.41336 -14.41327
 Alpha  occ. eigenvalues --  -10.44391 -10.41337 -10.40354 -10.39181 -10.38414
 Alpha  occ. eigenvalues --  -10.38337 -10.37863 -10.36595 -10.36468 -10.36400
 Alpha  occ. eigenvalues --  -10.34867 -10.34655 -10.34379 -10.34261 -10.33971
 Alpha  occ. eigenvalues --  -10.33710 -10.33258 -10.32162 -10.30457 -10.30417
 Alpha  occ. eigenvalues --  -10.30107 -10.29205 -10.28626  -1.18497  -1.15952
 Alpha  occ. eigenvalues --   -1.13801  -1.12099  -1.11689  -1.11451  -1.10295
 Alpha  occ. eigenvalues --   -1.08974  -1.08152  -1.06034  -1.05940  -1.01509
 Alpha  occ. eigenvalues --   -1.01487  -1.01405  -0.99996  -0.99095  -0.98165
 Alpha  occ. eigenvalues --   -0.97609  -0.97235  -0.93748  -0.89923  -0.88357
 Alpha  occ. eigenvalues --   -0.86550  -0.85307  -0.84389  -0.83676  -0.82596
 Alpha  occ. eigenvalues --   -0.81893  -0.77872  -0.77577  -0.75980  -0.75251
 Alpha  occ. eigenvalues --   -0.74028  -0.73549  -0.72382  -0.72002  -0.71065
 Alpha  occ. eigenvalues --   -0.67722  -0.67599  -0.67199  -0.65661  -0.64966
 Alpha  occ. eigenvalues --   -0.64816  -0.63768  -0.63350  -0.62867  -0.62109
 Alpha  occ. eigenvalues --   -0.61694  -0.61657  -0.61225  -0.60612  -0.60198
 Alpha  occ. eigenvalues --   -0.59618  -0.58712  -0.58413  -0.57749  -0.56492
 Alpha  occ. eigenvalues --   -0.56374  -0.56020  -0.55611  -0.54922  -0.54563
 Alpha  occ. eigenvalues --   -0.54306  -0.53647  -0.53546  -0.53402  -0.52750
 Alpha  occ. eigenvalues --   -0.52715  -0.52046  -0.51224  -0.50794  -0.50688
 Alpha  occ. eigenvalues --   -0.50477  -0.50091  -0.49581  -0.49532  -0.49371
 Alpha  occ. eigenvalues --   -0.48827  -0.48555  -0.47861  -0.47482  -0.47331
 Alpha  occ. eigenvalues --   -0.46904  -0.46082  -0.45536  -0.43985  -0.43446
 Alpha  occ. eigenvalues --   -0.40227  -0.39832  -0.38889  -0.38719  -0.38197
 Alpha  occ. eigenvalues --   -0.37936  -0.37466  -0.37098  -0.35686  -0.35144
 Alpha  occ. eigenvalues --   -0.34400  -0.34163  -0.34056  -0.33948  -0.33223
 Alpha  occ. eigenvalues --   -0.32565  -0.32377  -0.31969  -0.31727  -0.30985
 Alpha  occ. eigenvalues --   -0.30187  -0.29398  -0.27044  -0.24854
 Alpha virt. eigenvalues --    0.02865   0.04653   0.06452   0.06821   0.08324
 Alpha virt. eigenvalues --    0.09094   0.09515   0.09958   0.10170   0.12677
 Alpha virt. eigenvalues --    0.13149   0.13275   0.13953   0.14191   0.14618

 Mulliken charges:
               1
     1  N   -0.288559
     2  C    0.208412
     3  C    0.063994
     4  N   -0.248397
     5  C    0.145791
     6  H    0.027472
     7  N   -0.263762
     8  C    0.106259
     9  H   -0.004873
    10  N   -0.263252
    11  C    0.205738
    12  C    0.070241
    13  N   -0.057396
    14  H    0.113119
    15  H    0.084743
    16  H    0.017693
    17  H    0.028193
    18  H    0.007213
    19  N   -0.300789
    20  C    0.173198
    21  C    0.172833
    22  N   -0.079405
    23  H    0.120813
    24  H    0.119457
    25  N   -0.241511
    26  C    0.145414
    27  N   -0.093017
    28  H    0.124082
    29  C    0.163644
    30  O   -0.316384
    31  C    0.026839
    32  N   -0.210063
    33  C    0.097268
    34  H    0.023954
    35  H    0.016547
    36  H    0.039019
    37  H    0.028648
    38  H    0.075740
    39  H    0.022776
    40  H    0.061397
    41  H    0.022598
    42  C   -0.092422
    43  O   -0.270510
    44  C    0.176824
    45  H    0.131213
    46  N   -0.122359
    47  O   -0.337642
    48  C    0.322995
    49  H    0.043878
    50  C    0.150694
    51  C    0.041214
    52  N   -0.269454
    53  H    0.037013
    54  H    0.047419
    55  H    0.032118
    56  H    0.121639
    57  H    0.121272
    58  N   -0.066972
    59  C    0.111533
    60  C    0.238410
    61  N   -0.276537
    62  H    0.045472
    63  C    0.146081
    64  N   -0.303434
    65  H    0.041136
    66  C    0.141484
    67  N   -0.255277
    68  C    0.038564
    69  C    0.178090
    70  N   -0.318128
 Sum of Mulliken charges =  -0.00000

 Dipole moment (field-independent basis, Debye):
    X=             -5.4491    Y=             -8.2276    Z=              1.3339  Tot=              9.9582
 Quadrupole moment (field-independent basis, Debye-Ang):
   XX=           -145.4427   YY=           -244.1877   ZZ=           -248.8776
   XY=             -1.3502   XZ=             12.9870   YZ=             20.5759

 Normal termination of Gaussian 16 at Thu Jan 18 09:57:08 2018.
