 Gaussian 16, Revision A.03,
 Gaussian 16:  EM64L-G16RevA.03 25-Dec-2016

 ---------------------------------------
 #p wb97xd/cc-pvdz sp scf=(maxcycles=20)
 ---------------------------------------

 ------------------
 Base pair stacking
 ------------------
 Symbolic Z-matrix:
 Charge =  0 Multiplicity = 1

                         Standard orientation:
 ---------------------------------------------------------------------
 Center     Atomic      Atomic             Coordinates (Angstroms)
 Number     Number       Type             X           Y           Z
 ---------------------------------------------------------------------
      1          7           0       -6.257427    0.831515   -0.659161
      2          6           0       -7.516378    0.084751   -0.847292
      3          6           0       -4.136588    1.413613   -0.636951
      4          7           0       -4.837692    2.481047   -0.094962
      5          6           0       -6.087371    2.087634   -0.130030
      6          1           0       -6.933655    2.679215    0.220337
      7          7           0       -2.399568    0.029278   -1.430258
      8          6           0       -3.348659   -0.867501   -1.717636
      9          1           0       -2.992020   -1.795997   -2.161440
     10          7           0       -4.665970   -0.789895   -1.539941
     11          6           0       -4.998247    0.389489   -0.989410
     12          6           0       -2.766128    1.206042   -0.877129
     13          7           0       -1.820173    2.102500   -0.589544
     14          1           0       -2.045807    2.986819   -0.179319
     15          1           0       -0.854240    1.920826   -0.774241
     16          1           0       -8.124670    0.600792   -1.450493
     17          1           0       -7.318793   -0.805332   -1.256964
     18          1           0       -7.962371   -0.049153    0.037674
     19          7           0       -3.920334   -1.260937    1.291932
     20          6           0       -2.588962   -1.467295    1.021890
     21          6           0       -5.033358   -2.083467    0.776832
     22          7           0       -0.086552   -3.289019   -0.553223
     23          1           0        0.910364   -3.265578   -0.622925
     24          1           0       -0.559344   -4.015430   -1.052731
     25          7           0       -2.077972   -2.448249    0.246862
     26          6           0       -0.760014   -2.387302    0.177010
     27          7           0        0.001170   -1.439046    0.816481
     28          1           0        1.003146   -1.469194    0.706445
     29          6           0       -0.503260   -0.420482    1.618948
     30          8           0        0.270752    0.384903    2.150921
     31          6           0       -1.917817   -0.472959    1.703544
     32          7           0       -2.809892    0.341268    2.387758
     33          6           0       -3.982698   -0.162970    2.114874
     34          1           0       -4.929267    0.228498    2.489084
     35          1           0       -5.649929   -1.512061    0.236350
     36          1           0       -4.666989   -2.813424    0.201324
     37          1           0       -5.535770   -2.484287    1.542165
     38          1           0        5.862419   -1.776957   -0.758289
     39          1           0        6.061064   -2.592854    0.790744
     40          1           0        4.541144   -2.737406   -0.092602
     41          1           0        5.884941    1.995220    2.227801
     42          6           0        5.207373    1.206960    1.899504
     43          8           0        3.260010    2.286425    2.717807
     44          6           0        3.804697    1.340259    2.149593
     45          1           0        2.040973    0.345768    1.851969
     46          7           0        3.037093    0.287596    1.693583
     47          8           0        2.720038   -1.718506    0.677606
     48          6           0        3.478378   -0.838016    1.044123
     49          1           0        6.725368   -0.028633    1.054028
     50          6           0        5.667938    0.120664    1.268273
     51          6           0        5.361199   -2.077874    0.149610
     52          7           0        4.843084   -0.893472    0.839896
     53          1           0        5.046895   -1.913143   -3.290236
     54          1           0        3.861901   -2.430917   -2.295343
     55          1           0        5.378567   -2.234719   -1.724983
     56          1           0        1.387893    3.893594   -0.469051
     57          1           0        3.058043    3.933526   -0.814177
     58          7           0        2.213504    3.401360   -0.745126
     59          6           0        2.190383    2.093435   -1.009675
     60          6           0        3.141191    0.005571   -1.640944
     61          7           0        1.992627   -0.683646   -1.539921
     62          1           0        0.026760   -0.361979   -1.057728
     63          6           0        0.998397    0.118450   -1.164334
     64          7           0        1.019537    1.428669   -0.898897
     65          1           0        6.286107    0.499587   -2.204551
     66          6           0        5.228025    0.598456   -1.960327
     67          7           0        4.646375    1.718368   -1.606554
     68          6           0        3.322908    1.356486   -1.401092
     69          6           0        4.691016   -1.875968   -2.356442
     70          7           0        4.376293   -0.478365   -2.001944
 ---------------------------------------------------------------------

 SCF Done:  E(RwB97XD) =  -2048.67456992     A.U. after   15 cycles

 The electronic state is 1-A.
 Alpha  occ. eigenvalues --  -19.25377 -19.21702 -19.20598 -14.52306 -14.52085
 Alpha  occ. eigenvalues --  -14.50140 -14.48346 -14.47511 -14.47286 -14.46654
 Alpha  occ. eigenvalues --  -14.46451 -14.44974 -14.43690 -14.43609 -14.43204
 Alpha  occ. eigenvalues --  -14.42579 -14.41712 -14.41694 -14.40958 -14.40554
 Alpha  occ. eigenvalues --  -10.45073 -10.40992 -10.39772 -10.39212 -10.38085
 Alpha  occ. eigenvalues --  -10.37549 -10.37484 -10.36638 -10.36434 -10.35294
 Alpha  occ. eigenvalues --  -10.35218 -10.34977 -10.34414 -10.33981 -10.33821
 Alpha  occ. eigenvalues --  -10.33046 -10.32866 -10.32348 -10.32136 -10.30673
 Alpha  occ. eigenvalues --  -10.29616 -10.29595 -10.27802  -1.19276  -1.14833
 Alpha  occ. eigenvalues --   -1.13139  -1.12698  -1.12628  -1.10364  -1.09295
 Alpha  occ. eigenvalues --   -1.08517  -1.08419  -1.06022  -1.04138  -1.02336
 Alpha  occ. eigenvalues --   -1.01581  -1.00648  -0.99548  -0.98373  -0.98184
 Alpha  occ. eigenvalues --   -0.96247  -0.96211  -0.93675  -0.91030  -0.88074
 Alpha  occ. eigenvalues --   -0.86389  -0.85157  -0.83768  -0.83517  -0.83394
 Alpha  occ. eigenvalues --   -0.81855  -0.78709  -0.76541  -0.74583  -0.74210
 Alpha  occ. eigenvalues --   -0.74007  -0.73522  -0.73337  -0.72136  -0.70066
 Alpha  occ. eigenvalues --   -0.67436  -0.67215  -0.67032  -0.66053  -0.65241
 Alpha  occ. eigenvalues --   -0.63939  -0.63779  -0.63634  -0.62960  -0.62495
 Alpha  occ. eigenvalues --   -0.61527  -0.61291  -0.60285  -0.59422  -0.59227
 Alpha  occ. eigenvalues --   -0.58747  -0.58116  -0.57701  -0.57581  -0.56653
 Alpha  occ. eigenvalues --   -0.56160  -0.55898  -0.55465  -0.54853  -0.54484
 Alpha  occ. eigenvalues --   -0.54062  -0.53481  -0.53234  -0.53035  -0.52685
 Alpha  occ. eigenvalues --   -0.52452  -0.51835  -0.51405  -0.51024  -0.50216
 Alpha  occ. eigenvalues --   -0.49793  -0.49538  -0.49392  -0.49120  -0.49100
 Alpha  occ. eigenvalues --   -0.48526  -0.48347  -0.48066  -0.47982  -0.47283
 Alpha  occ. eigenvalues --   -0.47167  -0.46061  -0.45252  -0.43529  -0.42422
 Alpha  occ. eigenvalues --   -0.41845  -0.40247  -0.39242  -0.38228  -0.37403
 Alpha  occ. eigenvalues --   -0.37169  -0.37147  -0.36944  -0.35965  -0.34674
 Alpha  occ. eigenvalues --   -0.34532  -0.34219  -0.33707  -0.33490  -0.32925
 Alpha  occ. eigenvalues --   -0.32521  -0.32306  -0.31690  -0.31389  -0.31356
 Alpha  occ. eigenvalues --   -0.31019  -0.28859  -0.26848  -0.25269
 Alpha virt. eigenvalues --    0.02734   0.05035   0.06749   0.06874   0.08920
 Alpha virt. eigenvalues --    0.09199   0.09652   0.10418   0.11142   0.11934
 Alpha virt. eigenvalues --    0.13057   0.13131   0.14393   0.14444   0.15019

 Mulliken charges:
               1
     1  N   -0.311905
     2  C    0.180846
     3  C    0.060630
     4  N   -0.247385
     5  C    0.122785
     6  H    0.029162
     7  N   -0.273959
     8  C    0.143962
     9  H    0.011963
    10  N   -0.292005
    11  C    0.223487
    12  C    0.079112
    13  N   -0.040846
    14  H    0.109084
    15  H    0.089730
    16  H    0.030977
    17  H    0.044064
    18  H    0.024306
    19  N   -0.287465
    20  C    0.220212
    21  C    0.223991
    22  N   -0.105301
    23  H    0.114689
    24  H    0.115799
    25  N   -0.292962
    26  C    0.210232
    27  N   -0.142844
    28  H    0.131834
    29  C    0.163158
    30  O   -0.322993
    31  C    0.005730
    32  N   -0.221214
    33  C    0.124795
    34  H    0.021088
    35  H   -0.013430
    36  H    0.027417
    37  H    0.012534
    38  H    0.039005
    39  H    0.056162
    40  H    0.067633
    41  H    0.027770
    42  C   -0.084950
    43  O   -0.266750
    44  C    0.173287
    45  H    0.133352
    46  N   -0.122638
    47  O   -0.329153
    48  C    0.321423
    49  H    0.041587
    50  C    0.158930
    51  C    0.062555
    52  N   -0.273527
    53  H    0.022074
    54  H    0.037487
    55  H    0.010813
    56  H    0.120469
    57  H    0.120832
    58  N   -0.061049
    59  C    0.125416
    60  C    0.198364
    61  N   -0.255978
    62  H    0.041932
    63  C    0.141383
    64  N   -0.305656
    65  H    0.033263
    66  C    0.116431
    67  N   -0.242501
    68  C    0.033985
    69  C    0.185802
    70  N   -0.297029
 Sum of Mulliken charges =  -0.00000

 Dipole moment (field-independent basis, Debye):
    X=              4.2405    Y=             -5.4396    Z=             -5.5122  Tot=              8.8292
 Quadrupole moment (field-independent basis, Debye-Ang):
   XX=           -144.8358   YY=           -225.1564   ZZ=           -264.6375
   XY=            -15.3826   XZ=            -12.9767   YZ=             -4.3201

 Normal termination of Gaussian 16 at Thu Jan 18 02:35:49 2018.
