 Gaussian 16, Revision A.03,
 Gaussian 16:  EM64L-G16RevA.03 25-Dec-2016

 ---------------------------------------
 #p wb97xd/cc-pvdz sp scf=(maxcycles=20)
 ---------------------------------------

 ------------------
 Base pair stacking
 ------------------
 Symbolic Z-matrix:
 Charge =  0 Multiplicity = 1

                         Standard orientation:
 ---------------------------------------------------------------------
 Center     Atomic      Atomic             Coordinates (Angstroms)
 Number     Number       Type             X           Y           Z
 ---------------------------------------------------------------------
      1          7           0        5.418113   -1.487579   -0.894103
      2          6           0        6.693418   -1.007173   -1.460500
      3          6           0        3.279641   -1.811465   -0.494912
      4          7           0        3.968075   -2.609177    0.407562
      5          6           0        5.228867   -2.382121    0.130938
      6          1           0        6.070093   -2.844548    0.648095
      7          7           0        1.555527   -0.740166   -1.696035
      8          6           0        2.521857   -0.138276   -2.397111
      9          1           0        2.177333    0.544375   -3.172709
     10          7           0        3.843667   -0.252488   -2.284485
     11          6           0        4.160035   -1.114229   -1.303792
     12          6           0        1.906371   -1.601552   -0.716230
     13          7           0        0.943203   -2.203351   -0.015297
     14          1           0        1.156800   -2.848456    0.719161
     15          1           0       -0.024196   -2.030001   -0.200325
     16          1           0        7.212596   -1.782223   -1.820955
     17          1           0        6.508063   -0.359180   -2.198652
     18          1           0        7.227422   -0.553358   -0.747131
     19          7           0        4.804454    1.402316    0.798238
     20          6           0        3.467790    1.629995    0.575675
     21          6           0        5.913794    2.057898    0.076938
     22          7           0        0.943739    3.276925   -1.150172
     23          1           0       -0.055691    3.296127   -1.154549
     24          1           0        1.411894    3.875926   -1.800361
     25          7           0        2.947416    2.483998   -0.332043
     26          6           0        1.626376    2.483904   -0.310515
     27          7           0        0.870851    1.707632    0.534524
     28          1           0       -0.134076    1.772578    0.481149
     29          6           0        1.384957    0.821908    1.476360
     30          8           0        0.615401    0.167595    2.190791
     31          6           0        2.802920    0.811001    1.465056
     32          7           0        3.704052    0.083793    2.230579
     33          6           0        4.875933    0.466436    1.801068
     34          1           0        5.828268    0.096483    2.182496
     35          1           0        6.466474    1.366569   -0.387182
     36          1           0        5.540486    2.692837   -0.598153
     37          1           0        6.484533    2.560277    0.725532
     38          1           0       -5.064877    2.080765   -0.720904
     39          1           0       -5.121026    3.168745    0.663942
     40          1           0       -3.660727    3.070418   -0.320543
     41          1           0       -5.044367   -1.093316    2.894526
     42          6           0       -4.357659   -0.414320    2.388925
     43          8           0       -2.406924   -1.436131    3.270785
     44          6           0       -2.948143   -0.577676    2.574415
     45          1           0       -1.167856    0.249882    1.996430
     46          7           0       -2.169084    0.333452    1.890182
     47          8           0       -1.836542    2.106484    0.510711
     48          6           0       -2.605089    1.348102    1.075368
     49          1           0       -5.875567    0.732524    1.426386
     50          6           0       -4.813320    0.565993    1.600282
     51          6           0       -4.489827    2.510408    0.085804
     52          7           0       -3.976966    1.441048    0.946721
     53          1           0       -5.913054    0.901095   -3.747583
     54          1           0       -4.612750    1.680712   -3.144681
     55          1           0       -6.077610    1.881572   -2.453369
     56          1           0       -2.334082   -3.478066    1.056520
     57          1           0       -4.028899   -3.508605    0.864840
     58          7           0       -3.153293   -3.075793    0.647600
     59          6           0       -3.082332   -2.009597   -0.151996
     60          6           0       -3.970520   -0.306397   -1.556268
     61          7           0       -2.780952    0.254067   -1.830526
     62          1           0       -0.799426   -0.010524   -1.378679
     63          6           0       -1.802032   -0.401002   -1.209638
     64          7           0       -1.871056   -1.469079   -0.408373
     65          1           0       -7.177116   -0.705329   -1.660196
     66          6           0       -6.107922   -0.787209   -1.462570
     67          7           0       -5.558860   -1.700875   -0.700056
     68          6           0       -4.203847   -1.407462   -0.750812
     69          6           0       -5.473554    1.229319   -2.911463
     70          7           0       -5.205227    0.089595   -2.013105
 ---------------------------------------------------------------------

 SCF Done:  E(RwB97XD) =  -2048.74664732     A.U. after   15 cycles

 The electronic state is 1-A.
 Alpha  occ. eigenvalues --  -19.25325 -19.21580 -19.20555 -14.52400 -14.52024
 Alpha  occ. eigenvalues --  -14.49301 -14.48935 -14.47449 -14.47349 -14.46741
 Alpha  occ. eigenvalues --  -14.46576 -14.45150 -14.44058 -14.43960 -14.42790
 Alpha  occ. eigenvalues --  -14.41887 -14.41682 -14.41405 -14.40964 -14.40870
 Alpha  occ. eigenvalues --  -10.44956 -10.41094 -10.39690 -10.39463 -10.38200
 Alpha  occ. eigenvalues --  -10.37793 -10.37187 -10.36957 -10.35999 -10.35575
 Alpha  occ. eigenvalues --  -10.34905 -10.34420 -10.34369 -10.34186 -10.33866
 Alpha  occ. eigenvalues --  -10.33642 -10.33500 -10.32301 -10.31903 -10.31154
 Alpha  occ. eigenvalues --  -10.30472 -10.28977 -10.28132  -1.18971  -1.15087
 Alpha  occ. eigenvalues --   -1.13154  -1.12618  -1.11839  -1.10649  -1.08914
 Alpha  occ. eigenvalues --   -1.08882  -1.08483  -1.05603  -1.04394  -1.02075
 Alpha  occ. eigenvalues --   -1.00955  -1.00803  -0.99642  -0.98476  -0.97501
 Alpha  occ. eigenvalues --   -0.96649  -0.96508  -0.93259  -0.90517  -0.87486
 Alpha  occ. eigenvalues --   -0.85961  -0.84644  -0.84115  -0.83342  -0.83112
 Alpha  occ. eigenvalues --   -0.82526  -0.78410  -0.76740  -0.74671  -0.74553
 Alpha  occ. eigenvalues --   -0.73554  -0.73434  -0.72912  -0.71570  -0.70108
 Alpha  occ. eigenvalues --   -0.67362  -0.66850  -0.66473  -0.66115  -0.64361
 Alpha  occ. eigenvalues --   -0.63936  -0.63646  -0.63241  -0.62564  -0.61734
 Alpha  occ. eigenvalues --   -0.61633  -0.60857  -0.60224  -0.59301  -0.59091
 Alpha  occ. eigenvalues --   -0.58526  -0.58405  -0.58273  -0.57117  -0.56015
 Alpha  occ. eigenvalues --   -0.55722  -0.55594  -0.55225  -0.54711  -0.54088
 Alpha  occ. eigenvalues --   -0.53983  -0.53556  -0.53495  -0.52943  -0.52692
 Alpha  occ. eigenvalues --   -0.52480  -0.52420  -0.51869  -0.51190  -0.50805
 Alpha  occ. eigenvalues --   -0.50140  -0.49969  -0.49337  -0.49205  -0.49003
 Alpha  occ. eigenvalues --   -0.48771  -0.48274  -0.48140  -0.47768  -0.47460
 Alpha  occ. eigenvalues --   -0.47224  -0.46177  -0.45049  -0.44258  -0.43154
 Alpha  occ. eigenvalues --   -0.41524  -0.40476  -0.39002  -0.37649  -0.37591
 Alpha  occ. eigenvalues --   -0.37271  -0.37139  -0.36942  -0.36007  -0.34658
 Alpha  occ. eigenvalues --   -0.34340  -0.34079  -0.33775  -0.33580  -0.32928
 Alpha  occ. eigenvalues --   -0.32570  -0.32260  -0.31841  -0.31439  -0.31277
 Alpha  occ. eigenvalues --   -0.30879  -0.29506  -0.26915  -0.24798
 Alpha virt. eigenvalues --    0.03095   0.04601   0.07018   0.07259   0.08764
 Alpha virt. eigenvalues --    0.09216   0.09859   0.10591   0.10758   0.12341
 Alpha virt. eigenvalues --    0.12868   0.13763   0.14279   0.14414   0.15081

 Mulliken charges:
               1
     1  N   -0.303207
     2  C    0.180026
     3  C    0.057376
     4  N   -0.238117
     5  C    0.122312
     6  H    0.024564
     7  N   -0.287532
     8  C    0.135610
     9  H    0.009713
    10  N   -0.278530
    11  C    0.227046
    12  C    0.079665
    13  N   -0.042209
    14  H    0.113385
    15  H    0.086468
    16  H    0.027536
    17  H    0.036783
    18  H    0.025914
    19  N   -0.295458
    20  C    0.244878
    21  C    0.195327
    22  N   -0.121939
    23  H    0.118261
    24  H    0.118230
    25  N   -0.299191
    26  C    0.235476
    27  N   -0.134960
    28  H    0.116874
    29  C    0.178621
    30  O   -0.324690
    31  C   -0.010542
    32  N   -0.212562
    33  C    0.116926
    34  H    0.018162
    35  H   -0.013055
    36  H    0.035604
    37  H    0.025393
    38  H    0.019810
    39  H    0.058125
    40  H    0.079804
    41  H    0.023048
    42  C   -0.092879
    43  O   -0.272803
    44  C    0.158433
    45  H    0.129411
    46  N   -0.104921
    47  O   -0.345692
    48  C    0.332491
    49  H    0.042936
    50  C    0.167837
    51  C    0.054507
    52  N   -0.272166
    53  H    0.033846
    54  H    0.041638
    55  H    0.030475
    56  H    0.124769
    57  H    0.117906
    58  N   -0.041674
    59  C    0.079204
    60  C    0.213791
    61  N   -0.262830
    62  H    0.023559
    63  C    0.157253
    64  N   -0.292751
    65  H    0.035586
    66  C    0.121040
    67  N   -0.249333
    68  C    0.046743
    69  C    0.180648
    70  N   -0.305971
 Sum of Mulliken charges =  -0.00000

 Dipole moment (field-independent basis, Debye):
    X=             -4.7266    Y=              4.9325    Z=             -5.8963  Tot=              9.0243
 Quadrupole moment (field-independent basis, Debye-Ang):
   XX=           -146.3140   YY=           -225.0277   ZZ=           -261.9532
   XY=            -10.6936   XZ=              6.5352   YZ=             -6.0869

 Normal termination of Gaussian 16 at Wed Jan 17 18:54:41 2018.
