 Gaussian 16, Revision A.03,
 Gaussian 16:  EM64L-G16RevA.03 25-Dec-2016

 ---------------------------------------
 #p wb97xd/cc-pvdz sp scf=(maxcycles=20)
 ---------------------------------------

 ------------------
 Base pair stacking
 ------------------
 Symbolic Z-matrix:
 Charge =  0 Multiplicity = 1

                         Standard orientation:
 ---------------------------------------------------------------------
 Center     Atomic      Atomic             Coordinates (Angstroms)
 Number     Number       Type             X           Y           Z
 ---------------------------------------------------------------------
      1          7           0       -7.116441   -0.755778    0.157394
      2          6           0       -8.385352   -0.244267    0.710770
      3          6           0       -4.994847   -1.258865   -0.130730
      4          7           0       -5.666337   -1.760981   -1.236045
      5          6           0       -6.917646   -1.437791   -1.018216
      6          1           0       -7.744711   -1.674143   -1.688327
      7          7           0       -3.301323   -0.683491    1.406765
      8          6           0       -4.265837   -0.120775    2.142038
      9          1           0       -3.933412    0.339182    3.071656
     10          7           0       -5.573214   -0.041294    1.902512
     11          6           0       -5.875481   -0.636582    0.736889
     12          6           0       -3.637730   -1.274252    0.239324
     13          7           0       -2.676344   -1.836517   -0.496038
     14          1           0       -2.879620   -2.285039   -1.367089
     15          1           0       -1.720659   -1.828607   -0.201505
     16          1           0       -9.019188   -1.004690    0.852855
     17          1           0       -8.210082    0.209881    1.583787
     18          1           0       -8.790267    0.409986    0.072025
     19          7           0       -2.919000    2.181267   -1.079589
     20          6           0       -1.585302    2.225187   -0.751899
     21          6           0       -3.955970    3.096084   -0.561411
     22          7           0        1.033873    3.678923    1.005451
     23          1           0        2.018581    3.541632    1.109150
     24          1           0        0.622942    4.428060    1.525695
     25          7           0       -1.002741    3.104381    0.091722
     26          6           0        0.296733    2.894226    0.204962
     27          7           0        0.975669    1.899721   -0.456479
     28          1           0        1.969579    1.813095   -0.309500
     29          6           0        0.396646    0.983811   -1.329235
     30          8           0        1.099470    0.124449   -1.875378
     31          6           0       -0.999090    1.196983   -1.461086
     32          7           0       -1.945705    0.521155   -2.218758
     33          6           0       -3.066791    1.138483   -1.961301
     34          1           0       -4.034193    0.873202   -2.389112
     35          1           0       -4.652850    2.570911   -0.074218
     36          1           0       -3.536187    3.751901    0.064649
     37          1           0       -4.379810    3.587048   -1.321750
     38          1           0        6.769093    1.507912    1.341028
     39          1           0        7.119012    2.371360   -0.154523
     40          1           0        5.588876    2.640376    0.680743
     41          1           0        6.503066   -2.093182   -1.838281
     42          6           0        5.902536   -1.251572   -1.492886
     43          8           0        3.884418   -2.067068   -2.435888
     44          6           0        4.505155   -1.216045   -1.799321
     45          1           0        2.849603   -0.047712   -1.512136
     46          7           0        3.838773   -0.108232   -1.315644
     47          8           0        3.700781    1.868655   -0.206572
     48          6           0        4.373043    0.928404   -0.592126
     49          1           0        7.510114   -0.234798   -0.529718
     50          6           0        6.452415   -0.255213   -0.788966
     51          6           0        6.341414    1.906545    0.433140
     52          7           0        5.726110    0.822065   -0.336951
     53          1           0        4.044022   -0.456109    4.352355
     54          1           0        2.904669    0.588667    3.830428
     55          1           0        4.446841    0.739983    3.317687
     56          1           0        0.540071   -3.268641   -1.553362
     57          1           0        2.192537   -3.552019   -1.238467
     58          7           0        1.350270   -3.065696   -1.003330
     59          6           0        1.310354   -2.185836   -0.000620
     60          6           0        2.223575   -0.933040    1.804443
     61          7           0        1.078546   -0.294790    2.097631
     62          1           0       -0.861699   -0.208248    1.442996
     63          6           0        0.105607   -0.679437    1.274015
     64          7           0        0.143604   -1.560533    0.269126
     65          1           0        5.340655   -1.747256    2.074786
     66          6           0        4.295395   -1.650925    1.779640
     67          7           0        3.734680   -2.311904    0.796587
     68          6           0        2.420923   -1.866089    0.801443
     69          6           0        3.731978    0.089463    3.574546
     70          7           0        3.438909   -0.798586    2.432843
 ---------------------------------------------------------------------

 SCF Done:  E(RwB97XD) =  -2048.75049350     A.U. after   15 cycles

 The electronic state is 1-A.
 Alpha  occ. eigenvalues --  -19.26039 -19.22008 -19.20851 -14.52583 -14.50731
 Alpha  occ. eigenvalues --  -14.49824 -14.48727 -14.47819 -14.47109 -14.46872
 Alpha  occ. eigenvalues --  -14.45066 -14.43478 -14.42609 -14.42575 -14.42198
 Alpha  occ. eigenvalues --  -14.42164 -14.41975 -14.41766 -14.40920 -14.40902
 Alpha  occ. eigenvalues --  -10.45612 -10.41384 -10.40153 -10.38461 -10.37616
 Alpha  occ. eigenvalues --  -10.37450 -10.36170 -10.36167 -10.35793 -10.35192
 Alpha  occ. eigenvalues --  -10.35183 -10.34452 -10.34395 -10.33875 -10.33821
 Alpha  occ. eigenvalues --  -10.33238 -10.32783 -10.31824 -10.30995 -10.30609
 Alpha  occ. eigenvalues --  -10.30466 -10.29578 -10.28248  -1.19594  -1.13443
 Alpha  occ. eigenvalues --   -1.13328  -1.12976  -1.12426  -1.10674  -1.09457
 Alpha  occ. eigenvalues --   -1.08777  -1.06824  -1.05812  -1.02540  -1.02310
 Alpha  occ. eigenvalues --   -1.01206  -0.99938  -0.99014  -0.98672  -0.97926
 Alpha  occ. eigenvalues --   -0.96587  -0.94505  -0.93386  -0.91003  -0.85771
 Alpha  occ. eigenvalues --   -0.84910  -0.84290  -0.84125  -0.83941  -0.83243
 Alpha  occ. eigenvalues --   -0.82411  -0.78896  -0.74953  -0.74667  -0.73803
 Alpha  occ. eigenvalues --   -0.73750  -0.73387  -0.72672  -0.71932  -0.68261
 Alpha  occ. eigenvalues --   -0.67508  -0.67137  -0.66608  -0.64577  -0.64478
 Alpha  occ. eigenvalues --   -0.63821  -0.63523  -0.62770  -0.62093  -0.61854
 Alpha  occ. eigenvalues --   -0.60922  -0.60158  -0.59582  -0.58537  -0.58503
 Alpha  occ. eigenvalues --   -0.58064  -0.57735  -0.57398  -0.57022  -0.56523
 Alpha  occ. eigenvalues --   -0.56113  -0.55952  -0.54468  -0.54344  -0.53723
 Alpha  occ. eigenvalues --   -0.53621  -0.53577  -0.52977  -0.52727  -0.52689
 Alpha  occ. eigenvalues --   -0.52042  -0.51808  -0.51694  -0.51032  -0.50871
 Alpha  occ. eigenvalues --   -0.50244  -0.49846  -0.49513  -0.48896  -0.48501
 Alpha  occ. eigenvalues --   -0.48272  -0.48124  -0.47934  -0.47796  -0.47705
 Alpha  occ. eigenvalues --   -0.47350  -0.45903  -0.44868  -0.44095  -0.42666
 Alpha  occ. eigenvalues --   -0.42035  -0.39626  -0.38753  -0.38087  -0.37439
 Alpha  occ. eigenvalues --   -0.37324  -0.36319  -0.35496  -0.35200  -0.34571
 Alpha  occ. eigenvalues --   -0.34455  -0.34377  -0.33343  -0.32878  -0.32579
 Alpha  occ. eigenvalues --   -0.32523  -0.32208  -0.32019  -0.31871  -0.31846
 Alpha  occ. eigenvalues --   -0.31088  -0.27637  -0.26498  -0.25563
 Alpha virt. eigenvalues --    0.03124   0.05905   0.06992   0.08207   0.08992
 Alpha virt. eigenvalues --    0.09254   0.09675   0.10279   0.10739   0.12737
 Alpha virt. eigenvalues --    0.13147   0.13325   0.14425   0.14811   0.15578

 Mulliken charges:
               1
     1  N   -0.310052
     2  C    0.180544
     3  C    0.025685
     4  N   -0.256640
     5  C    0.129135
     6  H    0.029234
     7  N   -0.281438
     8  C    0.131557
     9  H    0.018151
    10  N   -0.290225
    11  C    0.237767
    12  C    0.087574
    13  N   -0.029892
    14  H    0.107784
    15  H    0.092306
    16  H    0.028462
    17  H    0.036800
    18  H    0.024910
    19  N   -0.305369
    20  C    0.254502
    21  C    0.181284
    22  N   -0.123346
    23  H    0.113235
    24  H    0.119034
    25  N   -0.307892
    26  C    0.246870
    27  N   -0.134045
    28  H    0.117882
    29  C    0.173566
    30  O   -0.327156
    31  C   -0.011414
    32  N   -0.230545
    33  C    0.124707
    34  H    0.031353
    35  H    0.032265
    36  H    0.028195
    37  H    0.022294
    38  H    0.053480
    39  H    0.063825
    40  H    0.074991
    41  H    0.029854
    42  C   -0.079203
    43  O   -0.280301
    44  C    0.193451
    45  H    0.134379
    46  N   -0.126884
    47  O   -0.352452
    48  C    0.345103
    49  H    0.044084
    50  C    0.154063
    51  C    0.039327
    52  N   -0.290906
    53  H    0.030188
    54  H    0.039409
    55  H    0.016069
    56  H    0.114002
    57  H    0.121366
    58  N   -0.039794
    59  C    0.125607
    60  C    0.244042
    61  N   -0.277381
    62  H    0.032015
    63  C    0.155815
    64  N   -0.306598
    65  H    0.022017
    66  C    0.117265
    67  N   -0.247935
    68  C    0.008583
    69  C    0.181445
    70  N   -0.306008
 Sum of Mulliken charges =  -0.00000

 Dipole moment (field-independent basis, Debye):
    X=              4.7980    Y=              5.3113    Z=              4.6468  Tot=              8.5337
 Quadrupole moment (field-independent basis, Debye-Ang):
   XX=           -139.5490   YY=           -228.8139   ZZ=           -250.8076
   XY=              7.8058   XZ=             27.3519   YZ=              5.6429

 Normal termination of Gaussian 16 at Thu Jan 18 10:08:31 2018.
