 Gaussian 16, Revision A.03,
 Gaussian 16:  EM64L-G16RevA.03 25-Dec-2016

 ---------------------------------------
 #p wb97xd/cc-pvdz sp scf=(maxcycles=20)
 ---------------------------------------

 ------------------
 Base pair stacking
 ------------------
 Symbolic Z-matrix:
 Charge =  0 Multiplicity = 1

                         Standard orientation:
 ---------------------------------------------------------------------
 Center     Atomic      Atomic             Coordinates (Angstroms)
 Number     Number       Type             X           Y           Z
 ---------------------------------------------------------------------
      1          7           0        4.525128   -0.757287   -1.905809
      2          6           0        5.792908   -0.058728   -2.193485
      3          6           0        2.396654   -1.218489   -1.598886
      4          7           0        3.086780   -2.399869   -1.369126
      5          6           0        4.341492   -2.074722   -1.563230
      6          1           0        5.182001   -2.762938   -1.469103
      7          7           0        0.673322    0.374153   -1.836802
      8          6           0        1.632657    1.254184   -2.141431
      9          1           0        1.285733    2.263288   -2.359664
     10          7           0        2.949993    1.075700   -2.216614
     11          6           0        3.269855   -0.197230   -1.930655
     12          6           0        1.027514   -0.898511   -1.554021
     13          7           0        0.071338   -1.778437   -1.249702
     14          1           0        0.287635   -2.731185   -1.033577
     15          1           0       -0.893287   -1.515465   -1.227375
     16          1           0        6.246739   -0.495259   -2.970446
     17          1           0        5.604734    0.898064   -2.413155
     18          1           0        6.389961   -0.103880   -1.392561
     19          7           0        5.668554    0.565178    0.913207
     20          6           0        4.335666    0.896999    0.949849
     21          6           0        6.764132    1.474246    0.520751
     22          7           0        1.803411    3.230379    0.497334
     23          1           0        0.808709    3.266650    0.589481
     24          1           0        2.261700    4.066083    0.193525
     25          7           0        3.807124    2.099582    0.636006
     26          6           0        2.492652    2.111808    0.768728
     27          7           0        1.750659    1.030165    1.177384
     28          1           0        0.749895    1.130665    1.250473
     29          6           0        2.273360   -0.216835    1.505453
     30          8           0        1.515864   -1.127296    1.863239
     31          6           0        3.684419   -0.245397    1.367707
     32          7           0        4.590231   -1.273724    1.588956
     33          6           0        5.751475   -0.748038    1.307219
     34          1           0        6.703724   -1.275784    1.370164
     35          1           0        7.243641    1.098465   -0.271508
     36          1           0        6.384677    2.368224    0.286049
     37          1           0        7.404834    1.574516    1.281173
     38          1           0       -4.223207    2.085163    0.792267
     39          1           0       -4.124092    2.334805    2.533681
     40          1           0       -2.740305    2.716879    1.508738
     41          1           0       -4.148879   -2.472017    2.332758
     42          6           0       -3.458667   -1.643254    2.174663
     43          8           0       -1.516840   -3.003142    2.259096
     44          6           0       -2.051909   -1.902115    2.131708
     45          1           0       -0.268496   -0.927641    1.890517
     46          7           0       -1.267971   -0.784643    1.926897
     47          8           0       -0.924503    1.434636    1.589206
     48          6           0       -1.696970    0.509022    1.765863
     49          1           0       -4.967405   -0.142326    2.045363
     50          6           0       -3.907520   -0.392067    2.020841
     51          6           0       -3.571979    2.043278    1.652626
     52          7           0       -3.066575    0.677834    1.819606
     53          1           0       -6.790560    3.009611   -2.001158
     54          1           0       -5.417089    3.282923   -1.163927
     55          1           0       -6.828281    3.073930   -0.370864
     56          1           0       -3.209808   -3.386632   -0.847110
     57          1           0       -4.911551   -3.275714   -0.890312
     58          7           0       -4.025893   -2.810070   -0.888748
     59          6           0       -3.938125   -1.479340   -0.939920
     60          6           0       -4.803257    0.734608   -1.048102
     61          7           0       -3.600460    1.332684   -1.044601
     62          1           0       -1.615514    0.826440   -0.979142
     63          6           0       -2.627986    0.425063   -0.986171
     64          7           0       -2.713854   -0.908190   -0.934853
     65          1           0       -8.028234    0.516673   -1.112873
     66          6           0       -6.956240    0.319865   -1.080590
     67          7           0       -6.419271   -0.874186   -1.020638
     68          6           0       -5.054549   -0.625542   -0.999483
     69          6           0       -6.288166    2.792672   -1.164177
     70          7           0       -6.036509    1.339875   -1.100396
 ---------------------------------------------------------------------

 SCF Done:  E(RwB97XD) =  -2048.74233574     A.U. after   15 cycles

 The electronic state is 1-A.
 Alpha  occ. eigenvalues --  -19.25103 -19.21327 -19.20744 -14.52792 -14.51560
 Alpha  occ. eigenvalues --  -14.49512 -14.49039 -14.48296 -14.47065 -14.46868
 Alpha  occ. eigenvalues --  -14.46719 -14.45532 -14.44604 -14.44596 -14.42982
 Alpha  occ. eigenvalues --  -14.42012 -14.41616 -14.41495 -14.41387 -14.41001
 Alpha  occ. eigenvalues --  -10.44677 -10.41282 -10.40200 -10.39400 -10.38421
 Alpha  occ. eigenvalues --  -10.38115 -10.37495 -10.36863 -10.36201 -10.36061
 Alpha  occ. eigenvalues --  -10.34778 -10.34275 -10.34267 -10.33991 -10.33807
 Alpha  occ. eigenvalues --  -10.33662 -10.33535 -10.32925 -10.31812 -10.31338
 Alpha  occ. eigenvalues --  -10.30173 -10.28969 -10.28536  -1.18680  -1.15500
 Alpha  occ. eigenvalues --   -1.13440  -1.12323  -1.11631  -1.11113  -1.09652
 Alpha  occ. eigenvalues --   -1.08693  -1.08391  -1.05679  -1.05141  -1.01686
 Alpha  occ. eigenvalues --   -1.01188  -1.01046  -0.99808  -0.98805  -0.97400
 Alpha  occ. eigenvalues --   -0.97221  -0.97039  -0.93356  -0.90141  -0.87919
 Alpha  occ. eigenvalues --   -0.86212  -0.84877  -0.84199  -0.83324  -0.82664
 Alpha  occ. eigenvalues --   -0.82507  -0.78045  -0.77279  -0.75223  -0.75019
 Alpha  occ. eigenvalues --   -0.73765  -0.73370  -0.72531  -0.71575  -0.70650
 Alpha  occ. eigenvalues --   -0.67596  -0.67072  -0.66808  -0.65751  -0.64704
 Alpha  occ. eigenvalues --   -0.64478  -0.63267  -0.63242  -0.62751  -0.61953
 Alpha  occ. eigenvalues --   -0.61013  -0.60966  -0.60637  -0.59845  -0.59336
 Alpha  occ. eigenvalues --   -0.58933  -0.58787  -0.58397  -0.57091  -0.56087
 Alpha  occ. eigenvalues --   -0.55717  -0.55572  -0.55018  -0.54658  -0.54416
 Alpha  occ. eigenvalues --   -0.54238  -0.53853  -0.53322  -0.53134  -0.53053
 Alpha  occ. eigenvalues --   -0.52631  -0.52142  -0.51352  -0.50820  -0.50536
 Alpha  occ. eigenvalues --   -0.50360  -0.50166  -0.49430  -0.49413  -0.49205
 Alpha  occ. eigenvalues --   -0.48864  -0.48745  -0.48126  -0.47464  -0.47399
 Alpha  occ. eigenvalues --   -0.47126  -0.46051  -0.45115  -0.44862  -0.42894
 Alpha  occ. eigenvalues --   -0.41350  -0.40821  -0.38882  -0.38058  -0.37955
 Alpha  occ. eigenvalues --   -0.37757  -0.37434  -0.37197  -0.35584  -0.34940
 Alpha  occ. eigenvalues --   -0.34537  -0.34170  -0.33866  -0.33688  -0.33149
 Alpha  occ. eigenvalues --   -0.33082  -0.32487  -0.32028  -0.31419  -0.31218
 Alpha  occ. eigenvalues --   -0.30879  -0.29923  -0.27059  -0.25073
 Alpha virt. eigenvalues --    0.03458   0.04324   0.06474   0.07377   0.08553
 Alpha virt. eigenvalues --    0.09094   0.09455   0.10163   0.10590   0.12509
 Alpha virt. eigenvalues --    0.13255   0.13331   0.14025   0.14590   0.14796

 Mulliken charges:
               1
     1  N   -0.296328
     2  C    0.193251
     3  C    0.048721
     4  N   -0.243174
     5  C    0.145437
     6  H    0.026215
     7  N   -0.283870
     8  C    0.118803
     9  H    0.002439
    10  N   -0.269259
    11  C    0.225979
    12  C    0.076921
    13  N   -0.052506
    14  H    0.115342
    15  H    0.086506
    16  H    0.027129
    17  H    0.035102
    18  H   -0.000930
    19  N   -0.299967
    20  C    0.234101
    21  C    0.179443
    22  N   -0.109256
    23  H    0.119179
    24  H    0.119517
    25  N   -0.286687
    26  C    0.218226
    27  N   -0.122960
    28  H    0.119397
    29  C    0.179287
    30  O   -0.318055
    31  C   -0.003788
    32  N   -0.210454
    33  C    0.098675
    34  H    0.022755
    35  H    0.007313
    36  H    0.036849
    37  H    0.029464
    38  H    0.049858
    39  H    0.046299
    40  H    0.072010
    41  H    0.019669
    42  C   -0.100272
    43  O   -0.274782
    44  C    0.176937
    45  H    0.129988
    46  N   -0.117112
    47  O   -0.344911
    48  C    0.318313
    49  H    0.044898
    50  C    0.154050
    51  C    0.056847
    52  N   -0.267063
    53  H    0.037652
    54  H    0.044963
    55  H    0.029370
    56  H    0.125389
    57  H    0.119935
    58  N   -0.058643
    59  C    0.104754
    60  C    0.221596
    61  N   -0.277087
    62  H    0.034560
    63  C    0.165439
    64  N   -0.307547
    65  H    0.039695
    66  C    0.138290
    67  N   -0.256381
    68  C    0.039330
    69  C    0.178013
    70  N   -0.312872
 Sum of Mulliken charges =  -0.00000

 Dipole moment (field-independent basis, Debye):
    X=             -5.1130    Y=              7.5672    Z=             -2.4476  Tot=              9.4550
 Quadrupole moment (field-independent basis, Debye-Ang):
   XX=           -146.1381   YY=           -231.5174   ZZ=           -257.1406
   XY=             -5.5643   XZ=            -10.1456   YZ=             15.4653

 Normal termination of Gaussian 16 at Thu Jan 18 13:40:46 2018.
