 Gaussian 16, Revision A.03,
 Gaussian 16:  EM64L-G16RevA.03 25-Dec-2016

 ---------------------------------------
 #p wb97xd/cc-pvdz sp scf=(maxcycles=20)
 ---------------------------------------

 ------------------
 Base pair stacking
 ------------------
 Symbolic Z-matrix:
 Charge =  0 Multiplicity = 1

                         Standard orientation:
 ---------------------------------------------------------------------
 Center     Atomic      Atomic             Coordinates (Angstroms)
 Number     Number       Type             X           Y           Z
 ---------------------------------------------------------------------
      1          7           0        5.116455   -1.573273   -1.047929
      2          6           0        6.389565   -1.114310   -1.636607
      3          6           0        2.980491   -1.854105   -0.605085
      4          7           0        3.670302   -2.678967    0.271556
      5          6           0        4.929526   -2.476762   -0.030333
      6          1           0        5.771200   -2.964815    0.461947
      7          7           0        1.255150   -0.728472   -1.753602
      8          6           0        2.219237   -0.139319   -2.468460
      9          1           0        1.873330    0.561094   -3.227427
     10          7           0        3.540262   -0.284782   -2.386917
     11          6           0        3.858480   -1.166286   -1.424571
     12          6           0        1.607805   -1.610388   -0.792910
     13          7           0        0.646877   -2.199512   -0.078271
     14          1           0        0.861882   -2.858904    0.642984
     15          1           0       -0.320166   -2.001973   -0.239373
     16          1           0        6.882808   -1.896047   -2.018399
     17          1           0        6.202783   -0.452625   -2.362145
     18          1           0        6.949428   -0.682096   -0.929679
     19          7           0        5.103346    1.258216    0.722437
     20          6           0        3.767634    1.518893    0.532765
     21          6           0        6.211149    1.898086   -0.015160
     22          7           0        1.244314    3.244921   -1.115093
     23          1           0        0.245731    3.286697   -1.096836
     24          1           0        1.711537    3.841738   -1.767955
     25          7           0        3.246959    2.396306   -0.352167
     26          6           0        1.927059    2.425709   -0.301061
     27          7           0        1.172870    1.655589    0.550774
     28          1           0        0.168744    1.743870    0.520747
     29          6           0        1.687302    0.746155    1.469552
     30          8           0        0.918996    0.099994    2.192682
     31          6           0        3.104060    0.703438    1.426355
     32          7           0        4.005055   -0.053940    2.162226
     33          6           0        5.175587    0.307819    1.711465
     34          1           0        6.127423   -0.088499    2.066739
     35          1           0        6.737509    1.200655   -0.500273
     36          1           0        5.837595    2.550126   -0.673613
     37          1           0        6.807407    2.378866    0.626815
     38          1           0       -4.779100    2.178959   -0.566568
     39          1           0       -4.779772    3.249571    0.832876
     40          1           0       -3.344205    3.131342   -0.185237
     41          1           0       -4.751147   -1.042180    3.006948
     42          6           0       -4.060457   -0.372235    2.494752
     43          8           0       -2.114557   -1.449297    3.319667
     44          6           0       -2.651285   -0.569749    2.646535
     45          1           0       -0.865778    0.225016    2.039366
     46          7           0       -1.866939    0.332521    1.956644
     47          8           0       -1.524576    2.115652    0.592662
     48          6           0       -2.297577    1.367400    1.164734
     49          1           0       -5.572701    0.821136    1.581068
     50          6           0       -4.510949    0.628422    1.729004
     51          6           0       -4.176690    2.584855    0.232442
     52          7           0       -3.669474    1.492945    1.068025
     53          1           0       -6.217533    1.107657   -3.616394
     54          1           0       -4.886761    1.849743   -3.032926
     55          1           0       -6.331014    2.074433   -2.306482
     56          1           0       -2.634156   -3.414054    1.050428
     57          1           0       -4.333060   -3.403849    0.896382
     58          7           0       -3.452806   -2.988057    0.665092
     59          6           0       -3.375224   -1.913274   -0.122311
     60          6           0       -4.255115   -0.172113   -1.484625
     61          7           0       -3.059414    0.364960   -1.778325
     62          1           0       -1.074941    0.049823   -1.374355
     63          6           0       -2.082219   -0.320149   -1.187868
     64          7           0       -2.157885   -1.396865   -0.398876
     65          1           0       -7.471496   -0.497252   -1.521763
     66          6           0       -6.400334   -0.605812   -1.349187
     67          7           0       -5.855556   -1.541599   -0.610811
     68          6           0       -4.495650   -1.278164   -0.688176
     69          6           0       -5.752270    1.414828   -2.786226
     70          7           0       -5.490255    0.257602   -1.908635
 ---------------------------------------------------------------------

 SCF Done:  E(RwB97XD) =  -2048.74507319     A.U. after   15 cycles

 The electronic state is 1-A.
 Alpha  occ. eigenvalues --  -19.25320 -19.21573 -19.20620 -14.52534 -14.51872
 Alpha  occ. eigenvalues --  -14.49184 -14.49082 -14.47796 -14.47219 -14.46747
 Alpha  occ. eigenvalues --  -14.46613 -14.45276 -14.44269 -14.44220 -14.42772
 Alpha  occ. eigenvalues --  -14.41898 -14.41501 -14.41394 -14.41130 -14.40901
 Alpha  occ. eigenvalues --  -10.44889 -10.41119 -10.39732 -10.39638 -10.38248
 Alpha  occ. eigenvalues --  -10.37879 -10.37142 -10.37070 -10.35955 -10.35775
 Alpha  occ. eigenvalues --  -10.34671 -10.34455 -10.34317 -10.34194 -10.33788
 Alpha  occ. eigenvalues --  -10.33629 -10.33611 -10.32481 -10.31795 -10.31347
 Alpha  occ. eigenvalues --  -10.30376 -10.28906 -10.28226  -1.18914  -1.15209
 Alpha  occ. eigenvalues --   -1.13222  -1.12576  -1.11729  -1.10771  -1.09189
 Alpha  occ. eigenvalues --   -1.08769  -1.08522  -1.05589  -1.04641  -1.01966
 Alpha  occ. eigenvalues --   -1.00940  -1.00910  -0.99680  -0.98548  -0.97411
 Alpha  occ. eigenvalues --   -0.96784  -0.96726  -0.93252  -0.90438  -0.87600
 Alpha  occ. eigenvalues --   -0.86021  -0.84673  -0.84144  -0.83221  -0.83078
 Alpha  occ. eigenvalues --   -0.82571  -0.78321  -0.76921  -0.74784  -0.74749
 Alpha  occ. eigenvalues --   -0.73611  -0.73366  -0.72808  -0.71524  -0.70276
 Alpha  occ. eigenvalues --   -0.67432  -0.66793  -0.66666  -0.66018  -0.64442
 Alpha  occ. eigenvalues --   -0.64111  -0.63552  -0.63200  -0.62611  -0.61790
 Alpha  occ. eigenvalues --   -0.61326  -0.60844  -0.60366  -0.59497  -0.59013
 Alpha  occ. eigenvalues --   -0.58746  -0.58612  -0.58326  -0.57074  -0.55988
 Alpha  occ. eigenvalues --   -0.55693  -0.55428  -0.55333  -0.54400  -0.54247
 Alpha  occ. eigenvalues --   -0.54101  -0.53669  -0.53491  -0.53028  -0.52868
 Alpha  occ. eigenvalues --   -0.52720  -0.52328  -0.51821  -0.51008  -0.50733
 Alpha  occ. eigenvalues --   -0.50216  -0.50066  -0.49334  -0.49200  -0.48922
 Alpha  occ. eigenvalues --   -0.48820  -0.48301  -0.48166  -0.47956  -0.47443
 Alpha  occ. eigenvalues --   -0.47215  -0.46179  -0.44842  -0.44637  -0.43249
 Alpha  occ. eigenvalues --   -0.41428  -0.40630  -0.38983  -0.37765  -0.37592
 Alpha  occ. eigenvalues --   -0.37431  -0.37243  -0.37041  -0.35930  -0.34659
 Alpha  occ. eigenvalues --   -0.34470  -0.34131  -0.33821  -0.33664  -0.32963
 Alpha  occ. eigenvalues --   -0.32612  -0.32367  -0.31879  -0.31502  -0.31082
 Alpha  occ. eigenvalues --   -0.30791  -0.29738  -0.27074  -0.24644
 Alpha virt. eigenvalues --    0.03105   0.04556   0.06640   0.06990   0.08463
 Alpha virt. eigenvalues --    0.09418   0.09992   0.10534   0.11150   0.12277
 Alpha virt. eigenvalues --    0.12736   0.13678   0.14169   0.14606   0.15085

 Mulliken charges:
               1
     1  N   -0.300942
     2  C    0.182356
     3  C    0.058593
     4  N   -0.238134
     5  C    0.130700
     6  H    0.024278
     7  N   -0.286195
     8  C    0.129475
     9  H    0.008205
    10  N   -0.275061
    11  C    0.229303
    12  C    0.070713
    13  N   -0.042379
    14  H    0.114301
    15  H    0.085788
    16  H    0.027342
    17  H    0.035442
    18  H    0.019870
    19  N   -0.297589
    20  C    0.245211
    21  C    0.191239
    22  N   -0.120500
    23  H    0.118472
    24  H    0.118828
    25  N   -0.295654
    26  C    0.229248
    27  N   -0.131720
    28  H    0.120721
    29  C    0.175600
    30  O   -0.322559
    31  C   -0.006955
    32  N   -0.211004
    33  C    0.109824
    34  H    0.019489
    35  H   -0.008947
    36  H    0.035954
    37  H    0.026687
    38  H    0.022155
    39  H    0.055657
    40  H    0.078788
    41  H    0.021098
    42  C   -0.102240
    43  O   -0.273652
    44  C    0.165541
    45  H    0.127710
    46  N   -0.104663
    47  O   -0.347549
    48  C    0.326935
    49  H    0.044451
    50  C    0.169105
    51  C    0.057512
    52  N   -0.271616
    53  H    0.036269
    54  H    0.042438
    55  H    0.031855
    56  H    0.125832
    57  H    0.118048
    58  N   -0.045011
    59  C    0.084963
    60  C    0.214443
    61  N   -0.265003
    62  H    0.023565
    63  C    0.161566
    64  N   -0.297952
    65  H    0.036939
    66  C    0.127296
    67  N   -0.252179
    68  C    0.047425
    69  C    0.178684
    70  N   -0.308410
 Sum of Mulliken charges =  -0.00000

 Dipole moment (field-independent basis, Debye):
    X=             -4.8190    Y=              5.1456    Z=             -5.7946  Tot=              9.1257
 Quadrupole moment (field-independent basis, Debye-Ang):
   XX=           -146.6290   YY=           -224.7103   ZZ=           -262.6473
   XY=            -10.8846   XZ=              2.2498   YZ=             -5.1538

 Normal termination of Gaussian 16 at Wed Jan 17 19:19:32 2018.
