 Gaussian 16, Revision A.03,
 Gaussian 16:  EM64L-G16RevA.03 25-Dec-2016

 ---------------------------------------
 #p wb97xd/cc-pvdz sp scf=(maxcycles=20)
 ---------------------------------------

 ------------------
 Base pair stacking
 ------------------
 Symbolic Z-matrix:
 Charge =  0 Multiplicity = 1

                         Standard orientation:
 ---------------------------------------------------------------------
 Center     Atomic      Atomic             Coordinates (Angstroms)
 Number     Number       Type             X           Y           Z
 ---------------------------------------------------------------------
      1          7           0        5.418995   -1.135287   -1.144074
      2          6           0        6.695058   -0.480669   -1.492111
      3          6           0        3.279985   -1.591580   -0.912248
      4          7           0        3.967208   -2.645746   -0.328129
      5          6           0        5.228379   -2.328651   -0.491175
      6          1           0        6.068918   -2.934560   -0.151593
      7          7           0        1.557465   -0.185258   -1.698449
      8          6           0        2.524733    0.627524   -2.135903
      9          1           0        2.181242    1.532484   -2.635223
     10          7           0        3.846388    0.490906   -2.049566
     11          6           0        4.161459   -0.652859   -1.419513
     12          6           0        1.907004   -1.328136   -1.068589
     13          7           0        0.942898   -2.140760   -0.631193
     14          1           0        1.155514   -2.997263   -0.159578
     15          1           0       -0.024256   -1.921247   -0.759935
     16          1           0        7.227453   -1.081207   -2.088837
     17          1           0        6.510693    0.380017   -1.965768
     18          1           0        7.215380   -0.295562   -0.658441
     19          7           0        4.805525    1.082558    1.044626
     20          6           0        3.469231    1.349096    0.867683
     21          6           0        5.915817    1.852595    0.448806
     22          7           0        0.947671    3.280803   -0.536609
     23          1           0       -0.051708    3.302815   -0.536089
     24          1           0        1.416713    3.984087   -1.071500
     25          7           0        2.950139    2.351175    0.125765
     26          6           0        1.629123    2.350381    0.148847
     27          7           0        0.872457    1.438871    0.844636
     28          1           0       -0.132354    1.514584    0.805017
     29          6           0        1.385230    0.399561    1.614546
     30          8           0        0.614728   -0.368805    2.203333
     31          6           0        2.803161    0.387500    1.599453
     32          7           0        3.703189   -0.465566    2.223239
     33          6           0        4.875619   -0.015851    1.866356
     34          1           0        5.827382   -0.449561    2.175088
     35          1           0        6.466258    1.252786   -0.130887
     36          1           0        5.543459    2.597638   -0.103032
     37          1           0        6.488499    2.231216    1.175096
     38          1           0       -5.063560    2.041733   -0.316620
     39          1           0       -5.115525    2.868237    1.238642
     40          1           0       -3.656469    2.941852    0.250162
     41          1           0       -5.047546   -1.720882    2.681553
     42          6           0       -4.359611   -0.964898    2.302792
     43          8           0       -2.410620   -2.130936    2.987560
     44          6           0       -2.950324   -1.161746    2.454482
     45          1           0       -1.168510   -0.249308    2.029133
     46          7           0       -2.169622   -0.145944    1.940758
     47          8           0       -1.833923    1.842016    0.895533
     48          6           0       -2.603852    0.997650    1.318521
     49          1           0       -5.875540    0.337442    1.560046
     50          6           0       -4.813547    0.140334    1.700285
     51          6           0       -4.486587    2.320840    0.552440
     52          7           0       -3.975608    1.115079    1.210283
     53          1           0       -5.905558    2.007830   -3.173563
     54          1           0       -4.621586    2.542264   -2.320383
     55          1           0       -6.096634    2.483279   -1.624087
     56          1           0       -2.331413   -3.729005   -0.110943
     57          1           0       -4.023422   -3.703839   -0.326760
     58          7           0       -3.150481   -3.216592   -0.369189
     59          6           0       -3.082783   -1.940228   -0.753226
     60          6           0       -3.974548    0.135220   -1.500888
     61          7           0       -2.788544    0.764140   -1.548365
     62          1           0       -0.809427    0.374492   -1.185197
     63          6           0       -1.809273   -0.057344   -1.175409
     64          7           0       -1.875043   -1.336029   -0.790430
     65          1           0       -7.174814   -0.226379   -1.783287
     66          6           0       -6.107091   -0.363589   -1.609811
     67          7           0       -5.556222   -1.479599   -1.198998
     68          6           0       -4.204256   -1.177044   -1.125746
     69          6           0       -5.479679    2.032188   -2.269116
     70          7           0       -5.208438    0.655263   -1.812487
 ---------------------------------------------------------------------

 SCF Done:  E(RwB97XD) =  -2048.72186967     A.U. after   15 cycles

 The electronic state is 1-A.
 Alpha  occ. eigenvalues --  -19.25043 -19.21436 -19.20473 -14.52642 -14.51790
 Alpha  occ. eigenvalues --  -14.49430 -14.48859 -14.47805 -14.47221 -14.46540
 Alpha  occ. eigenvalues --  -14.46534 -14.45370 -14.44231 -14.44180 -14.43073
 Alpha  occ. eigenvalues --  -14.41850 -14.41690 -14.41370 -14.41013 -14.40966
 Alpha  occ. eigenvalues --  -10.44726 -10.40900 -10.39748 -10.39530 -10.38102
 Alpha  occ. eigenvalues --  -10.38008 -10.37182 -10.37087 -10.36194 -10.35824
 Alpha  occ. eigenvalues --  -10.34559 -10.34494 -10.34250 -10.34208 -10.33967
 Alpha  occ. eigenvalues --  -10.33765 -10.33505 -10.32514 -10.32093 -10.30811
 Alpha  occ. eigenvalues --  -10.30401 -10.29065 -10.28088  -1.18818  -1.15417
 Alpha  occ. eigenvalues --   -1.13096  -1.12440  -1.11991  -1.10575  -1.09190
 Alpha  occ. eigenvalues --   -1.08703  -1.08406  -1.05786  -1.04678  -1.01934
 Alpha  occ. eigenvalues --   -1.01190  -1.01147  -0.99565  -0.98379  -0.97744
 Alpha  occ. eigenvalues --   -0.96791  -0.96552  -0.93453  -0.90380  -0.87845
 Alpha  occ. eigenvalues --   -0.86449  -0.85023  -0.83970  -0.83476  -0.83057
 Alpha  occ. eigenvalues --   -0.82306  -0.78269  -0.77022  -0.74857  -0.74572
 Alpha  occ. eigenvalues --   -0.73674  -0.73422  -0.72786  -0.71740  -0.70427
 Alpha  occ. eigenvalues --   -0.67372  -0.66987  -0.66779  -0.66087  -0.64370
 Alpha  occ. eigenvalues --   -0.64255  -0.63792  -0.63423  -0.62489  -0.62461
 Alpha  occ. eigenvalues --   -0.61652  -0.61157  -0.60540  -0.59636  -0.59366
 Alpha  occ. eigenvalues --   -0.59049  -0.58412  -0.58210  -0.57332  -0.56332
 Alpha  occ. eigenvalues --   -0.55641  -0.55563  -0.55318  -0.54441  -0.54134
 Alpha  occ. eigenvalues --   -0.53946  -0.53863  -0.53372  -0.52996  -0.52802
 Alpha  occ. eigenvalues --   -0.52508  -0.52272  -0.51351  -0.51211  -0.50845
 Alpha  occ. eigenvalues --   -0.50169  -0.49883  -0.49548  -0.49022  -0.48808
 Alpha  occ. eigenvalues --   -0.48569  -0.48463  -0.48121  -0.47840  -0.47488
 Alpha  occ. eigenvalues --   -0.47070  -0.46123  -0.45053  -0.44326  -0.42917
 Alpha  occ. eigenvalues --   -0.41595  -0.40733  -0.38813  -0.37756  -0.37712
 Alpha  occ. eigenvalues --   -0.37489  -0.37025  -0.36604  -0.36022  -0.34877
 Alpha  occ. eigenvalues --   -0.34624  -0.34374  -0.33900  -0.33637  -0.32810
 Alpha  occ. eigenvalues --   -0.32443  -0.32129  -0.31779  -0.31400  -0.31225
 Alpha  occ. eigenvalues --   -0.30896  -0.29694  -0.27200  -0.24535
 Alpha virt. eigenvalues --    0.03084   0.04533   0.06814   0.07044   0.08539
 Alpha virt. eigenvalues --    0.09236   0.10014   0.10308   0.10918   0.12631
 Alpha virt. eigenvalues --    0.12655   0.13685   0.14163   0.14723   0.14854

 Mulliken charges:
               1
     1  N   -0.304082
     2  C    0.197997
     3  C    0.069780
     4  N   -0.241556
     5  C    0.123241
     6  H    0.024842
     7  N   -0.281856
     8  C    0.138429
     9  H    0.004148
    10  N   -0.267603
    11  C    0.213408
    12  C    0.071993
    13  N   -0.043233
    14  H    0.111974
    15  H    0.086133
    16  H    0.024327
    17  H    0.036640
    18  H    0.025796
    19  N   -0.287068
    20  C    0.226064
    21  C    0.205815
    22  N   -0.111576
    23  H    0.118273
    24  H    0.118002
    25  N   -0.279595
    26  C    0.203405
    27  N   -0.120740
    28  H    0.115223
    29  C    0.169374
    30  O   -0.322927
    31  C    0.004698
    32  N   -0.213412
    33  C    0.114161
    34  H    0.018021
    35  H   -0.040925
    36  H    0.037592
    37  H    0.023904
    38  H    0.011017
    39  H    0.053621
    40  H    0.081036
    41  H    0.024383
    42  C   -0.094313
    43  O   -0.269428
    44  C    0.162254
    45  H    0.129379
    46  N   -0.106239
    47  O   -0.341486
    48  C    0.326443
    49  H    0.042350
    50  C    0.164464
    51  C    0.057303
    52  N   -0.269531
    53  H    0.028463
    54  H    0.040504
    55  H    0.025330
    56  H    0.123646
    57  H    0.119783
    58  N   -0.053274
    59  C    0.098107
    60  C    0.199863
    61  N   -0.259619
    62  H    0.015372
    63  C    0.163725
    64  N   -0.294497
    65  H    0.036252
    66  C    0.121889
    67  N   -0.248555
    68  C    0.050695
    69  C    0.203172
    70  N   -0.310778
 Sum of Mulliken charges =  -0.00000

 Dipole moment (field-independent basis, Debye):
    X=             -4.6932    Y=              5.7816    Z=             -5.3982  Tot=              9.1975
 Quadrupole moment (field-independent basis, Debye-Ang):
   XX=           -146.5748   YY=           -224.5421   ZZ=           -264.9129
   XY=            -11.9132   XZ=              3.6882   YZ=              3.6135

 Normal termination of Gaussian 16 at Wed Jan 17 21:24:26 2018.
