 Gaussian 16, Revision A.03,
 Gaussian 16:  EM64L-G16RevA.03 25-Dec-2016

 ---------------------------------------
 #p wb97xd/cc-pvdz sp scf=(maxcycles=20)
 ---------------------------------------

 ------------------
 Base pair stacking
 ------------------
 Symbolic Z-matrix:
 Charge =  0 Multiplicity = 1

                         Standard orientation:
 ---------------------------------------------------------------------
 Center     Atomic      Atomic             Coordinates (Angstroms)
 Number     Number       Type             X           Y           Z
 ---------------------------------------------------------------------
      1          7           0        4.800057   -2.075571   -0.609478
      2          6           0        6.059963   -1.956695   -1.368761
      3          6           0        2.677385   -2.055354   -0.034011
      4          7           0        3.379514   -2.472972    1.087293
      5          6           0        4.630245   -2.468434    0.695718
      6          1           0        5.477538   -2.745222    1.323751
      7          7           0        0.938251   -1.431767   -1.500131
      8          6           0        1.887958   -1.233270   -2.420042
      9          1           0        1.530675   -0.895089   -3.391770
     10          7           0        3.206549   -1.389068   -2.320306
     11          6           0        3.539528   -1.806660   -1.087764
     12          6           0        1.305558   -1.851901   -0.269824
     13          7           0        0.358996   -2.050602    0.649804
     14          1           0        0.585134   -2.361393    1.573647
     15          1           0       -0.607917   -1.895671    0.446785
     16          1           0        6.514296   -2.846895   -1.404777
     17          1           0        5.861897   -1.646801   -2.298211
     18          1           0        6.661052   -1.295564   -0.919772
     19          7           0        5.400872    1.352569    0.237314
     20          6           0        4.068044    1.594607    0.007009
     21          6           0        6.507937    1.754974   -0.653285
     22          7           0        1.552560    2.920966   -1.986706
     23          1           0        0.555834    2.994040   -1.965438
     24          1           0        2.020102    3.321029   -2.775413
     25          7           0        3.549994    2.235539   -1.062982
     26          6           0        2.232502    2.313942   -1.002267
     27          7           0        1.478170    1.804313    0.026696
     28          1           0        0.476012    1.910402   -0.010398
     29          6           0        1.989940    1.141092    1.137603
     30          8           0        1.221749    0.719418    2.010990
     31          6           0        3.404082    1.049077    1.086524
     32          7           0        4.302000    0.476090    1.976647
     33          6           0        5.471148    0.679818    1.432771
     34          1           0        6.420516    0.358987    1.862934
     35          1           0        7.007473    0.943444   -0.954430
     36          1           0        6.136306    2.230698   -1.449438
     37          1           0        7.128594    2.364803   -0.161660
     38          1           0       -4.481679    2.196959   -1.102154
     39          1           0       -4.427977    3.584684   -0.017734
     40          1           0       -3.017058    3.173905   -0.993408
     41          1           0       -4.455682   -0.021420    3.166894
     42          6           0       -3.760134    0.478501    2.492701
     43          8           0       -1.823526   -0.410747    3.534767
     44          6           0       -2.353170    0.285968    2.669402
     45          1           0       -0.562374    0.851982    1.856385
     46          7           0       -1.562217    0.963329    1.763413
     47          8           0       -1.206190    2.335762   -0.010525
     48          6           0       -1.984622    1.777466    0.742485
     49          1           0       -5.262385    1.445742    1.329309
     50          6           0       -4.202639    1.266662    1.505992
     51          6           0       -3.853377    2.773648   -0.439792
     52          7           0       -3.354873    1.913166    0.636691
     53          1           0       -6.550499   -0.208381   -3.759366
     54          1           0       -5.175828    0.650149   -3.571470
     55          1           0       -6.581388    1.217425   -2.965940
     56          1           0       -2.905179   -2.546402    2.266470
     57          1           0       -4.608063   -2.527230    2.166826
     58          7           0       -3.726767   -2.282840    1.760841
     59          6           0       -3.651623   -1.634265    0.596846
     60          6           0       -4.537803   -0.575881   -1.341258
     61          7           0       -3.340613   -0.260646   -1.862605
     62          1           0       -1.350760   -0.466179   -1.416683
     63          6           0       -2.359482   -0.681923   -1.067116
     64          7           0       -2.432700   -1.331677    0.099090
     65          1           0       -7.760867   -0.747628   -1.155567
     66          6           0       -6.686956   -0.821407   -0.981748
     67          7           0       -6.138639   -1.390778    0.063635
     68          6           0       -4.776200   -1.242079   -0.151777
     69          6           0       -6.042302    0.394095   -3.143942
     70          7           0       -5.776858   -0.306868   -1.872647
 ---------------------------------------------------------------------

 SCF Done:  E(RwB97XD) =  -2048.74692583     A.U. after   15 cycles

 The electronic state is 1-A.
 Alpha  occ. eigenvalues --  -19.25385 -19.21852 -19.20809 -14.52451 -14.51887
 Alpha  occ. eigenvalues --  -14.49303 -14.48890 -14.47689 -14.47309 -14.46991
 Alpha  occ. eigenvalues --  -14.46777 -14.45270 -14.44356 -14.44246 -14.42501
 Alpha  occ. eigenvalues --  -14.42147 -14.41334 -14.41241 -14.41118 -14.40693
 Alpha  occ. eigenvalues --  -10.44941 -10.41380 -10.39823 -10.39740 -10.38450
 Alpha  occ. eigenvalues --  -10.37857 -10.37113 -10.37026 -10.35846 -10.35721
 Alpha  occ. eigenvalues --  -10.34688 -10.34680 -10.34018 -10.33970 -10.33786
 Alpha  occ. eigenvalues --  -10.33564 -10.33413 -10.32525 -10.31607 -10.31440
 Alpha  occ. eigenvalues --  -10.30370 -10.28681 -10.28447  -1.18942  -1.15147
 Alpha  occ. eigenvalues --   -1.13419  -1.12814  -1.11433  -1.10978  -1.09253
 Alpha  occ. eigenvalues --   -1.08806  -1.08667  -1.05359  -1.04675  -1.02043
 Alpha  occ. eigenvalues --   -1.00854  -1.00681  -0.99874  -0.98772  -0.97141
 Alpha  occ. eigenvalues --   -0.96949  -0.96741  -0.93023  -0.90478  -0.87556
 Alpha  occ. eigenvalues --   -0.85872  -0.84592  -0.84097  -0.83179  -0.82984
 Alpha  occ. eigenvalues --   -0.82552  -0.78344  -0.76908  -0.74953  -0.74793
 Alpha  occ. eigenvalues --   -0.73800  -0.73105  -0.72862  -0.71284  -0.70240
 Alpha  occ. eigenvalues --   -0.67609  -0.66678  -0.66521  -0.66028  -0.64598
 Alpha  occ. eigenvalues --   -0.64049  -0.63610  -0.62937  -0.62776  -0.61980
 Alpha  occ. eigenvalues --   -0.60666  -0.60603  -0.60268  -0.59455  -0.59032
 Alpha  occ. eigenvalues --   -0.58810  -0.58503  -0.58108  -0.56796  -0.55889
 Alpha  occ. eigenvalues --   -0.55781  -0.55707  -0.55190  -0.54481  -0.54220
 Alpha  occ. eigenvalues --   -0.54097  -0.53622  -0.53574  -0.53204  -0.52963
 Alpha  occ. eigenvalues --   -0.52717  -0.51994  -0.51911  -0.50869  -0.50555
 Alpha  occ. eigenvalues --   -0.50434  -0.50001  -0.49537  -0.49139  -0.49100
 Alpha  occ. eigenvalues --   -0.48936  -0.48504  -0.48335  -0.47578  -0.47353
 Alpha  occ. eigenvalues --   -0.47191  -0.46114  -0.44931  -0.44875  -0.43079
 Alpha  occ. eigenvalues --   -0.41282  -0.40630  -0.39100  -0.37888  -0.37572
 Alpha  occ. eigenvalues --   -0.37433  -0.37390  -0.37173  -0.35843  -0.34563
 Alpha  occ. eigenvalues --   -0.34430  -0.34039  -0.33782  -0.33562  -0.33183
 Alpha  occ. eigenvalues --   -0.32863  -0.32488  -0.31970  -0.31374  -0.31065
 Alpha  occ. eigenvalues --   -0.30658  -0.29817  -0.26816  -0.24906
 Alpha virt. eigenvalues --    0.03594   0.04167   0.06618   0.07422   0.08589
 Alpha virt. eigenvalues --    0.09273   0.09734   0.10546   0.10983   0.11994
 Alpha virt. eigenvalues --    0.12946   0.13533   0.14196   0.14479   0.14985

 Mulliken charges:
               1
     1  N   -0.303383
     2  C    0.186474
     3  C    0.043642
     4  N   -0.236160
     5  C    0.139974
     6  H    0.024082
     7  N   -0.292593
     8  C    0.129175
     9  H    0.009439
    10  N   -0.283396
    11  C    0.239907
    12  C    0.076706
    13  N   -0.045630
    14  H    0.117260
    15  H    0.086724
    16  H    0.027161
    17  H    0.034759
    18  H    0.008276
    19  N   -0.303981
    20  C    0.255584
    21  C    0.184897
    22  N   -0.123399
    23  H    0.118365
    24  H    0.119616
    25  N   -0.307432
    26  C    0.247103
    27  N   -0.142041
    28  H    0.121414
    29  C    0.185134
    30  O   -0.321068
    31  C   -0.013473
    32  N   -0.209932
    33  C    0.105922
    34  H    0.020437
    35  H    0.008979
    36  H    0.034461
    37  H    0.027732
    38  H    0.046367
    39  H    0.055410
    40  H    0.075841
    41  H    0.015593
    42  C   -0.103605
    43  O   -0.279466
    44  C    0.173477
    45  H    0.127790
    46  N   -0.109271
    47  O   -0.350701
    48  C    0.331542
    49  H    0.044743
    50  C    0.169946
    51  C    0.049124
    52  N   -0.273541
    53  H    0.037060
    54  H    0.041854
    55  H    0.028369
    56  H    0.126869
    57  H    0.117125
    58  N   -0.042620
    59  C    0.075014
    60  C    0.225289
    61  N   -0.266574
    62  H    0.031098
    63  C    0.162238
    64  N   -0.301552
    65  H    0.037745
    66  C    0.132585
    67  N   -0.255765
    68  C    0.041452
    69  C    0.176734
    70  N   -0.310907
 Sum of Mulliken charges =  -0.00000

 Dipole moment (field-independent basis, Debye):
    X=             -4.8918    Y=              4.0655    Z=             -6.6816  Tot=              9.2250
 Quadrupole moment (field-independent basis, Debye-Ang):
   XX=           -146.3093   YY=           -231.1603   ZZ=           -254.3202
   XY=            -10.5473   XZ=              2.1517   YZ=            -14.2102

 Normal termination of Gaussian 16 at Wed Jan 17 23:28:52 2018.
