 Gaussian 16, Revision A.03,
 Gaussian 16:  EM64L-G16RevA.03 25-Dec-2016

 ---------------------------------------
 #p wb97xd/cc-pvdz sp scf=(maxcycles=20)
 ---------------------------------------

 ------------------
 Base pair stacking
 ------------------
 Symbolic Z-matrix:
 Charge =  0 Multiplicity = 1

                         Standard orientation:
 ---------------------------------------------------------------------
 Center     Atomic      Atomic             Coordinates (Angstroms)
 Number     Number       Type             X           Y           Z
 ---------------------------------------------------------------------
      1          7           0       -4.553399    0.369836   -1.864441
      2          6           0       -5.828225   -0.371437   -1.922060
      3          6           0       -2.417930    0.881765   -1.741830
      4          7           0       -3.101253    2.085934   -1.829940
      5          6           0       -4.360443    1.729326   -1.900278
      6          1           0       -5.197777    2.423158   -1.980315
      7          7           0       -0.702356   -0.727776   -1.571131
      8          6           0       -1.669416   -1.650498   -1.601969
      9          1           0       -1.328749   -2.683302   -1.542585
     10          7           0       -2.987922   -1.489726   -1.694709
     11          6           0       -3.299673   -0.184841   -1.761894
     12          6           0       -1.048504    0.576235   -1.640558
     13          7           0       -0.084592    1.498794   -1.609927
     14          1           0       -0.294789    2.475854   -1.658703
     15          1           0        0.879976    1.244894   -1.537212
     16          1           0       -6.299157   -0.161254   -2.778940
     17          1           0       -5.646236   -1.353156   -1.874977
     18          1           0       -6.406798   -0.104074   -1.151492
     19          7           0       -5.648247   -0.371498    0.924583
     20          6           0       -4.312955   -0.688448    0.992301
     21          6           0       -6.738053   -1.324216    0.632447
     22          7           0       -1.764991   -3.038908    0.780195
     23          1           0       -0.769888   -3.058462    0.873025
     24          1           0       -2.217880   -3.904988    0.566861
     25          7           0       -3.776447   -1.913631    0.804853
     26          6           0       -2.461669   -1.902823    0.934663
     27          7           0       -1.726638   -0.779211    1.225759
     28          1           0       -0.725053   -0.864596    1.306351
     29          6           0       -2.257595    0.491676    1.422689
     30          8           0       -1.505945    1.439825    1.681088
     31          6           0       -3.669083    0.495914    1.286424
     32          7           0       -4.581784    1.535495    1.401042
     33          6           0       -5.739777    0.975179    1.179017
     34          1           0       -6.695650    1.500045    1.188796
     35          1           0       -7.221721   -1.036881   -0.193560
     36          1           0       -6.352679   -2.235238    0.491748
     37          1           0       -7.376588   -1.348639    1.400877
     38          1           0        4.253855   -1.827570    0.937647
     39          1           0        4.159815   -1.893968    2.695884
     40          1           0        2.776855   -2.390900    1.720270
     41          1           0        4.149951    2.865379    1.992200
     42          6           0        3.465366    2.019868    1.923651
     43          8           0        1.514052    3.367696    1.870194
     44          6           0        2.056718    2.263100    1.857500
     45          1           0        0.279842    1.256434    1.724453
     46          7           0        1.280378    1.124929    1.773000
     47          8           0        0.952103   -1.119827    1.670676
     48          6           0        1.718283   -0.175508    1.747313
     49          1           0        4.984523    0.524091    1.948424
     50          6           0        3.922833    0.762568    1.900637
     51          6           0        3.603970   -1.700217    1.790588
     52          7           0        3.089166   -0.328298    1.814860
     53          1           0        6.752739   -3.362397   -1.167876
     54          1           0        5.398407   -3.385610   -0.258298
     55          1           0        6.827562   -2.977674    0.416359
     56          1           0        3.206765    3.131459   -1.734764
     57          1           0        4.906951    3.000382   -1.782686
     58          7           0        4.021009    2.559561   -1.634342
     59          6           0        3.930531    1.266459   -1.316771
     60          6           0        4.790373   -0.898686   -0.832418
     61          7           0        3.587268   -1.463989   -0.639047
     62          1           0        1.604915   -0.944545   -0.672013
     63          6           0        2.617446   -0.567958   -0.810721
     64          7           0        2.706025    0.727630   -1.128812
     65          1           0        8.013281   -0.730681   -1.024174
     66          6           0        6.942537   -0.524642   -1.023915
     67          7           0        6.408482    0.644033   -1.282080
     68          6           0        5.044305    0.420811   -1.164055
     69          6           0        6.269823   -2.920654   -0.411807
     70          7           0        6.021396   -1.504198   -0.743390
 ---------------------------------------------------------------------

 SCF Done:  E(RwB97XD) =  -2048.68572773     A.U. after   15 cycles

 The electronic state is 1-A.
 Alpha  occ. eigenvalues --  -19.24998 -19.21151 -19.20746 -14.53046 -14.51419
 Alpha  occ. eigenvalues --  -14.49502 -14.49098 -14.48403 -14.47008 -14.46794
 Alpha  occ. eigenvalues --  -14.46722 -14.45681 -14.44643 -14.44485 -14.43074
 Alpha  occ. eigenvalues --  -14.41776 -14.41711 -14.41547 -14.41368 -14.40962
 Alpha  occ. eigenvalues --  -10.44586 -10.41163 -10.40291 -10.39258 -10.38396
 Alpha  occ. eigenvalues --  -10.38251 -10.37585 -10.36810 -10.36163 -10.36077
 Alpha  occ. eigenvalues --  -10.34705 -10.34548 -10.34405 -10.34053 -10.33869
 Alpha  occ. eigenvalues --  -10.33473 -10.33069 -10.32576 -10.31754 -10.31144
 Alpha  occ. eigenvalues --  -10.30119 -10.29022 -10.28535  -1.18658  -1.15745
 Alpha  occ. eigenvalues --   -1.13551  -1.12178  -1.11736  -1.11167  -1.09838
 Alpha  occ. eigenvalues --   -1.08804  -1.08314  -1.05720  -1.05412  -1.01586
 Alpha  occ. eigenvalues --   -1.01392  -1.01181  -0.99920  -0.98859  -0.97622
 Alpha  occ. eigenvalues --   -0.97477  -0.97060  -0.93418  -0.90040  -0.88096
 Alpha  occ. eigenvalues --   -0.86445  -0.85354  -0.84113  -0.83665  -0.82513
 Alpha  occ. eigenvalues --   -0.82316  -0.77973  -0.77433  -0.75535  -0.75090
 Alpha  occ. eigenvalues --   -0.73827  -0.73475  -0.72445  -0.71711  -0.70838
 Alpha  occ. eigenvalues --   -0.67696  -0.67335  -0.66955  -0.65650  -0.64798
 Alpha  occ. eigenvalues --   -0.64682  -0.63479  -0.63201  -0.62779  -0.62017
 Alpha  occ. eigenvalues --   -0.61549  -0.61402  -0.60952  -0.60344  -0.59933
 Alpha  occ. eigenvalues --   -0.59167  -0.58779  -0.58440  -0.57427  -0.56254
 Alpha  occ. eigenvalues --   -0.56069  -0.55648  -0.55601  -0.54554  -0.54370
 Alpha  occ. eigenvalues --   -0.53970  -0.53744  -0.53387  -0.53321  -0.52958
 Alpha  occ. eigenvalues --   -0.52539  -0.52207  -0.51219  -0.50960  -0.50557
 Alpha  occ. eigenvalues --   -0.50367  -0.49657  -0.49431  -0.49392  -0.49297
 Alpha  occ. eigenvalues --   -0.49084  -0.48642  -0.47984  -0.47551  -0.47405
 Alpha  occ. eigenvalues --   -0.47022  -0.46273  -0.44805  -0.44210  -0.43022
 Alpha  occ. eigenvalues --   -0.40726  -0.40501  -0.38935  -0.38734  -0.38044
 Alpha  occ. eigenvalues --   -0.37806  -0.37416  -0.36870  -0.35512  -0.35035
 Alpha  occ. eigenvalues --   -0.34508  -0.34138  -0.33890  -0.33560  -0.33364
 Alpha  occ. eigenvalues --   -0.33095  -0.32390  -0.31997  -0.31320  -0.31101
 Alpha  occ. eigenvalues --   -0.30570  -0.29829  -0.27421  -0.24567
 Alpha virt. eigenvalues --    0.03397   0.04269   0.06473   0.07139   0.08353
 Alpha virt. eigenvalues --    0.08952   0.09298   0.10079   0.10928   0.12588
 Alpha virt. eigenvalues --    0.12845   0.13281   0.14068   0.14563   0.14792

 Mulliken charges:
               1
     1  N   -0.292045
     2  C    0.196517
     3  C    0.059207
     4  N   -0.247032
     5  C    0.143937
     6  H    0.026254
     7  N   -0.273996
     8  C    0.118841
     9  H   -0.004946
    10  N   -0.261730
    11  C    0.211438
    12  C    0.071462
    13  N   -0.053865
    14  H    0.112656
    15  H    0.084710
    16  H    0.023201
    17  H    0.031560
    18  H    0.006324
    19  N   -0.300085
    20  C    0.210005
    21  C    0.173638
    22  N   -0.091683
    23  H    0.121354
    24  H    0.120435
    25  N   -0.250852
    26  C    0.160699
    27  N   -0.099243
    28  H    0.120517
    29  C    0.171517
    30  O   -0.317340
    31  C    0.009140
    32  N   -0.208807
    33  C    0.098319
    34  H    0.023462
    35  H    0.008511
    36  H    0.038451
    37  H    0.026926
    38  H    0.043926
    39  H    0.034144
    40  H    0.067874
    41  H    0.022292
    42  C   -0.098912
    43  O   -0.272029
    44  C    0.177571
    45  H    0.130051
    46  N   -0.115710
    47  O   -0.340932
    48  C    0.307530
    49  H    0.044523
    50  C    0.152520
    51  C    0.080551
    52  N   -0.267815
    53  H    0.036528
    54  H    0.049144
    55  H    0.029686
    56  H    0.123584
    57  H    0.120918
    58  N   -0.063432
    59  C    0.115299
    60  C    0.230776
    61  N   -0.296105
    62  H    0.037574
    63  C    0.164259
    64  N   -0.308441
    65  H    0.040357
    66  C    0.138725
    67  N   -0.255247
    68  C    0.037480
    69  C    0.181565
    70  N   -0.315711
 Sum of Mulliken charges =  -0.00000

 Dipole moment (field-independent basis, Debye):
    X=              5.1555    Y=             -7.9433    Z=             -1.9623  Tot=              9.6709
 Quadrupole moment (field-independent basis, Debye-Ang):
   XX=           -146.0650   YY=           -238.1902   ZZ=           -253.2294
   XY=             -3.2853   XZ=             10.8458   YZ=            -19.6579

 Normal termination of Gaussian 16 at Thu Jan 18 04:29:37 2018.
