 Gaussian 16, Revision A.03,
 Gaussian 16:  EM64L-G16RevA.03 25-Dec-2016

 ---------------------------------------
 #p wb97xd/cc-pvdz sp scf=(maxcycles=20)
 ---------------------------------------

 ------------------
 Base pair stacking
 ------------------
 Symbolic Z-matrix:
 Charge =  0 Multiplicity = 1

                         Standard orientation:
 ---------------------------------------------------------------------
 Center     Atomic      Atomic             Coordinates (Angstroms)
 Number     Number       Type             X           Y           Z
 ---------------------------------------------------------------------
      1          7           0       -6.245890    0.780021   -0.656547
      2          6           0       -7.501218    0.012865   -0.773273
      3          6           0       -4.128234    1.372909   -0.693261
      4          7           0       -4.833704    2.480674   -0.246148
      5          6           0       -6.081277    2.079145   -0.241926
      6          1           0       -6.929833    2.695124    0.057163
      7          7           0       -2.385844   -0.067433   -1.365877
      8          6           0       -3.330770   -0.991215   -1.569121
      9          1           0       -2.970264   -1.953667   -1.929665
     10          7           0       -4.647990   -0.905014   -1.394704
     11          6           0       -4.985225    0.316951   -0.950273
     12          6           0       -2.757333    1.151963   -0.918510
     13          7           0       -1.815545    2.075429   -0.715017
     14          1           0       -2.044895    2.991573   -0.384422
     15          1           0       -0.849149    1.883102   -0.885996
     16          1           0       -8.114049    0.469928   -1.418027
     17          1           0       -7.299874   -0.909116   -1.102731
     18          1           0       -7.943967   -0.044031    0.121560
     19          7           0       -3.933357   -1.169988    1.291757
     20          6           0       -2.602455   -1.383243    1.024788
     21          6           0       -5.049163   -1.989165    0.777333
     22          7           0       -0.105499   -3.221365   -0.539884
     23          1           0        0.891637   -3.202653   -0.607875
     24          1           0       -0.580675   -3.947261   -1.037879
     25          7           0       -2.094524   -2.369009    0.253873
     26          6           0       -0.776181   -2.314246    0.186202
     27          7           0       -0.011858   -1.367345    0.823951
     28          1           0        0.990157   -1.402379    0.715806
     29          6           0       -0.513111   -0.343903    1.622182
     30          8           0        0.263581    0.459709    2.152920
     31          6           0       -1.928037   -0.389712    1.704409
     32          7           0       -2.817643    0.430749    2.384358
     33          6           0       -3.992231   -0.069073    2.110996
     34          1           0       -4.937688    0.327879    2.482232
     35          1           0       -5.662193   -1.416741    0.233889
     36          1           0       -4.685074   -2.722634    0.204866
     37          1           0       -5.554755   -2.385217    1.543067
     38          1           0        5.850602   -1.736854   -0.739164
     39          1           0        6.042796   -2.548580    0.812872
     40          1           0        4.523813   -2.689149   -0.072732
     41          1           0        5.884850    2.044910    2.234671
     42          6           0        5.204313    1.258648    1.907728
     43          8           0        3.260387    2.349565    2.719001
     44          6           0        3.801806    1.399095    2.154855
     45          1           0        2.034133    0.411611    1.857292
     46          7           0        3.030263    0.348428    1.700898
     47          8           0        2.705965   -1.659534    0.690875
     48          6           0        3.467619   -0.781278    1.055890
     49          1           0        6.718211    0.013462    1.069007
     50          6           0        5.661089    0.168237    1.280863
     51          6           0        5.346403   -2.032544    0.168809
     52          7           0        4.832420   -0.843568    0.854310
     53          1           0        5.065958   -2.128662   -3.070064
     54          1           0        3.886653   -2.561987   -2.029127
     55          1           0        5.403812   -2.307823   -1.483505
     56          1           0        1.382918    3.886954   -0.765072
     57          1           0        3.051832    3.904762   -1.117898
     58          7           0        2.210447    3.376432   -0.998945
     59          6           0        2.193809    2.050043   -1.145906
     60          6           0        3.154347   -0.080728   -1.591890
     61          7           0        2.009901   -0.764228   -1.426108
     62          1           0        0.043650   -0.411223   -0.967994
     63          6           0        1.012320    0.062899   -1.120163
     64          7           0        1.026969    1.391647   -0.972512
     65          1           0        6.294878    0.377647   -2.207625
     66          6           0        5.236975    0.492313   -1.969681
     67          7           0        4.650137    1.636210   -1.715125
     68          6           0        3.329279    1.287116   -1.473889
     69          6           0        4.712517   -2.010345   -2.142130
     70          7           0        4.391088   -0.588396   -1.912451
 ---------------------------------------------------------------------

 SCF Done:  E(RwB97XD) =  -2048.59718992     A.U. after   15 cycles

 The electronic state is 1-A.
 Alpha  occ. eigenvalues --  -19.25317 -19.21668 -19.20654 -14.52271 -14.52187
 Alpha  occ. eigenvalues --  -14.50236 -14.48297 -14.47510 -14.47414 -14.46664
 Alpha  occ. eigenvalues --  -14.46519 -14.45118 -14.43767 -14.43676 -14.43251
 Alpha  occ. eigenvalues --  -14.42627 -14.41660 -14.41493 -14.40830 -14.40547
 Alpha  occ. eigenvalues --  -10.44986 -10.41025 -10.39748 -10.39298 -10.38120
 Alpha  occ. eigenvalues --  -10.37699 -10.37500 -10.36741 -10.36435 -10.35241
 Alpha  occ. eigenvalues --  -10.35101 -10.34875 -10.34386 -10.33969 -10.33678
 Alpha  occ. eigenvalues --  -10.33037 -10.32472 -10.32277 -10.32206 -10.30682
 Alpha  occ. eigenvalues --  -10.29617 -10.29221 -10.27798  -1.19367  -1.15005
 Alpha  occ. eigenvalues --   -1.13259  -1.12710  -1.12681  -1.10422  -1.09418
 Alpha  occ. eigenvalues --   -1.08578  -1.08487  -1.06053  -1.04280  -1.02441
 Alpha  occ. eigenvalues --   -1.01721  -1.00906  -0.99630  -0.98492  -0.98249
 Alpha  occ. eigenvalues --   -0.96410  -0.96265  -0.93701  -0.91591  -0.89060
 Alpha  occ. eigenvalues --   -0.86712  -0.85249  -0.83803  -0.83564  -0.83010
 Alpha  occ. eigenvalues --   -0.81798  -0.78744  -0.76681  -0.74790  -0.74286
 Alpha  occ. eigenvalues --   -0.74102  -0.73735  -0.73480  -0.72206  -0.70308
 Alpha  occ. eigenvalues --   -0.67817  -0.67501  -0.67189  -0.66085  -0.65713
 Alpha  occ. eigenvalues --   -0.64152  -0.63923  -0.63730  -0.63014  -0.62607
 Alpha  occ. eigenvalues --   -0.61600  -0.61359  -0.60498  -0.59591  -0.59416
 Alpha  occ. eigenvalues --   -0.59096  -0.58189  -0.58044  -0.57700  -0.56875
 Alpha  occ. eigenvalues --   -0.56313  -0.56194  -0.55477  -0.54937  -0.54682
 Alpha  occ. eigenvalues --   -0.54064  -0.53734  -0.53311  -0.53085  -0.52788
 Alpha  occ. eigenvalues --   -0.52456  -0.51560  -0.51459  -0.50766  -0.50236
 Alpha  occ. eigenvalues --   -0.49777  -0.49517  -0.49346  -0.49121  -0.48784
 Alpha  occ. eigenvalues --   -0.48380  -0.48290  -0.48073  -0.47781  -0.47246
 Alpha  occ. eigenvalues --   -0.47010  -0.46136  -0.45168  -0.43051  -0.41754
 Alpha  occ. eigenvalues --   -0.41670  -0.40332  -0.39334  -0.38292  -0.37430
 Alpha  occ. eigenvalues --   -0.37304  -0.37147  -0.36865  -0.36074  -0.34718
 Alpha  occ. eigenvalues --   -0.34514  -0.34261  -0.33709  -0.33307  -0.32915
 Alpha  occ. eigenvalues --   -0.32562  -0.32303  -0.31689  -0.31329  -0.31236
 Alpha  occ. eigenvalues --   -0.30592  -0.28743  -0.26835  -0.25315
 Alpha virt. eigenvalues --    0.02677   0.04961   0.06557   0.06759   0.08765
 Alpha virt. eigenvalues --    0.09181   0.09567   0.10500   0.11126   0.11732
 Alpha virt. eigenvalues --    0.12922   0.13233   0.14259   0.14472   0.14970

 Mulliken charges:
               1
     1  N   -0.314050
     2  C    0.184435
     3  C    0.062768
     4  N   -0.247736
     5  C    0.122618
     6  H    0.029172
     7  N   -0.273265
     8  C    0.149844
     9  H    0.012561
    10  N   -0.303609
    11  C    0.228582
    12  C    0.076239
    13  N   -0.041754
    14  H    0.108316
    15  H    0.089146
    16  H    0.029878
    17  H    0.047067
    18  H    0.024157
    19  N   -0.286313
    20  C    0.206625
    21  C    0.253457
    22  N   -0.100279
    23  H    0.114367
    24  H    0.115513
    25  N   -0.293743
    26  C    0.208366
    27  N   -0.143903
    28  H    0.132551
    29  C    0.162096
    30  O   -0.322202
    31  C    0.012837
    32  N   -0.220559
    33  C    0.124267
    34  H    0.020825
    35  H   -0.027051
    36  H    0.024769
    37  H    0.005066
    38  H    0.032418
    39  H    0.051243
    40  H    0.060941
    41  H    0.028243
    42  C   -0.088937
    43  O   -0.265970
    44  C    0.175749
    45  H    0.132953
    46  N   -0.122161
    47  O   -0.323979
    48  C    0.316276
    49  H    0.041435
    50  C    0.159696
    51  C    0.079993
    52  N   -0.270369
    53  H    0.012712
    54  H    0.033921
    55  H    0.017369
    56  H    0.120124
    57  H    0.120930
    58  N   -0.064498
    59  C    0.126852
    60  C    0.192937
    61  N   -0.253812
    62  H    0.043425
    63  C    0.139378
    64  N   -0.306075
    65  H    0.035304
    66  C    0.117441
    67  N   -0.242372
    68  C    0.038712
    69  C    0.192242
    70  N   -0.303177
 Sum of Mulliken charges =  -0.00000

 Dipole moment (field-independent basis, Debye):
    X=              4.1898    Y=             -5.5545    Z=             -5.6060  Tot=              8.9350
 Quadrupole moment (field-independent basis, Debye-Ang):
   XX=           -145.0550   YY=           -225.7355   ZZ=           -265.8911
   XY=            -15.7512   XZ=            -11.7490   YZ=             -6.2375

 Normal termination of Gaussian 16 at Thu Jan 18 07:11:45 2018.
