 Gaussian 16, Revision A.03,
 Gaussian 16:  EM64L-G16RevA.03 25-Dec-2016

 ---------------------------------------
 #p wb97xd/cc-pvdz sp scf=(maxcycles=20)
 ---------------------------------------

 ------------------
 Base pair stacking
 ------------------
 Symbolic Z-matrix:
 Charge =  0 Multiplicity = 1

                         Standard orientation:
 ---------------------------------------------------------------------
 Center     Atomic      Atomic             Coordinates (Angstroms)
 Number     Number       Type             X           Y           Z
 ---------------------------------------------------------------------
      1          7           0        5.999320   -1.096808   -0.748992
      2          6           0        7.270404   -0.458206   -1.142094
      3          6           0        3.866064   -1.587808   -0.535806
      4          7           0        4.556312   -2.515548    0.230731
      5          6           0        5.813892   -2.182608    0.071622
      6          1           0        6.655354   -2.699502    0.533902
      7          7           0        2.140970   -0.379707   -1.597657
      8          6           0        3.103182    0.390537   -2.115779
      9          1           0        2.756642    1.196018   -2.761833
     10          7           0        4.422980    0.315541   -1.956433
     11          6           0        4.742120   -0.706854   -1.145696
     12          6           0        2.494510   -1.400041   -0.785857
     13          7           0        1.535454   -2.170031   -0.267685
     14          1           0        1.751174   -2.936501    0.338295
     15          1           0        0.569178   -2.007085   -0.467422
     16          1           0        7.846251   -1.123528   -1.617409
     17          1           0        7.082876    0.313087   -1.749609
     18          1           0        7.747019   -0.129804   -0.326643
     19          7           0        4.199308    1.442959    1.125908
     20          6           0        2.864381    1.641552    0.867900
     21          6           0        5.307910    2.217259    0.532477
     22          7           0        0.344601    3.369844   -0.783000
     23          1           0       -0.653650    3.350370   -0.831493
     24          1           0        0.812712    4.055042   -1.341667
     25          7           0        2.345314    2.569945    0.035604
     26          6           0        1.025806    2.515889   -0.004135
     27          7           0        0.270520    1.621829    0.715381
     28          1           0       -0.733201    1.653016    0.622984
     29          6           0        0.783288    0.657909    1.577820
     30          8           0        0.014091   -0.101106    2.180286
     31          6           0        2.199613    0.703696    1.630989
     32          7           0        3.099102   -0.068160    2.353526
     33          6           0        4.269946    0.405195    2.022967
     34          1           0        5.220863    0.032704    2.405430
     35          1           0        5.909264    1.603753    0.021816
     36          1           0        4.935551    2.908057   -0.085920
     37          1           0        5.828511    2.666540    1.257678
     38          1           0       -5.618393    1.899812   -0.765105
     39          1           0       -5.779906    2.824553    0.726002
     40          1           0       -4.276929    2.893042   -0.194717
     41          1           0       -5.609292   -1.652233    2.479803
     42          6           0       -4.932573   -0.895092    2.083557
     43          8           0       -2.977319   -1.931425    2.938044
     44          6           0       -3.526196   -1.022846    2.315122
     45          1           0       -1.761406   -0.067462    1.913780
     46          7           0       -2.760036   -0.011775    1.771077
     47          8           0       -2.448433    1.914872    0.609984
     48          6           0       -3.205824    1.069134    1.052436
     49          1           0       -6.457911    0.291251    1.182593
     50          6           0       -5.397558    0.148063    1.386250
     51          6           0       -5.096867    2.259513    0.109363
     52          7           0       -4.573892    1.122151    0.871372
     53          1           0       -5.307971    1.297229   -3.691335
     54          1           0       -4.079728    2.000642   -2.879710
     55          1           0       -5.582382    1.996401   -2.242449
     56          1           0       -1.711869   -3.775189    0.358875
     57          1           0       -3.392439   -3.843119    0.073971
     58          7           0       -2.532879   -3.337478   -0.007853
     59          6           0       -2.484717   -2.133037   -0.580734
     60          6           0       -3.401256   -0.228801   -1.674152
     61          7           0       -2.232918    0.427086   -1.770196
     62          1           0       -0.261810    0.167674   -1.272180
     63          6           0       -1.248217   -0.292718   -1.236209
     64          7           0       -1.294435   -1.499238   -0.661953
     65          1           0       -6.573768   -0.742260   -2.025852
     66          6           0       -5.511464   -0.813536   -1.790575
     67          7           0       -4.947767   -1.833615   -1.191093
     68          6           0       -3.609764   -1.475779   -1.111036
     69          6           0       -4.924204    1.474317   -2.785040
     70          7           0       -4.634286    0.193624   -2.111399
 ---------------------------------------------------------------------

 SCF Done:  E(RwB97XD) =  -2048.73967210     A.U. after   15 cycles

 The electronic state is 1-A.
 Alpha  occ. eigenvalues --  -19.25259 -19.21617 -19.20589 -14.52169 -14.52166
 Alpha  occ. eigenvalues --  -14.49758 -14.48600 -14.47398 -14.47146 -14.46786
 Alpha  occ. eigenvalues --  -14.46535 -14.44996 -14.43779 -14.43671 -14.42952
 Alpha  occ. eigenvalues --  -14.42212 -14.41815 -14.41633 -14.40887 -14.40687
 Alpha  occ. eigenvalues --  -10.44989 -10.41081 -10.39690 -10.39211 -10.38165
 Alpha  occ. eigenvalues --  -10.37595 -10.37291 -10.36773 -10.36208 -10.35262
 Alpha  occ. eigenvalues --  -10.35149 -10.34893 -10.34210 -10.34149 -10.33929
 Alpha  occ. eigenvalues --  -10.33777 -10.33172 -10.32165 -10.32100 -10.30519
 Alpha  occ. eigenvalues --  -10.30492 -10.29301 -10.27964  -1.19018  -1.14882
 Alpha  occ. eigenvalues --   -1.13107  -1.12614  -1.12267  -1.10442  -1.09027
 Alpha  occ. eigenvalues --   -1.08566  -1.08443  -1.05776  -1.04108  -1.02146
 Alpha  occ. eigenvalues --   -1.01212  -1.00633  -0.99599  -0.98383  -0.97860
 Alpha  occ. eigenvalues --   -0.96390  -0.96230  -0.93416  -0.90607  -0.87457
 Alpha  occ. eigenvalues --   -0.85982  -0.84856  -0.83917  -0.83535  -0.83262
 Alpha  occ. eigenvalues --   -0.82238  -0.78493  -0.76538  -0.74532  -0.74284
 Alpha  occ. eigenvalues --   -0.73714  -0.73477  -0.73033  -0.71830  -0.69952
 Alpha  occ. eigenvalues --   -0.67235  -0.67124  -0.66450  -0.66087  -0.64334
 Alpha  occ. eigenvalues --   -0.63854  -0.63687  -0.63457  -0.62512  -0.62417
 Alpha  occ. eigenvalues --   -0.61596  -0.61046  -0.60110  -0.59206  -0.59116
 Alpha  occ. eigenvalues --   -0.58355  -0.58169  -0.57761  -0.57351  -0.56266
 Alpha  occ. eigenvalues --   -0.55939  -0.55600  -0.55389  -0.54957  -0.54075
 Alpha  occ. eigenvalues --   -0.53809  -0.53406  -0.53237  -0.52777  -0.52612
 Alpha  occ. eigenvalues --   -0.52593  -0.52208  -0.51489  -0.51028  -0.50901
 Alpha  occ. eigenvalues --   -0.49982  -0.49912  -0.49355  -0.49223  -0.49122
 Alpha  occ. eigenvalues --   -0.48531  -0.48497  -0.48111  -0.47777  -0.47262
 Alpha  occ. eigenvalues --   -0.47206  -0.45961  -0.45501  -0.43847  -0.42676
 Alpha  occ. eigenvalues --   -0.41907  -0.40237  -0.39036  -0.37892  -0.37510
 Alpha  occ. eigenvalues --   -0.37108  -0.37061  -0.36949  -0.35930  -0.34546
 Alpha  occ. eigenvalues --   -0.34362  -0.34185  -0.33778  -0.33680  -0.32897
 Alpha  occ. eigenvalues --   -0.32496  -0.32367  -0.31734  -0.31465  -0.31265
 Alpha  occ. eigenvalues --   -0.31148  -0.29045  -0.26622  -0.25312
 Alpha virt. eigenvalues --    0.03255   0.04683   0.07090   0.07179   0.09028
 Alpha virt. eigenvalues --    0.09155   0.09744   0.10384   0.10860   0.12383
 Alpha virt. eigenvalues --    0.13278   0.13503   0.14147   0.14606   0.14872

 Mulliken charges:
               1
     1  N   -0.308555
     2  C    0.179213
     3  C    0.057624
     4  N   -0.243529
     5  C    0.119634
     6  H    0.027553
     7  N   -0.281875
     8  C    0.140522
     9  H    0.011279
    10  N   -0.284487
    11  C    0.223286
    12  C    0.081227
    13  N   -0.041310
    14  H    0.111284
    15  H    0.090456
    16  H    0.030666
    17  H    0.040851
    18  H    0.024671
    19  N   -0.289419
    20  C    0.237813
    21  C    0.200999
    22  N   -0.115440
    23  H    0.116910
    24  H    0.117263
    25  N   -0.300225
    26  C    0.227292
    27  N   -0.141663
    28  H    0.122300
    29  C    0.176765
    30  O   -0.323759
    31  C   -0.012121
    32  N   -0.217596
    33  C    0.125354
    34  H    0.019692
    35  H   -0.010958
    36  H    0.033064
    37  H    0.021437
    38  H    0.040806
    39  H    0.060285
    40  H    0.075127
    41  H    0.025006
    42  C   -0.080293
    43  O   -0.270860
    44  C    0.161820
    45  H    0.133444
    46  N   -0.119531
    47  O   -0.337305
    48  C    0.331130
    49  H    0.040401
    50  C    0.163150
    51  C    0.043288
    52  N   -0.275439
    53  H    0.033462
    54  H    0.042526
    55  H    0.007560
    56  H    0.122299
    57  H    0.119591
    58  N   -0.047401
    59  C    0.108163
    60  C    0.213289
    61  N   -0.255252
    62  H    0.034813
    63  C    0.146469
    64  N   -0.299728
    65  H    0.032684
    66  C    0.113565
    67  N   -0.242631
    68  C    0.028576
    69  C    0.184975
    70  N   -0.300206
 Sum of Mulliken charges =  -0.00000

 Dipole moment (field-independent basis, Debye):
    X=             -4.5037    Y=              5.1748    Z=             -5.6307  Tot=              8.8750
 Quadrupole moment (field-independent basis, Debye-Ang):
   XX=           -145.6735   YY=           -224.2671   ZZ=           -262.8326
   XY=            -12.3421   XZ=             12.6946   YZ=             -1.2726

 Normal termination of Gaussian 16 at Thu Jan 18 10:57:47 2018.
