 Gaussian 16, Revision A.03,
 Gaussian 16:  EM64L-G16RevA.03 25-Dec-2016

 ---------------------------------------
 #p wb97xd/cc-pvdz sp scf=(maxcycles=20)
 ---------------------------------------

 ------------------
 Base pair stacking
 ------------------
 Symbolic Z-matrix:
 Charge =  0 Multiplicity = 1

                         Standard orientation:
 ---------------------------------------------------------------------
 Center     Atomic      Atomic             Coordinates (Angstroms)
 Number     Number       Type             X           Y           Z
 ---------------------------------------------------------------------
      1          7           0        5.137558   -0.731872   -1.446490
      2          6           0        6.414970    0.000990   -1.542151
      3          6           0        2.997604   -1.234819   -1.376254
      4          7           0        3.682707   -2.432310   -1.230027
      5          6           0        4.944533   -2.081372   -1.278194
      6          1           0        5.783857   -2.772477   -1.195427
      7          7           0        1.277900    0.367812   -1.569021
      8          6           0        2.246825    1.281633   -1.686033
      9          1           0        1.905152    2.308074   -1.812263
     10          7           0        3.568225    1.118646   -1.670599
     11          6           0        3.880986   -0.177903   -1.510720
     12          6           0        1.625137   -0.927959   -1.409364
     13          7           0        0.659371   -1.841631   -1.292384
     14          1           0        0.870266   -2.812405   -1.172592
     15          1           0       -0.307351   -1.587063   -1.320484
     16          1           0        6.937834   -0.338484   -2.324165
     17          1           0        6.232326    0.976313   -1.662607
     18          1           0        6.943986   -0.136398   -0.704745
     19          7           0        5.087320    0.645947    1.076620
     20          6           0        3.750186    0.952247    0.997139
     21          6           0        6.190630    1.513674    0.617878
     22          7           0        1.216026    3.147377    0.090947
     23          1           0        0.217397    3.175744    0.125361
     24          1           0        1.679187    3.941776   -0.302916
     25          7           0        3.223826    2.088247    0.490686
     26          6           0        1.904040    2.091921    0.551988
     27          7           0        1.155125    1.062834    1.069323
     28          1           0        0.150652    1.152013    1.075562
     29          6           0        1.675472   -0.115279    1.595776
     30          8           0        0.911613   -0.982297    2.037977
     31          6           0        3.092176   -0.133834    1.536801
     32          7           0        3.997968   -1.102495    1.946839
     33          6           0        5.165845   -0.597534    1.654763
     34          1           0        6.120071   -1.091731    1.840456
     35          1           0        6.717260    1.041031   -0.087859
     36          1           0        5.812844    2.358240    0.240699
     37          1           0        6.787783    1.732086    1.388922
     38          1           0       -4.802285    1.931206    0.230569
     39          1           0       -4.801038    2.423160    1.922500
     40          1           0       -3.368788    2.686888    0.927275
     41          1           0       -4.752263   -2.364227    2.396981
     42          6           0       -4.065343   -1.551627    2.160199
     43          8           0       -2.113408   -2.846389    2.535231
     44          6           0       -2.655070   -1.785070    2.227037
     45          1           0       -0.874057   -0.817395    1.944356
     46          7           0       -1.875813   -0.691233    1.908406
     47          8           0       -1.543472    1.465865    1.280963
     48          6           0       -2.312255    0.558284    1.545420
     49          1           0       -5.584284   -0.114619    1.743483
     50          6           0       -4.521450   -0.343566    1.809266
     51          6           0       -4.198196    2.023024    1.120911
     52          7           0       -3.684850    0.704841    1.503810
     53          1           0       -6.182649    2.973939   -2.049200
     54          1           0       -4.887436    3.151610   -1.073006
     55          1           0       -6.356569    2.844335   -0.431674
     56          1           0       -2.621066   -3.499473   -1.359616
     57          1           0       -4.314722   -3.391109   -1.532489
     58          7           0       -3.438856   -2.925357   -1.401550
     59          6           0       -3.365756   -1.597602   -1.288011
     60          6           0       -4.249780    0.610042   -1.207002
     61          7           0       -3.059909    1.208347   -1.031856
     62          1           0       -1.080379    0.705938   -0.859709
     63          6           0       -2.083052    0.304135   -0.999145
     64          7           0       -2.154234   -1.026132   -1.112678
     65          1           0       -7.454864    0.388277   -1.568139
     66          6           0       -6.386610    0.193370   -1.469179
     67          7           0       -5.839836   -0.997183   -1.505357
     68          6           0       -4.485204   -0.747284   -1.340291
     69          6           0       -5.748536    2.661320   -1.204322
     70          7           0       -5.482761    1.212242   -1.291199
 ---------------------------------------------------------------------

 SCF Done:  E(RwB97XD) =  -2048.60828631     A.U. after   16 cycles

 The electronic state is 1-A.
 Alpha  occ. eigenvalues --  -19.24873 -19.21191 -19.20576 -14.53054 -14.51351
 Alpha  occ. eigenvalues --  -14.49323 -14.49091 -14.48342 -14.47025 -14.46442
 Alpha  occ. eigenvalues --  -14.46229 -14.45682 -14.44630 -14.44264 -14.43193
 Alpha  occ. eigenvalues --  -14.41727 -14.41445 -14.41316 -14.41092 -14.40892
 Alpha  occ. eigenvalues --  -10.44517 -10.40552 -10.40227 -10.39283 -10.38302
 Alpha  occ. eigenvalues --  -10.38114 -10.37466 -10.36942 -10.36112 -10.36094
 Alpha  occ. eigenvalues --  -10.34810 -10.34499 -10.34265 -10.33785 -10.33784
 Alpha  occ. eigenvalues --  -10.33433 -10.32976 -10.32897 -10.31986 -10.30146
 Alpha  occ. eigenvalues --  -10.30075 -10.28833 -10.28303  -1.18784  -1.15979
 Alpha  occ. eigenvalues --   -1.13394  -1.12222  -1.11948  -1.10735  -1.09653
 Alpha  occ. eigenvalues --   -1.08757  -1.08440  -1.05798  -1.05187  -1.01881
 Alpha  occ. eigenvalues --   -1.01579  -1.01338  -0.99699  -0.98524  -0.98027
 Alpha  occ. eigenvalues --   -0.97261  -0.96631  -0.93525  -0.90132  -0.88230
 Alpha  occ. eigenvalues --   -0.86958  -0.86456  -0.84145  -0.83683  -0.82671
 Alpha  occ. eigenvalues --   -0.81818  -0.78072  -0.77479  -0.75374  -0.74824
 Alpha  occ. eigenvalues --   -0.74071  -0.73326  -0.72581  -0.71782  -0.70936
 Alpha  occ. eigenvalues --   -0.67946  -0.67370  -0.66899  -0.65960  -0.64940
 Alpha  occ. eigenvalues --   -0.64699  -0.63893  -0.63408  -0.62601  -0.62476
 Alpha  occ. eigenvalues --   -0.62006  -0.61758  -0.61026  -0.60566  -0.59982
 Alpha  occ. eigenvalues --   -0.59128  -0.58712  -0.58341  -0.57729  -0.56945
 Alpha  occ. eigenvalues --   -0.56292  -0.55948  -0.55519  -0.54412  -0.54270
 Alpha  occ. eigenvalues --   -0.53923  -0.53819  -0.53444  -0.53047  -0.52854
 Alpha  occ. eigenvalues --   -0.52113  -0.51759  -0.51744  -0.50842  -0.50681
 Alpha  occ. eigenvalues --   -0.50411  -0.49769  -0.49658  -0.49127  -0.48950
 Alpha  occ. eigenvalues --   -0.48513  -0.48002  -0.47899  -0.47804  -0.47257
 Alpha  occ. eigenvalues --   -0.46885  -0.46328  -0.44361  -0.43683  -0.42743
 Alpha  occ. eigenvalues --   -0.41253  -0.40924  -0.38866  -0.38184  -0.37842
 Alpha  occ. eigenvalues --   -0.37684  -0.37035  -0.36173  -0.35853  -0.35155
 Alpha  occ. eigenvalues --   -0.34997  -0.34765  -0.34041  -0.33568  -0.32822
 Alpha  occ. eigenvalues --   -0.32347  -0.32087  -0.31887  -0.31255  -0.31090
 Alpha  occ. eigenvalues --   -0.29897  -0.29828  -0.27644  -0.23475
 Alpha virt. eigenvalues --    0.02852   0.04537   0.05462   0.06154   0.07264
 Alpha virt. eigenvalues --    0.09642   0.10142   0.10551   0.11621   0.12593
 Alpha virt. eigenvalues --    0.12767   0.13484   0.14093   0.14700   0.14991

 Mulliken charges:
               1
     1  N   -0.302378
     2  C    0.237050
     3  C    0.083728
     4  N   -0.245918
     5  C    0.128175
     6  H    0.023696
     7  N   -0.274533
     8  C    0.136517
     9  H   -0.001586
    10  N   -0.247295
    11  C    0.197668
    12  C    0.054010
    13  N   -0.044824
    14  H    0.110727
    15  H    0.084874
    16  H    0.020422
    17  H    0.023556
    18  H    0.006898
    19  N   -0.285579
    20  C    0.201076
    21  C    0.183719
    22  N   -0.088980
    23  H    0.119320
    24  H    0.121911
    25  N   -0.233036
    26  C    0.118351
    27  N   -0.089504
    28  H    0.118953
    29  C    0.155069
    30  O   -0.319355
    31  C    0.026971
    32  N   -0.210959
    33  C    0.106985
    34  H    0.021267
    35  H   -0.015281
    36  H    0.037404
    37  H    0.014833
    38  H   -0.000069
    39  H    0.042206
    40  H    0.083770
    41  H    0.023951
    42  C   -0.101019
    43  O   -0.269543
    44  C    0.170512
    45  H    0.128287
    46  N   -0.105083
    47  O   -0.341507
    48  C    0.307638
    49  H    0.042934
    50  C    0.163203
    51  C    0.075526
    52  N   -0.269694
    53  H    0.026345
    54  H    0.042162
    55  H    0.024559
    56  H    0.123403
    57  H    0.121360
    58  N   -0.060985
    59  C    0.116015
    60  C    0.211698
    61  N   -0.278601
    62  H    0.006494
    63  C    0.184976
    64  N   -0.302192
    65  H    0.038409
    66  C    0.127387
    67  N   -0.250804
    68  C    0.049811
    69  C    0.216920
    70  N   -0.322019
 Sum of Mulliken charges =  -0.00000

 Dipole moment (field-independent basis, Debye):
    X=             -4.7945    Y=              6.9545    Z=             -4.4646  Tot=              9.5543
 Quadrupole moment (field-independent basis, Debye-Ang):
   XX=           -146.3662   YY=           -230.7837   ZZ=           -262.4656
   XY=            -10.0153   XZ=             -3.1316   YZ=             14.2342

 Normal termination of Gaussian 16 at Thu Jan 18 07:26:09 2018.
