 Gaussian 16, Revision A.03,
 Gaussian 16:  EM64L-G16RevA.03 25-Dec-2016

 ---------------------------------------
 #p wb97xd/cc-pvdz sp scf=(maxcycles=20)
 ---------------------------------------

 ------------------
 Base pair stacking
 ------------------
 Symbolic Z-matrix:
 Charge =  0 Multiplicity = 1

                         Standard orientation:
 ---------------------------------------------------------------------
 Center     Atomic      Atomic             Coordinates (Angstroms)
 Number     Number       Type             X           Y           Z
 ---------------------------------------------------------------------
      1          7           0       -7.035822    0.545186   -0.254848
      2          6           0       -8.268829   -0.262878   -0.323708
      3          6           0       -4.943974    1.211796   -0.385742
      4          7           0       -5.662906    2.286215    0.117748
      5          6           0       -6.894387    1.841598    0.176449
      6          1           0       -7.747032    2.422305    0.529626
      7          7           0       -3.190227   -0.154904   -1.172777
      8          6           0       -4.112499   -1.107144   -1.346631
      9          1           0       -3.738410   -2.049888   -1.743565
     10          7           0       -5.421349   -1.069859   -1.104911
     11          6           0       -5.776717    0.131492   -0.620275
     12          6           0       -3.579558    1.042650   -0.683549
     13          7           0       -2.660392    1.994467   -0.509307
     14          1           0       -2.903524    2.896033   -0.149726
     15          1           0       -1.697950    1.838901   -0.732126
     16          1           0       -8.928609    0.184113   -0.927923
     17          1           0       -8.053405   -1.171265   -0.680855
     18          1           0       -8.663512   -0.351128    0.590858
     19          7           0       -3.049813   -1.335795    1.452866
     20          6           0       -1.725953   -1.507411    1.127303
     21          6           0       -4.150339   -2.236814    1.055753
     22          7           0        0.771304   -3.335122   -0.449068
     23          1           0        1.761482   -3.276819   -0.573154
     24          1           0        0.306178   -4.113615   -0.871347
     25          7           0       -1.212209   -2.519853    0.395814
     26          6           0        0.096656   -2.411338    0.251919
     27          7           0        0.846881   -1.390228    0.782963
     28          1           0        1.842423   -1.388019    0.622131
     29          6           0        0.339419   -0.338090    1.538834
     30          8           0        1.103280    0.533482    1.971978
     31          6           0       -1.065460   -0.440972    1.701976
     32          7           0       -1.956718    0.383581    2.374782
     33          6           0       -3.118628   -0.185362    2.200142
     34          1           0       -4.061387    0.193575    2.596229
     35          1           0       -4.817646   -1.730505    0.510650
     36          1           0       -3.781818   -2.990669    0.513377
     37          1           0       -4.595684   -2.601871    1.872582
     38          1           0        6.630762   -1.604633   -1.074214
     39          1           0        6.942428   -2.299481    0.514717
     40          1           0        5.387796   -2.567314   -0.274433
     41          1           0        6.638572    2.368593    1.638728
     42          6           0        5.980439    1.532455    1.402165
     43          8           0        4.031379    2.588682    2.246363
     44          6           0        4.587608    1.626993    1.716705
     45          1           0        2.856261    0.544034    1.582722
     46          7           0        3.844755    0.514639    1.375977
     47          8           0        3.564953   -1.569835    0.519307
     48          6           0        4.301573   -0.635820    0.783278
     49          1           0        7.506522    0.301515    0.564535
     50          6           0        6.455684    0.423256    0.823892
     51          6           0        6.189407   -1.859909   -0.122320
     52          7           0        5.655413   -0.651023    0.511075
     53          1           0        4.231076   -1.925329   -3.287535
     54          1           0        3.121303   -2.417913   -2.197650
     55          1           0        4.654687   -2.121033   -1.723667
     56          1           0        0.468416    3.916545   -0.683623
     57          1           0        2.115777    3.998604   -1.119030
     58          7           0        1.299814    3.439337   -0.968562
     59          6           0        1.320555    2.116019   -1.140514
     60          6           0        2.328696    0.028201   -1.675718
     61          7           0        1.217845   -0.697475   -1.466373
     62          1           0       -0.733487   -0.421216   -0.903685
     63          6           0        0.209673    0.088900   -1.094752
     64          7           0        0.186898    1.414495   -0.921962
     65          1           0        5.416738    0.606287   -2.438574
     66          6           0        4.368968    0.679875   -2.145827
     67          7           0        3.757486    1.797974   -1.839837
     68          6           0        2.463078    1.398966   -1.539774
     69          6           0        3.921269   -1.835984   -2.340943
     70          7           0        3.564048   -0.430400   -2.067611
 ---------------------------------------------------------------------

 SCF Done:  E(RwB97XD) =  -2048.68866899     A.U. after   15 cycles

 The electronic state is 1-A.
 Alpha  occ. eigenvalues --  -19.26204 -19.22029 -19.20411 -14.52978 -14.51116
 Alpha  occ. eigenvalues --  -14.50438 -14.48047 -14.47845 -14.46632 -14.46072
 Alpha  occ. eigenvalues --  -14.46036 -14.44027 -14.43657 -14.43112 -14.43058
 Alpha  occ. eigenvalues --  -14.42476 -14.42303 -14.41754 -14.41750 -14.40372
 Alpha  occ. eigenvalues --  -10.45870 -10.40604 -10.40139 -10.38455 -10.37926
 Alpha  occ. eigenvalues --  -10.37865 -10.37058 -10.36757 -10.36425 -10.35775
 Alpha  occ. eigenvalues --  -10.35755 -10.35105 -10.34619 -10.34598 -10.33809
 Alpha  occ. eigenvalues --  -10.33030 -10.32775 -10.32315 -10.31294 -10.31131
 Alpha  occ. eigenvalues --  -10.30330 -10.28379 -10.27749  -1.19969  -1.13926
 Alpha  occ. eigenvalues --   -1.13116  -1.13069  -1.12973  -1.10129  -1.09802
 Alpha  occ. eigenvalues --   -1.08298  -1.07812  -1.06777  -1.03473  -1.02745
 Alpha  occ. eigenvalues --   -1.02256  -0.99675  -0.99279  -0.98596  -0.98191
 Alpha  occ. eigenvalues --   -0.95974  -0.95417  -0.94388  -0.91393  -0.86550
 Alpha  occ. eigenvalues --   -0.85713  -0.85295  -0.84208  -0.83893  -0.83528
 Alpha  occ. eigenvalues --   -0.81437  -0.79211  -0.75846  -0.74620  -0.74218
 Alpha  occ. eigenvalues --   -0.73664  -0.73603  -0.73170  -0.72783  -0.69268
 Alpha  occ. eigenvalues --   -0.67955  -0.67095  -0.66741  -0.65670  -0.64832
 Alpha  occ. eigenvalues --   -0.64405  -0.63304  -0.63083  -0.62596  -0.61701
 Alpha  occ. eigenvalues --   -0.61581  -0.61267  -0.59819  -0.59603  -0.58788
 Alpha  occ. eigenvalues --   -0.58422  -0.58039  -0.57900  -0.57702  -0.56969
 Alpha  occ. eigenvalues --   -0.56723  -0.56152  -0.55624  -0.54883  -0.54507
 Alpha  occ. eigenvalues --   -0.54134  -0.53466  -0.53366  -0.53073  -0.52445
 Alpha  occ. eigenvalues --   -0.52117  -0.51857  -0.51682  -0.51407  -0.51006
 Alpha  occ. eigenvalues --   -0.50569  -0.49875  -0.49565  -0.48734  -0.48590
 Alpha  occ. eigenvalues --   -0.48421  -0.48333  -0.48101  -0.47873  -0.47466
 Alpha  occ. eigenvalues --   -0.47157  -0.46062  -0.45450  -0.44397  -0.42804
 Alpha  occ. eigenvalues --   -0.41146  -0.40025  -0.39714  -0.38892  -0.37107
 Alpha  occ. eigenvalues --   -0.36972  -0.36722  -0.35934  -0.35456  -0.35178
 Alpha  occ. eigenvalues --   -0.35006  -0.34379  -0.33493  -0.33240  -0.33173
 Alpha  occ. eigenvalues --   -0.32648  -0.32402  -0.32055  -0.31943  -0.31571
 Alpha  occ. eigenvalues --   -0.31296  -0.27671  -0.26873  -0.25122
 Alpha virt. eigenvalues --    0.02905   0.04979   0.05874   0.07892   0.08580
 Alpha virt. eigenvalues --    0.08757   0.09849   0.10163   0.11208   0.12172
 Alpha virt. eigenvalues --    0.12252   0.13141   0.14567   0.14743   0.15158

 Mulliken charges:
               1
     1  N   -0.313420
     2  C    0.180156
     3  C    0.044254
     4  N   -0.255436
     5  C    0.133990
     6  H    0.031896
     7  N   -0.252468
     8  C    0.099719
     9  H    0.026166
    10  N   -0.290226
    11  C    0.236123
    12  C    0.080122
    13  N   -0.035223
    14  H    0.107744
    15  H    0.089597
    16  H    0.029971
    17  H    0.036345
    18  H    0.027791
    19  N   -0.292183
    20  C    0.229136
    21  C    0.216453
    22  N   -0.085609
    23  H    0.107460
    24  H    0.111938
    25  N   -0.283542
    26  C    0.195037
    27  N   -0.106090
    28  H    0.124526
    29  C    0.126760
    30  O   -0.323671
    31  C    0.020132
    32  N   -0.224844
    33  C    0.110842
    34  H    0.024834
    35  H    0.017208
    36  H    0.016851
    37  H    0.010460
    38  H    0.050865
    39  H    0.063931
    40  H    0.093498
    41  H    0.033034
    42  C   -0.092195
    43  O   -0.262434
    44  C    0.187859
    45  H    0.132567
    46  N   -0.123181
    47  O   -0.348862
    48  C    0.340202
    49  H    0.045688
    50  C    0.158245
    51  C    0.045052
    52  N   -0.285398
    53  H    0.031005
    54  H    0.018845
    55  H   -0.044667
    56  H    0.115933
    57  H    0.121417
    58  N   -0.068188
    59  C    0.139532
    60  C    0.213165
    61  N   -0.287500
    62  H    0.048284
    63  C    0.163422
    64  N   -0.305835
    65  H    0.022156
    66  C    0.109605
    67  N   -0.250027
    68  C    0.031366
    69  C    0.217411
    70  N   -0.287595
 Sum of Mulliken charges =  -0.00000

 Dipole moment (field-independent basis, Debye):
    X=              3.8646    Y=             -5.3507    Z=             -5.1659  Tot=              8.3816
 Quadrupole moment (field-independent basis, Debye-Ang):
   XX=           -137.4888   YY=           -228.0016   ZZ=           -260.5082
   XY=            -20.2822   XZ=            -20.3466   YZ=             -4.9750

 Normal termination of Gaussian 16 at Thu Jan 18 05:05:52 2018.
