 Gaussian 16, Revision A.03,
 Gaussian 16:  EM64L-G16RevA.03 25-Dec-2016

 ---------------------------------------
 #p wb97xd/cc-pvdz sp scf=(maxcycles=20)
 ---------------------------------------

 ------------------
 Base pair stacking
 ------------------
 Symbolic Z-matrix:
 Charge =  0 Multiplicity = 1

                         Standard orientation:
 ---------------------------------------------------------------------
 Center     Atomic      Atomic             Coordinates (Angstroms)
 Number     Number       Type             X           Y           Z
 ---------------------------------------------------------------------
      1          7           0       -5.728790   -1.757812    0.282185
      2          6           0       -7.001869   -1.638644    1.019111
      3          6           0       -3.591826   -1.835218   -0.232324
      4          7           0       -4.283933   -2.039519   -1.417218
      5          6           0       -5.543671   -1.984705   -1.059820
      6          1           0       -6.387027   -2.104143   -1.740579
      7          7           0       -1.862772   -1.559032    1.347882
      8          6           0       -2.826318   -1.408277    2.262448
      9          1           0       -2.478641   -1.234011    3.279804
     10          7           0       -4.148642   -1.440334    2.109701
     11          6           0       -4.468987   -1.660044    0.823809
     12          6           0       -2.217588   -1.778734    0.063000
     13          7           0       -1.257206   -1.929464   -0.851390
     14          1           0       -1.473784   -2.093884   -1.814345
     15          1           0       -0.289012   -1.883186   -0.605201
     16          1           0       -7.525337   -2.485238    0.921953
     17          1           0       -6.813515   -1.473554    1.986787
     18          1           0       -7.533051   -0.876098    0.649845
     19          7           0       -4.478640    1.975673   -0.322949
     20          6           0       -3.138158    2.098124   -0.046936
     21          6           0       -5.573979    2.516078    0.507060
     22          7           0       -0.582186    3.254487    2.000391
     23          1           0        0.417025    3.231213    2.017354
     24          1           0       -1.037882    3.727573    2.754871
     25          7           0       -2.600760    2.727611    1.020299
     26          6           0       -1.280524    2.677499    1.010787
     27          7           0       -0.541240    2.058751    0.031944
     28          1           0        0.464404    2.070062    0.106252
     29          6           0       -1.073033    1.404908   -1.075104
     30          8           0       -0.317244    0.878354   -1.901096
     31          6           0       -2.490353    1.450342   -1.078692
     32          7           0       -3.405712    0.931651   -1.984220
     33          6           0       -4.569104    1.266936   -1.496039
     34          1           0       -5.528363    1.021782   -1.953186
     35          1           0       -6.160684    1.768202    0.815691
     36          1           0       -5.187984    2.984608    1.300630
     37          1           0       -6.113843    3.162875   -0.030530
     38          1           0        5.382303    1.924132    1.389088
     39          1           0        5.503833    3.267639    0.255574
     40          1           0        4.024324    3.031476    1.186507
     41          1           0        5.300861   -0.445180   -2.797350
     42          6           0        4.632341    0.144554   -2.170036
     43          8           0        2.658935   -0.595441   -3.258695
     44          6           0        3.220925    0.080504   -2.397271
     45          1           0        1.464301    0.845897   -1.678411
     46          7           0        2.466058    0.864821   -1.548590
     47          8           0        2.178715    2.332600    0.160292
     48          6           0        2.926956    1.673826   -0.540305
     49          1           0        6.176767    1.008295   -0.980698
     50          6           0        5.111994    0.924483   -1.194198
     51          6           0        4.838006    2.532100    0.681857
     52          7           0        4.299004    1.682103   -0.383389
     53          1           0        5.613185   -1.269664    3.937993
     54          1           0        4.317365   -0.283587    3.835062
     55          1           0        5.783661    0.242264    3.347699
     56          1           0        2.013919   -2.470673   -2.439182
     57          1           0        3.708448   -2.605130   -2.295662
     58          7           0        2.835008   -2.345761   -1.882082
     59          6           0        2.769226   -1.855195   -0.642655
     60          6           0        3.665571   -1.142788    1.443190
     61          7           0        2.478820   -0.802949    1.972860
     62          1           0        0.496194   -0.782497    1.453856
     63          6           0        1.496814   -1.031630    1.103217
     64          7           0        1.560662   -1.522905   -0.138613
     65          1           0        6.869950   -1.552523    1.315762
     66          6           0        5.800453   -1.513759    1.106927
     67          7           0        5.247017   -1.890766   -0.019689
     68          6           0        3.893541   -1.660775    0.180165
     69          6           0        5.175903   -0.550366    3.398190
     70          7           0        4.902085   -1.050279    2.036892
 ---------------------------------------------------------------------

 SCF Done:  E(RwB97XD) =  -2048.71549316     A.U. after   15 cycles

 The electronic state is 1-A.
 Alpha  occ. eigenvalues --  -19.25762 -19.21681 -19.20840 -14.52532 -14.51655
 Alpha  occ. eigenvalues --  -14.49082 -14.48979 -14.47822 -14.47086 -14.46814
 Alpha  occ. eigenvalues --  -14.45724 -14.44484 -14.43160 -14.42886 -14.42213
 Alpha  occ. eigenvalues --  -14.42148 -14.41498 -14.41103 -14.40927 -14.40407
 Alpha  occ. eigenvalues --  -10.45401 -10.41376 -10.39970 -10.38445 -10.38223
 Alpha  occ. eigenvalues --  -10.37437 -10.37132 -10.36240 -10.35580 -10.35487
 Alpha  occ. eigenvalues --  -10.34785 -10.34506 -10.34228 -10.33625 -10.33468
 Alpha  occ. eigenvalues --  -10.33439 -10.33293 -10.31511 -10.31480 -10.31161
 Alpha  occ. eigenvalues --  -10.30663 -10.28709 -10.28263  -1.19388  -1.14353
 Alpha  occ. eigenvalues --   -1.13546  -1.13374  -1.11609  -1.10759  -1.09358
 Alpha  occ. eigenvalues --   -1.08738  -1.07826  -1.05203  -1.03490  -1.02545
 Alpha  occ. eigenvalues --   -1.00555  -0.99972  -0.99894  -0.98681  -0.97181
 Alpha  occ. eigenvalues --   -0.96735  -0.95524  -0.92828  -0.90845  -0.86708
 Alpha  occ. eigenvalues --   -0.85153  -0.84316  -0.84191  -0.83772  -0.82739
 Alpha  occ. eigenvalues --   -0.82602  -0.78819  -0.75961  -0.74789  -0.73794
 Alpha  occ. eigenvalues --   -0.73726  -0.73311  -0.73106  -0.71244  -0.69249
 Alpha  occ. eigenvalues --   -0.67534  -0.66493  -0.66482  -0.65676  -0.64519
 Alpha  occ. eigenvalues --   -0.63905  -0.63126  -0.62822  -0.62746  -0.61893
 Alpha  occ. eigenvalues --   -0.60724  -0.60408  -0.59433  -0.59380  -0.58522
 Alpha  occ. eigenvalues --   -0.58457  -0.58391  -0.57366  -0.56726  -0.56373
 Alpha  occ. eigenvalues --   -0.55987  -0.55522  -0.55454  -0.54619  -0.54286
 Alpha  occ. eigenvalues --   -0.53846  -0.53699  -0.53113  -0.52762  -0.52489
 Alpha  occ. eigenvalues --   -0.52190  -0.52054  -0.51872  -0.51130  -0.50479
 Alpha  occ. eigenvalues --   -0.50451  -0.50223  -0.49475  -0.49401  -0.49031
 Alpha  occ. eigenvalues --   -0.48777  -0.48528  -0.47754  -0.47583  -0.47338
 Alpha  occ. eigenvalues --   -0.47163  -0.46098  -0.45066  -0.43518  -0.42112
 Alpha  occ. eigenvalues --   -0.41283  -0.39754  -0.39413  -0.38029  -0.37475
 Alpha  occ. eigenvalues --   -0.37356  -0.37127  -0.36482  -0.35587  -0.34519
 Alpha  occ. eigenvalues --   -0.33842  -0.33661  -0.33578  -0.33310  -0.33111
 Alpha  occ. eigenvalues --   -0.32792  -0.32442  -0.31998  -0.31299  -0.31092
 Alpha  occ. eigenvalues --   -0.30542  -0.27357  -0.26277  -0.25242
 Alpha virt. eigenvalues --    0.02776   0.04800   0.07512   0.08150   0.08820
 Alpha virt. eigenvalues --    0.09144   0.09594   0.10782   0.10923   0.11945
 Alpha virt. eigenvalues --    0.12963   0.13751   0.14215   0.14381   0.14844

 Mulliken charges:
               1
     1  N   -0.308374
     2  C    0.179439
     3  C    0.042389
     4  N   -0.234393
     5  C    0.114246
     6  H    0.023905
     7  N   -0.292914
     8  C    0.136962
     9  H    0.012628
    10  N   -0.290556
    11  C    0.239354
    12  C    0.089211
    13  N   -0.039345
    14  H    0.114564
    15  H    0.090932
    16  H    0.028077
    17  H    0.034970
    18  H    0.019919
    19  N   -0.306151
    20  C    0.258850
    21  C    0.182252
    22  N   -0.124381
    23  H    0.117270
    24  H    0.119292
    25  N   -0.310973
    26  C    0.248690
    27  N   -0.148778
    28  H    0.119239
    29  C    0.195392
    30  O   -0.329895
    31  C   -0.026739
    32  N   -0.214078
    33  C    0.129498
    34  H    0.019524
    35  H    0.022287
    36  H    0.031718
    37  H    0.024117
    38  H    0.047839
    39  H    0.061375
    40  H    0.077563
    41  H    0.022013
    42  C   -0.069293
    43  O   -0.287939
    44  C    0.134922
    45  H    0.133657
    46  N   -0.104463
    47  O   -0.349432
    48  C    0.346517
    49  H    0.041708
    50  C    0.179082
    51  C    0.044076
    52  N   -0.280636
    53  H    0.033599
    54  H    0.041694
    55  H    0.020154
    56  H    0.127042
    57  H    0.112074
    58  N   -0.004531
    59  C    0.054039
    60  C    0.239618
    61  N   -0.274087
    62  H    0.028011
    63  C    0.159517
    64  N   -0.298059
    65  H    0.031137
    66  C    0.113586
    67  N   -0.249658
    68  C    0.028537
    69  C    0.179438
    70  N   -0.307247
 Sum of Mulliken charges =  -0.00000

 Dipole moment (field-independent basis, Debye):
    X=              4.8871    Y=              4.2606    Z=              6.0689  Tot=              8.8808
 Quadrupole moment (field-independent basis, Debye-Ang):
   XX=           -145.1115   YY=           -233.2685   ZZ=           -249.4882
   XY=              5.5650   XZ=             12.7927   YZ=             14.6369

 Normal termination of Gaussian 16 at Thu Jan 18 06:07:42 2018.
