 Gaussian 16, Revision A.03,
 Gaussian 16:  EM64L-G16RevA.03 25-Dec-2016

 ---------------------------------------
 #p wb97xd/cc-pvdz sp scf=(maxcycles=20)
 ---------------------------------------

 ------------------
 Base pair stacking
 ------------------
 Symbolic Z-matrix:
 Charge =  0 Multiplicity = 1

                         Standard orientation:
 ---------------------------------------------------------------------
 Center     Atomic      Atomic             Coordinates (Angstroms)
 Number     Number       Type             X           Y           Z
 ---------------------------------------------------------------------
      1          7           0       -6.561070   -0.882442    0.476849
      2          6           0       -7.823851   -0.214927    0.848103
      3          6           0       -4.439034   -1.439602    0.322393
      4          7           0       -5.130751   -2.312912   -0.504410
      5          6           0       -6.381510   -1.942299   -0.378264
      6          1           0       -7.221876   -2.411497   -0.890683
      7          7           0       -2.715506   -0.333779    1.492656
      8          6           0       -3.670077    0.449639    2.005139
      9          1           0       -3.321215    1.217473    2.694331
     10          7           0       -4.984718    0.427079    1.795075
     11          6           0       -5.307300   -0.552120    0.933953
     12          6           0       -3.072346   -1.309672    0.629311
     13          7           0       -2.120915   -2.092711    0.116681
     14          1           0       -2.339312   -2.827704   -0.526218
     15          1           0       -1.157910   -1.971448    0.357647
     16          1           0       -8.439285   -0.877111    1.275796
     17          1           0       -7.633485    0.525796    1.491696
     18          1           0       -8.258057    0.160575    0.029286
     19          7           0       -3.576857    1.648302   -1.268006
     20          6           0       -2.244923    1.798894   -0.965818
     21          6           0       -4.669832    2.499441   -0.756478
     22          7           0        0.288109    3.489872    0.703331
     23          1           0        1.281778    3.427904    0.792942
     24          1           0       -0.168392    4.221621    1.210153
     25          7           0       -1.715129    2.742134   -0.157318
     26          6           0       -0.402080    2.630783   -0.061852
     27          7           0        0.337444    1.669943   -0.707916
     28          1           0        1.337259    1.660383   -0.576604
     29          6           0       -0.186589    0.689514   -1.544582
     30          8           0        0.568668   -0.131544   -2.079546
     31          6           0       -1.596147    0.796316   -1.656983
     32          7           0       -2.502528    0.031688   -2.378577
     33          6           0       -3.661697    0.572632   -2.117939
     34          1           0       -4.613711    0.225234   -2.520753
     35          1           0       -5.318342    1.938982   -0.242541
     36          1           0       -4.289430    3.201868   -0.156357
     37          1           0       -5.140751    2.936117   -1.522221
     38          1           0        6.172042    1.754035    0.994644
     39          1           0        6.433544    2.597447   -0.530127
     40          1           0        4.901343    2.777867    0.324972
     41          1           0        6.120570   -1.946648   -2.079254
     42          6           0        5.465408   -1.141584   -1.746301
     43          8           0        3.497843   -2.129006   -2.629926
     44          6           0        4.064465   -1.217001   -2.028285
     45          1           0        2.332324   -0.164940   -1.743405
     46          7           0        3.326274   -0.147399   -1.563239
     47          8           0        3.061113    1.845162   -0.506545
     48          6           0        3.794419    0.945846   -0.878238
     49          1           0        7.009106    0.017110   -0.840634
     50          6           0        5.951759   -0.087918   -1.080063
     51          6           0        5.701726    2.094144    0.084043
     52          7           0        5.155552    0.945965   -0.644731
     53          1           0        4.701447    1.000382    3.919817
     54          1           0        3.529064    1.776633    3.092149
     55          1           0        5.053674    1.743743    2.510295
     56          1           0        1.091839   -3.786037   -0.453560
     57          1           0        2.757234   -3.923629   -0.110577
     58          7           0        1.912714   -3.391573   -0.040392
     59          6           0        1.883574   -2.208696    0.576971
     60          6           0        2.821842   -0.380481    1.776547
     61          7           0        1.673461    0.311919    1.855577
     62          1           0       -0.285099    0.140843    1.276430
     63          6           0        0.685907   -0.352198    1.258411
     64          7           0        0.713083   -1.537029    0.639529
     65          1           0        5.959748   -1.017886    2.223096
     66          6           0        4.905267   -1.042887    1.946727
     67          7           0        4.330550   -2.019172    1.287751
     68          6           0        3.009316   -1.611832    1.173108
     69          6           0        4.358313    1.224946    3.007778
     70          7           0        4.051036   -0.018404    2.274530
 ---------------------------------------------------------------------

 SCF Done:  E(RwB97XD) =  -2048.74954483     A.U. after   15 cycles

 The electronic state is 1-A.
 Alpha  occ. eigenvalues --  -19.25840 -19.21980 -19.20564 -14.52511 -14.51523
 Alpha  occ. eigenvalues --  -14.49968 -14.48424 -14.47737 -14.46705 -14.46460
 Alpha  occ. eigenvalues --  -14.46441 -14.44327 -14.43114 -14.42984 -14.42967
 Alpha  occ. eigenvalues --  -14.42562 -14.41971 -14.41826 -14.41091 -14.40619
 Alpha  occ. eigenvalues --  -10.45463 -10.41008 -10.39997 -10.38515 -10.38089
 Alpha  occ. eigenvalues --  -10.37509 -10.36943 -10.36361 -10.36013 -10.35957
 Alpha  occ. eigenvalues --  -10.35217 -10.34697 -10.34463 -10.34123 -10.33989
 Alpha  occ. eigenvalues --  -10.33396 -10.33098 -10.32047 -10.31384 -10.30832
 Alpha  occ. eigenvalues --  -10.30097 -10.29653 -10.27895  -1.19463  -1.14157
 Alpha  occ. eigenvalues --   -1.13082  -1.12949  -1.12531  -1.10378  -1.09378
 Alpha  occ. eigenvalues --   -1.08411  -1.07883  -1.05972  -1.03409  -1.02485
 Alpha  occ. eigenvalues --   -1.01407  -0.99895  -0.99541  -0.98349  -0.98053
 Alpha  occ. eigenvalues --   -0.96262  -0.95527  -0.93598  -0.90923  -0.86657
 Alpha  occ. eigenvalues --   -0.85187  -0.85029  -0.84004  -0.83797  -0.83378
 Alpha  occ. eigenvalues --   -0.82024  -0.78825  -0.75874  -0.74386  -0.73900
 Alpha  occ. eigenvalues --   -0.73663  -0.73460  -0.73310  -0.72070  -0.69253
 Alpha  occ. eigenvalues --   -0.67307  -0.67172  -0.66520  -0.65564  -0.64435
 Alpha  occ. eigenvalues --   -0.63717  -0.63573  -0.63055  -0.62493  -0.61526
 Alpha  occ. eigenvalues --   -0.61434  -0.61123  -0.59567  -0.59383  -0.58561
 Alpha  occ. eigenvalues --   -0.58156  -0.57823  -0.57509  -0.57422  -0.56367
 Alpha  occ. eigenvalues --   -0.56157  -0.55894  -0.55389  -0.54411  -0.54307
 Alpha  occ. eigenvalues --   -0.53737  -0.53412  -0.52913  -0.52874  -0.52610
 Alpha  occ. eigenvalues --   -0.52355  -0.51853  -0.51642  -0.51558  -0.51156
 Alpha  occ. eigenvalues --   -0.50038  -0.49922  -0.49408  -0.48906  -0.48690
 Alpha  occ. eigenvalues --   -0.48559  -0.48245  -0.48026  -0.47900  -0.47659
 Alpha  occ. eigenvalues --   -0.47307  -0.45884  -0.45283  -0.43988  -0.43144
 Alpha  occ. eigenvalues --   -0.41994  -0.39667  -0.39413  -0.38202  -0.37123
 Alpha  occ. eigenvalues --   -0.37092  -0.36811  -0.36491  -0.35842  -0.34659
 Alpha  occ. eigenvalues --   -0.34512  -0.34039  -0.33516  -0.33161  -0.33126
 Alpha  occ. eigenvalues --   -0.32575  -0.32064  -0.31929  -0.31737  -0.31520
 Alpha  occ. eigenvalues --   -0.31308  -0.28458  -0.26779  -0.25223
 Alpha virt. eigenvalues --    0.02790   0.05459   0.06894   0.07725   0.09139
 Alpha virt. eigenvalues --    0.09199   0.09746   0.10177   0.11167   0.11947
 Alpha virt. eigenvalues --    0.12952   0.13234   0.14429   0.14859   0.15042

 Mulliken charges:
               1
     1  N   -0.310448
     2  C    0.178925
     3  C    0.044877
     4  N   -0.249608
     5  C    0.125555
     6  H    0.029315
     7  N   -0.276411
     8  C    0.132499
     9  H    0.016543
    10  N   -0.289216
    11  C    0.229834
    12  C    0.092751
    13  N   -0.038058
    14  H    0.109459
    15  H    0.089396
    16  H    0.030381
    17  H    0.036407
    18  H    0.024873
    19  N   -0.297835
    20  C    0.250623
    21  C    0.187572
    22  N   -0.114848
    23  H    0.114119
    24  H    0.116730
    25  N   -0.301134
    26  C    0.226975
    27  N   -0.137785
    28  H    0.125267
    29  C    0.161014
    30  O   -0.325031
    31  C   -0.001834
    32  N   -0.227212
    33  C    0.124732
    34  H    0.024040
    35  H    0.016664
    36  H    0.028853
    37  H    0.019522
    38  H    0.051743
    39  H    0.065028
    40  H    0.077559
    41  H    0.027622
    42  C   -0.070708
    43  O   -0.269071
    44  C    0.171497
    45  H    0.134274
    46  N   -0.124640
    47  O   -0.343020
    48  C    0.337514
    49  H    0.041679
    50  C    0.153833
    51  C    0.038296
    52  N   -0.279358
    53  H    0.033051
    54  H    0.039174
    55  H   -0.007387
    56  H    0.119140
    57  H    0.120147
    58  N   -0.050994
    59  C    0.122795
    60  C    0.214582
    61  N   -0.273376
    62  H    0.032402
    63  C    0.159599
    64  N   -0.305778
    65  H    0.027446
    66  C    0.119039
    67  N   -0.244976
    68  C    0.020030
    69  C    0.189975
    70  N   -0.294619
 Sum of Mulliken charges =  -0.00000

 Dipole moment (field-independent basis, Debye):
    X=              4.3704    Y=              5.1865    Z=              5.0786  Tot=              8.4730
 Quadrupole moment (field-independent basis, Debye-Ang):
   XX=           -142.7085   YY=           -225.4422   ZZ=           -259.5465
   XY=             13.4852   XZ=             18.9920   YZ=              1.4905

 Normal termination of Gaussian 16 at Wed Jan 17 19:32:02 2018.
