 Gaussian 16, Revision A.03,
 Gaussian 16:  EM64L-G16RevA.03 25-Dec-2016

 ---------------------------------------
 #p wb97xd/cc-pvdz sp scf=(maxcycles=20)
 ---------------------------------------

 ------------------
 Base pair stacking
 ------------------
 Symbolic Z-matrix:
 Charge =  0 Multiplicity = 1

                         Standard orientation:
 ---------------------------------------------------------------------
 Center     Atomic      Atomic             Coordinates (Angstroms)
 Number     Number       Type             X           Y           Z
 ---------------------------------------------------------------------
      1          7           0       -6.859384   -0.927703    0.203802
      2          6           0       -8.132193   -0.485231    0.805617
      3          6           0       -4.731487   -1.364531   -0.140511
      4          7           0       -5.404549   -1.795275   -1.274605
      5          6           0       -6.659586   -1.514859   -1.021782
      6          1           0       -7.488830   -1.716653   -1.700443
      7          7           0       -3.033564   -0.872689    1.420927
      8          6           0       -4.001158   -0.386725    2.205269
      9          1           0       -3.668079    0.008379    3.164025
     10          7           0       -5.312257   -0.315888    1.984134
     11          6           0       -5.615006   -0.827482    0.779547
     12          6           0       -3.370543   -1.380331    0.215186
     13          7           0       -2.406089   -1.865879   -0.569186
     14          1           0       -2.609652   -2.251391   -1.469833
     15          1           0       -1.447718   -1.860870   -0.283448
     16          1           0       -8.749536   -1.266894    0.895399
     17          1           0       -7.956718   -0.094826    1.708899
     18          1           0       -8.556438    0.207035    0.221862
     19          7           0       -3.217348    2.215667   -0.926848
     20          6           0       -1.881412    2.261733   -0.608710
     21          6           0       -4.266504    3.067563   -0.331678
     22          7           0        0.727086    3.631410    1.230155
     23          1           0        1.715314    3.506652    1.314376
     24          1           0        0.307059    4.330646    1.809260
     25          7           0       -1.307344    3.086340    0.293790
     26          6           0       -0.002912    2.894608    0.379200
     27          7           0        0.688368    1.966833   -0.361658
     28          1           0        1.685260    1.889506   -0.230541
     29          6           0        0.118257    1.107881   -1.296022
     30          8           0        0.831983    0.306611   -1.911894
     31          6           0       -1.282666    1.302081   -1.398888
     32          7           0       -2.223766    0.666340   -2.197039
     33          6           0       -3.353940    1.239637   -1.883596
     34          1           0       -4.320401    0.987875   -2.321608
     35          1           0       -4.947884    2.493110    0.120568
     36          1           0       -3.853099    3.682621    0.338437
     37          1           0       -4.707769    3.605845   -1.048872
     38          1           0        6.506782    1.557862    1.349213
     39          1           0        6.824151    2.538664   -0.079763
     40          1           0        5.297856    2.712808    0.787112
     41          1           0        6.277932   -1.797594   -2.091002
     42          6           0        5.664735   -0.996797   -1.677551
     43          8           0        3.653179   -1.779482   -2.661511
     44          6           0        4.263804   -0.966550   -1.967923
     45          1           0        2.588840    0.143004   -1.578372
     46          7           0        3.580996    0.087858   -1.395862
     47          8           0        3.416027    1.972188   -0.139163
     48          6           0        4.102455    1.077538   -0.600771
     49          1           0        7.262112   -0.023289   -0.654595
     50          6           0        6.202369   -0.045482   -0.905193
     51          6           0        6.061950    2.015156    0.477969
     52          7           0        5.459929    0.979664   -0.366463
     53          1           0        4.336293   -0.719580    4.309548
     54          1           0        3.171366    0.338326    3.878388
     55          1           0        4.704854    0.559122    3.364814
     56          1           0        0.826458   -3.148658   -1.760554
     57          1           0        2.487338   -3.421471   -1.482783
     58          7           0        1.638228   -2.971446   -1.203991
     59          6           0        1.591613   -2.170777   -0.137258
     60          6           0        2.499006   -1.039583    1.749213
     61          7           0        1.344858   -0.448614    2.100090
     62          1           0       -0.603443   -0.352210    1.471231
     63          6           0        0.371070   -0.789613    1.258439
     64          7           0        0.415757   -1.591385    0.189459
     65          1           0        5.634029   -1.808579    1.929302
     66          6           0        4.584074   -1.711436    1.651643
     67          7           0        4.026136   -2.307543    0.626442
     68          6           0        2.704050   -1.890064    0.676751
     69          6           0        4.005556   -0.123280    3.578079
     70          7           0        3.717977   -0.928362    2.375104
 ---------------------------------------------------------------------

 SCF Done:  E(RwB97XD) =  -2048.74838248     A.U. after   15 cycles

 The electronic state is 1-A.
 Alpha  occ. eigenvalues --  -19.25993 -19.22198 -19.20808 -14.52507 -14.50905
 Alpha  occ. eigenvalues --  -14.49722 -14.48714 -14.47887 -14.47099 -14.46826
 Alpha  occ. eigenvalues --  -14.45039 -14.43696 -14.42460 -14.42436 -14.42320
 Alpha  occ. eigenvalues --  -14.42138 -14.42080 -14.41640 -14.40897 -14.40788
 Alpha  occ. eigenvalues --  -10.45578 -10.41362 -10.40245 -10.38403 -10.37503
 Alpha  occ. eigenvalues --  -10.37420 -10.36376 -10.36013 -10.35756 -10.35299
 Alpha  occ. eigenvalues --  -10.35060 -10.34442 -10.34255 -10.33921 -10.33743
 Alpha  occ. eigenvalues --  -10.33241 -10.32923 -10.31781 -10.30889 -10.30652
 Alpha  occ. eigenvalues --  -10.30623 -10.29425 -10.28209  -1.19555  -1.13558
 Alpha  occ. eigenvalues --   -1.13365  -1.13176  -1.12309  -1.10652  -1.09409
 Alpha  occ. eigenvalues --   -1.08738  -1.06937  -1.05667  -1.02624  -1.02422
 Alpha  occ. eigenvalues --   -1.01056  -0.99902  -0.99181  -0.98652  -0.97808
 Alpha  occ. eigenvalues --   -0.96583  -0.94600  -0.93244  -0.90900  -0.85919
 Alpha  occ. eigenvalues --   -0.84801  -0.84429  -0.84129  -0.83908  -0.83141
 Alpha  occ. eigenvalues --   -0.82419  -0.78846  -0.75072  -0.74657  -0.73777
 Alpha  occ. eigenvalues --   -0.73627  -0.73419  -0.72808  -0.71796  -0.68387
 Alpha  occ. eigenvalues --   -0.67477  -0.67012  -0.66588  -0.64706  -0.64475
 Alpha  occ. eigenvalues --   -0.63809  -0.63392  -0.62741  -0.62207  -0.61820
 Alpha  occ. eigenvalues --   -0.60815  -0.60270  -0.59537  -0.58634  -0.58492
 Alpha  occ. eigenvalues --   -0.58065  -0.57768  -0.57357  -0.57002  -0.56507
 Alpha  occ. eigenvalues --   -0.56075  -0.55832  -0.54531  -0.54428  -0.53766
 Alpha  occ. eigenvalues --   -0.53709  -0.53552  -0.52963  -0.52687  -0.52611
 Alpha  occ. eigenvalues --   -0.52040  -0.51917  -0.51603  -0.51062  -0.50869
 Alpha  occ. eigenvalues --   -0.50255  -0.49742  -0.49516  -0.48993  -0.48555
 Alpha  occ. eigenvalues --   -0.48337  -0.48115  -0.47887  -0.47838  -0.47640
 Alpha  occ. eigenvalues --   -0.47414  -0.45759  -0.45140  -0.43922  -0.42653
 Alpha  occ. eigenvalues --   -0.41888  -0.39583  -0.38965  -0.37954  -0.37414
 Alpha  occ. eigenvalues --   -0.37287  -0.36556  -0.35775  -0.35472  -0.34484
 Alpha  occ. eigenvalues --   -0.34436  -0.34247  -0.33408  -0.32942  -0.32651
 Alpha  occ. eigenvalues --   -0.32375  -0.32259  -0.32031  -0.31751  -0.31573
 Alpha  occ. eigenvalues --   -0.30974  -0.27565  -0.26369  -0.25546
 Alpha virt. eigenvalues --    0.03013   0.05995   0.07170   0.08047   0.08891
 Alpha virt. eigenvalues --    0.09455   0.09618   0.10381   0.10737   0.12620
 Alpha virt. eigenvalues --    0.13254   0.13461   0.14316   0.14743   0.15316

 Mulliken charges:
               1
     1  N   -0.310334
     2  C    0.180465
     3  C    0.028337
     4  N   -0.253384
     5  C    0.126423
     6  H    0.028572
     7  N   -0.283641
     8  C    0.133158
     9  H    0.017203
    10  N   -0.291663
    11  C    0.237829
    12  C    0.094435
    13  N   -0.032110
    14  H    0.109010
    15  H    0.090174
    16  H    0.028429
    17  H    0.036461
    18  H    0.024071
    19  N   -0.306325
    20  C    0.258591
    21  C    0.181796
    22  N   -0.122780
    23  H    0.114471
    24  H    0.118952
    25  N   -0.308868
    26  C    0.246552
    27  N   -0.138875
    28  H    0.117654
    29  C    0.180106
    30  O   -0.327305
    31  C   -0.012423
    32  N   -0.231681
    33  C    0.125855
    34  H    0.028751
    35  H    0.030420
    36  H    0.028597
    37  H    0.022052
    38  H    0.052739
    39  H    0.063660
    40  H    0.075054
    41  H    0.027070
    42  C   -0.062506
    43  O   -0.283238
    44  C    0.184539
    45  H    0.135378
    46  N   -0.128029
    47  O   -0.351351
    48  C    0.347152
    49  H    0.041851
    50  C    0.151956
    51  C    0.039271
    52  N   -0.288128
    53  H    0.031042
    54  H    0.040077
    55  H    0.015475
    56  H    0.114657
    57  H    0.119221
    58  N   -0.027154
    59  C    0.108679
    60  C    0.239922
    61  N   -0.278734
    62  H    0.029734
    63  C    0.158018
    64  N   -0.305406
    65  H    0.022956
    66  C    0.121708
    67  N   -0.248824
    68  C    0.007832
    69  C    0.181592
    70  N   -0.305191
 Sum of Mulliken charges =  -0.00000

 Dipole moment (field-independent basis, Debye):
    X=              4.8183    Y=              5.0300    Z=              4.9583  Tot=              8.5500
 Quadrupole moment (field-independent basis, Debye-Ang):
   XX=           -141.0787   YY=           -229.1786   ZZ=           -250.9811
   XY=              5.9012   XZ=             24.8818   YZ=              7.7055

 Normal termination of Gaussian 16 at Thu Jan 18 09:19:40 2018.
