 Gaussian 16, Revision A.03,
 Gaussian 16:  EM64L-G16RevA.03 25-Dec-2016

 ---------------------------------------
 #p wb97xd/cc-pvdz sp scf=(maxcycles=20)
 ---------------------------------------

 ------------------
 Base pair stacking
 ------------------
 Symbolic Z-matrix:
 Charge =  0 Multiplicity = 1

                         Standard orientation:
 ---------------------------------------------------------------------
 Center     Atomic      Atomic             Coordinates (Angstroms)
 Number     Number       Type             X           Y           Z
 ---------------------------------------------------------------------
      1          7           0       -6.523272    0.733184   -0.515343
      2          6           0       -7.773959   -0.036005   -0.664148
      3          6           0       -4.411658    1.347557   -0.546427
      4          7           0       -5.118446    2.414540   -0.010947
      5          6           0       -6.362322    2.001698   -0.013651
      6          1           0       -7.210637    2.587081    0.342195
      7          7           0       -2.669315   -0.025433   -1.347714
      8          6           0       -3.609865   -0.941820   -1.599054
      9          1           0       -3.247669   -1.873222   -2.032147
     10          7           0       -4.924479   -0.880708   -1.396668
     11          6           0       -5.264119    0.303925   -0.862132
     12          6           0       -3.043125    1.156109   -0.809841
     13          7           0       -2.105712    2.072138   -0.558232
     14          1           0       -2.336906    2.960695   -0.160461
     15          1           0       -1.140892    1.901541   -0.758639
     16          1           0       -8.401882    0.459063   -1.264820
     17          1           0       -7.570693   -0.930742   -1.060706
     18          1           0       -8.200372   -0.159525    0.231905
     19          7           0       -3.625888   -1.304204    1.357738
     20          6           0       -2.297034   -1.495605    1.065212
     21          6           0       -4.735936   -2.153235    0.880614
     22          7           0        0.201896   -3.309381   -0.524528
     23          1           0        1.196761   -3.272239   -0.614496
     24          1           0       -0.269302   -4.052352   -1.000636
     25          7           0       -1.786233   -2.483498    0.298931
     26          6           0       -0.470989   -2.404014    0.201723
     27          7           0        0.287821   -1.432202    0.807779
     28          1           0        1.287783   -1.449341    0.678403
     29          6           0       -0.216477   -0.406082    1.600631
     30          8           0        0.555261    0.421014    2.101696
     31          6           0       -1.628120   -0.478272    1.714353
     32          7           0       -2.519099    0.335443    2.400601
     33          6           0       -3.689087   -0.191621    2.160747
     34          1           0       -4.634080    0.192657    2.546224
     35          1           0       -5.371773   -1.601728    0.341759
     36          1           0       -4.369672   -2.888538    0.311890
     37          1           0       -5.216976   -2.546745    1.663266
     38          1           0        6.121581   -1.711894   -0.876670
     39          1           0        6.363179   -2.494655    0.683318
     40          1           0        4.828644   -2.679162   -0.166689
     41          1           0        6.144278    2.117112    2.036189
     42          6           0        5.472686    1.312514    1.736485
     43          8           0        3.525269    2.378052    2.572744
     44          6           0        4.073289    1.429417    2.011873
     45          1           0        2.319661    0.402853    1.768358
     46          7           0        3.313263    0.356691    1.591312
     47          8           0        3.007442   -1.673206    0.620130
     48          6           0        3.759095   -0.774458    0.954687
     49          1           0        6.992748    0.083901    0.884578
     50          6           0        5.937539    0.221326    1.116951
     51          6           0        5.642976   -2.002779    0.046586
     52          7           0        5.120229   -0.813237    0.724428
     53          1           0        4.768407   -1.890720   -3.318332
     54          1           0        3.611302   -2.407029   -2.290397
     55          1           0        5.135647   -2.176988   -1.754167
     56          1           0        1.076002    3.913459   -0.535666
     57          1           0        2.738241    3.971948   -0.914677
     58          7           0        1.903559    3.428514   -0.818724
     59          6           0        1.895502    2.115527   -1.057868
     60          6           0        2.865950    0.030467   -1.668170
     61          7           0        1.730385   -0.673940   -1.531228
     62          1           0       -0.230387   -0.372759   -1.016197
     63          6           0        0.731427    0.120150   -1.151225
     64          7           0        0.737485    1.435417   -0.911196
     65          1           0        5.991171    0.560948   -2.303557
     66          6           0        4.936690    0.648524   -2.040239
     67          7           0        4.344824    1.766150   -1.696299
     68          6           0        3.031403    1.388348   -1.457700
     69          6           0        4.430370   -1.840905   -2.378519
     70          7           0        4.101075   -0.441632   -2.044437
 ---------------------------------------------------------------------

 SCF Done:  E(RwB97XD) =  -2048.68532189     A.U. after   15 cycles

 The electronic state is 1-A.
 Alpha  occ. eigenvalues --  -19.25817 -19.21931 -19.20532 -14.52663 -14.51670
 Alpha  occ. eigenvalues --  -14.50303 -14.48169 -14.47807 -14.47040 -14.46376
 Alpha  occ. eigenvalues --  -14.46213 -14.44558 -14.43294 -14.43283 -14.43259
 Alpha  occ. eigenvalues --  -14.42803 -14.41990 -14.41683 -14.41127 -14.40495
 Alpha  occ. eigenvalues --  -10.45474 -10.40807 -10.39997 -10.38918 -10.37965
 Alpha  occ. eigenvalues --  -10.37707 -10.37166 -10.36550 -10.36257 -10.36042
 Alpha  occ. eigenvalues --  -10.35440 -10.34855 -10.34603 -10.33968 -10.33937
 Alpha  occ. eigenvalues --  -10.33012 -10.32502 -10.32352 -10.31651 -10.30975
 Alpha  occ. eigenvalues --  -10.29909 -10.28959 -10.27744  -1.19628  -1.14384
 Alpha  occ. eigenvalues --   -1.13078  -1.12932  -1.12816  -1.10294  -1.09576
 Alpha  occ. eigenvalues --   -1.08345  -1.08215  -1.06214  -1.03839  -1.02593
 Alpha  occ. eigenvalues --   -1.01815  -1.00162  -0.99382  -0.98354  -0.98256
 Alpha  occ. eigenvalues --   -0.96069  -0.95900  -0.93902  -0.91262  -0.87401
 Alpha  occ. eigenvalues --   -0.85994  -0.85324  -0.83740  -0.83721  -0.83518
 Alpha  occ. eigenvalues --   -0.81600  -0.78992  -0.76222  -0.74350  -0.74133
 Alpha  occ. eigenvalues --   -0.74017  -0.73628  -0.73315  -0.72368  -0.69684
 Alpha  occ. eigenvalues --   -0.67598  -0.67079  -0.66783  -0.66037  -0.65105
 Alpha  occ. eigenvalues --   -0.64009  -0.63568  -0.63351  -0.62809  -0.62368
 Alpha  occ. eigenvalues --   -0.61437  -0.61337  -0.60116  -0.59538  -0.58960
 Alpha  occ. eigenvalues --   -0.58646  -0.57951  -0.57753  -0.57048  -0.56723
 Alpha  occ. eigenvalues --   -0.56353  -0.56249  -0.55749  -0.54710  -0.54487
 Alpha  occ. eigenvalues --   -0.54268  -0.53468  -0.53285  -0.53063  -0.52461
 Alpha  occ. eigenvalues --   -0.52343  -0.51771  -0.51487  -0.50900  -0.50529
 Alpha  occ. eigenvalues --   -0.50245  -0.49723  -0.49471  -0.49007  -0.48779
 Alpha  occ. eigenvalues --   -0.48458  -0.48279  -0.48099  -0.47831  -0.47425
 Alpha  occ. eigenvalues --   -0.47188  -0.45966  -0.45287  -0.43890  -0.42912
 Alpha  occ. eigenvalues --   -0.41450  -0.40038  -0.39523  -0.38473  -0.37210
 Alpha  occ. eigenvalues --   -0.36967  -0.36954  -0.36796  -0.35860  -0.34921
 Alpha  occ. eigenvalues --   -0.34694  -0.34014  -0.33560  -0.33429  -0.33077
 Alpha  occ. eigenvalues --   -0.32511  -0.31908  -0.31889  -0.31643  -0.31488
 Alpha  occ. eigenvalues --   -0.31248  -0.28630  -0.26903  -0.25118
 Alpha virt. eigenvalues --    0.02649   0.05112   0.06615   0.07483   0.08842
 Alpha virt. eigenvalues --    0.09231   0.09431   0.10292   0.11235   0.11793
 Alpha virt. eigenvalues --    0.12682   0.12999   0.14535   0.14635   0.14953

 Mulliken charges:
               1
     1  N   -0.311956
     2  C    0.178709
     3  C    0.057582
     4  N   -0.250307
     5  C    0.127172
     6  H    0.030263
     7  N   -0.266575
     8  C    0.128249
     9  H    0.016628
    10  N   -0.295031
    11  C    0.225530
    12  C    0.085088
    13  N   -0.039665
    14  H    0.107897
    15  H    0.088404
    16  H    0.031710
    17  H    0.039516
    18  H    0.025922
    19  N   -0.290124
    20  C    0.229680
    21  C    0.211440
    22  N   -0.100842
    23  H    0.113520
    24  H    0.114107
    25  N   -0.287880
    26  C    0.200269
    27  N   -0.139067
    28  H    0.136152
    29  C    0.151522
    30  O   -0.324394
    31  C    0.013079
    32  N   -0.224212
    33  C    0.120998
    34  H    0.022469
    35  H    0.012167
    36  H    0.023788
    37  H    0.008903
    38  H    0.039102
    39  H    0.059927
    40  H    0.070607
    41  H    0.030004
    42  C   -0.083087
    43  O   -0.264369
    44  C    0.177626
    45  H    0.133524
    46  N   -0.121766
    47  O   -0.334386
    48  C    0.326665
    49  H    0.042630
    50  C    0.155660
    51  C    0.073521
    52  N   -0.278222
    53  H    0.023710
    54  H    0.034802
    55  H   -0.003856
    56  H    0.118919
    57  H    0.121037
    58  N   -0.064048
    59  C    0.131161
    60  C    0.203502
    61  N   -0.277823
    62  H    0.031273
    63  C    0.167502
    64  N   -0.309159
    65  H    0.030477
    66  C    0.116069
    67  N   -0.245836
    68  C    0.030717
    69  C    0.183876
    70  N   -0.290469
 Sum of Mulliken charges =  -0.00000

 Dipole moment (field-independent basis, Debye):
    X=              4.1219    Y=             -5.3549    Z=             -5.2752  Tot=              8.5728
 Quadrupole moment (field-independent basis, Debye-Ang):
   XX=           -142.2048   YY=           -225.9975   ZZ=           -263.4381
   XY=            -17.0653   XZ=            -15.1294   YZ=             -4.4662

 Normal termination of Gaussian 16 at Thu Jan 18 03:26:13 2018.
