 Gaussian 16, Revision A.03,
 Gaussian 16:  EM64L-G16RevA.03 25-Dec-2016

 ---------------------------------------
 #p wb97xd/cc-pvdz sp scf=(maxcycles=20)
 ---------------------------------------

 ------------------
 Base pair stacking
 ------------------
 Symbolic Z-matrix:
 Charge =  0 Multiplicity = 1

                         Standard orientation:
 ---------------------------------------------------------------------
 Center     Atomic      Atomic             Coordinates (Angstroms)
 Number     Number       Type             X           Y           Z
 ---------------------------------------------------------------------
      1          7           0        4.203219   -1.266074   -1.894280
      2          6           0        5.452628   -0.711232   -2.450263
      3          6           0        2.094003   -1.580218   -1.355906
      4          7           0        2.799534   -2.633051   -0.791557
      5          6           0        4.042020   -2.401653   -1.138502
      6          1           0        4.889081   -3.032698   -0.867906
      7          7           0        0.354285   -0.128833   -2.011520
      8          6           0        1.294001    0.595922   -2.627349
      9          1           0        0.932578    1.485433   -3.141563
     10          7           0        2.606972    0.387847   -2.702994
     11          6           0        2.945773   -0.729458   -2.038709
     12          6           0        0.727223   -1.247290   -1.351937
     13          7           0       -0.209360   -1.972082   -0.736594
     14          1           0        0.021249   -2.807422   -0.236336
     15          1           0       -1.172928   -1.704965   -0.754633
     16          1           0        5.870451   -1.379165   -3.066269
     17          1           0        5.249928    0.126485   -2.956506
     18          1           0        6.087703   -0.503640   -1.706236
     19          7           0        5.956860    0.726580    0.669920
     20          6           0        4.629292    1.080562    0.687028
     21          6           0        7.052066    1.547056    0.114887
     22          7           0        2.112906    3.354646   -0.060028
     23          1           0        1.121455    3.420044    0.049485
     24          1           0        2.572569    4.126166   -0.500675
     25          7           0        4.106484    2.228161    0.203547
     26          6           0        2.796185    2.281001    0.364614
     27          7           0        2.052870    1.287104    0.953815
     28          1           0        1.055600    1.413092    1.034696
     29          6           0        2.569709    0.097916    1.458366
     30          8           0        1.811522   -0.734502    1.971169
     31          6           0        3.976226    0.026679    1.292535
     32          7           0        4.875707   -0.968898    1.648406
     33          6           0        6.035079   -0.511043    1.260540
     34          1           0        6.982554   -1.037315    1.381379
     35          1           0        7.506197    1.045976   -0.620961
     36          1           0        6.676823    2.399740   -0.246221
     37          1           0        7.713688    1.753816    0.834825
     38          1           0       -3.916582    2.361748    0.554889
     39          1           0       -3.768774    2.876072    2.233660
     40          1           0       -2.408184    3.073727    1.128635
     41          1           0       -3.853929   -1.903065    2.780636
     42          6           0       -3.158668   -1.119444    2.479356
     43          8           0       -1.231002   -2.479667    2.726357
     44          6           0       -1.756587   -1.403461    2.442914
     45          1           0        0.030903   -0.505578    2.010454
     46          7           0       -0.965560   -0.343291    2.048471
     47          8           0       -0.605698    1.791528    1.362752
     48          6           0       -1.383804    0.916368    1.699374
     49          1           0       -4.652988    0.366501    2.155673
     50          6           0       -3.597038    0.099683    2.144445
     51          6           0       -3.243440    2.443358    1.395295
     52          7           0       -2.749493    1.112531    1.759527
     53          1           0       -7.120299    2.398712   -2.662924
     54          1           0       -5.709346    2.910753   -2.023294
     55          1           0       -7.079822    2.983381   -1.139787
     56          1           0       -3.460278   -3.328684    0.314783
     57          1           0       -5.162597   -3.218246    0.318209
     58          7           0       -4.279933   -2.786806    0.128557
     59          6           0       -4.200544   -1.544012   -0.351371
     60          6           0       -5.079533    0.527699   -1.124122
     61          7           0       -3.880581    1.081590   -1.369372
     62          1           0       -1.892591    0.600709   -1.238077
     63          6           0       -2.902475    0.229806   -1.068270
     64          7           0       -2.979948   -1.015356   -0.587491
     65          1           0       -8.302911    0.337021   -0.963958
     66          6           0       -7.229761    0.148877   -0.920542
     67          7           0       -6.685320   -0.968729   -0.505560
     68          6           0       -5.322257   -0.741927   -0.629485
     69          6           0       -6.577277    2.456254   -1.825178
     70          7           0       -6.316508    1.098072   -1.310066
 ---------------------------------------------------------------------

 SCF Done:  E(RwB97XD) =  -2048.75232022     A.U. after   15 cycles

 The electronic state is 1-A.
 Alpha  occ. eigenvalues --  -19.25146 -19.21535 -19.20800 -14.52591 -14.51595
 Alpha  occ. eigenvalues --  -14.49713 -14.48768 -14.48299 -14.47173 -14.47053
 Alpha  occ. eigenvalues --  -14.46816 -14.45417 -14.44771 -14.44633 -14.42910
 Alpha  occ. eigenvalues --  -14.42317 -14.41800 -14.41450 -14.41112 -14.40947
 Alpha  occ. eigenvalues --  -10.44727 -10.41532 -10.40168 -10.39542 -10.38547
 Alpha  occ. eigenvalues --  -10.38016 -10.37501 -10.36772 -10.36267 -10.35983
 Alpha  occ. eigenvalues --  -10.35025 -10.34190 -10.34018 -10.33959 -10.33798
 Alpha  occ. eigenvalues --  -10.33651 -10.33609 -10.32896 -10.31924 -10.31071
 Alpha  occ. eigenvalues --  -10.30179 -10.28839 -10.28725  -1.18691  -1.15356
 Alpha  occ. eigenvalues --   -1.13575  -1.12491  -1.11400  -1.11266  -1.09644
 Alpha  occ. eigenvalues --   -1.08821  -1.08424  -1.05575  -1.05126  -1.01781
 Alpha  occ. eigenvalues --   -1.01055  -1.00934  -0.99955  -0.98993  -0.97340
 Alpha  occ. eigenvalues --   -0.97266  -0.96945  -0.93259  -0.90166  -0.87843
 Alpha  occ. eigenvalues --   -0.86032  -0.84856  -0.84102  -0.83307  -0.82581
 Alpha  occ. eigenvalues --   -0.82510  -0.78091  -0.77213  -0.75171  -0.75132
 Alpha  occ. eigenvalues --   -0.73922  -0.73192  -0.72606  -0.71426  -0.70588
 Alpha  occ. eigenvalues --   -0.67746  -0.67009  -0.66616  -0.65827  -0.64827
 Alpha  occ. eigenvalues --   -0.64385  -0.63335  -0.63056  -0.62895  -0.62104
 Alpha  occ. eigenvalues --   -0.60776  -0.60701  -0.60226  -0.59747  -0.58896
 Alpha  occ. eigenvalues --   -0.58838  -0.58518  -0.58439  -0.56853  -0.55938
 Alpha  occ. eigenvalues --   -0.55773  -0.55706  -0.55398  -0.54608  -0.54351
 Alpha  occ. eigenvalues --   -0.54156  -0.53782  -0.53434  -0.53178  -0.52982
 Alpha  occ. eigenvalues --   -0.52558  -0.51873  -0.51490  -0.50813  -0.50659
 Alpha  occ. eigenvalues --   -0.50543  -0.50203  -0.49663  -0.49398  -0.49193
 Alpha  occ. eigenvalues --   -0.48879  -0.48621  -0.48282  -0.47392  -0.47251
 Alpha  occ. eigenvalues --   -0.47216  -0.45839  -0.45431  -0.45129  -0.42829
 Alpha  occ. eigenvalues --   -0.41493  -0.40898  -0.39002  -0.37917  -0.37881
 Alpha  occ. eigenvalues --   -0.37765  -0.37538  -0.37333  -0.35370  -0.34996
 Alpha  occ. eigenvalues --   -0.34701  -0.34215  -0.33693  -0.33567  -0.33290
 Alpha  occ. eigenvalues --   -0.33265  -0.32665  -0.32140  -0.31261  -0.31191
 Alpha  occ. eigenvalues --   -0.30819  -0.30135  -0.26558  -0.25665
 Alpha virt. eigenvalues --    0.03046   0.04644   0.06627   0.07658   0.08561
 Alpha virt. eigenvalues --    0.09072   0.09371   0.10221   0.10441   0.12573
 Alpha virt. eigenvalues --    0.13383   0.13597   0.13917   0.14334   0.14810

 Mulliken charges:
               1
     1  N   -0.301118
     2  C    0.193270
     3  C    0.037987
     4  N   -0.239947
     5  C    0.148863
     6  H    0.027223
     7  N   -0.292632
     8  C    0.124151
     9  H    0.007732
    10  N   -0.278826
    11  C    0.236420
    12  C    0.079977
    13  N   -0.057671
    14  H    0.119069
    15  H    0.089947
    16  H    0.026338
    17  H    0.034769
    18  H    0.000762
    19  N   -0.302827
    20  C    0.240908
    21  C    0.181094
    22  N   -0.119015
    23  H    0.119213
    24  H    0.119651
    25  N   -0.305986
    26  C    0.248040
    27  N   -0.138788
    28  H    0.119683
    29  C    0.186341
    30  O   -0.317131
    31  C   -0.006919
    32  N   -0.214383
    33  C    0.100412
    34  H    0.023911
    35  H    0.016140
    36  H    0.034645
    37  H    0.028617
    38  H    0.058011
    39  H    0.050607
    40  H    0.071982
    41  H    0.015023
    42  C   -0.091457
    43  O   -0.278176
    44  C    0.174892
    45  H    0.131163
    46  N   -0.124459
    47  O   -0.350274
    48  C    0.339772
    49  H    0.045774
    50  C    0.150917
    51  C    0.041856
    52  N   -0.271429
    53  H    0.035937
    54  H    0.041870
    55  H    0.029617
    56  H    0.126472
    57  H    0.119485
    58  N   -0.057155
    59  C    0.090045
    60  C    0.234102
    61  N   -0.273579
    62  H    0.037805
    63  C    0.158419
    64  N   -0.303345
    65  H    0.039669
    66  C    0.140337
    67  N   -0.258557
    68  C    0.039839
    69  C    0.178524
    70  N   -0.313607
 Sum of Mulliken charges =  -0.00000

 Dipole moment (field-independent basis, Debye):
    X=             -5.0760    Y=              7.3162    Z=             -3.1111  Tot=              9.4325
 Quadrupole moment (field-independent basis, Debye-Ang):
   XX=           -145.6353   YY=           -226.7430   ZZ=           -259.6119
   XY=             -6.1867   XZ=            -11.8761   YZ=              8.2391

 Normal termination of Gaussian 16 at Thu Jan 18 14:53:12 2018.
