 Gaussian 16, Revision A.03,
 Gaussian 16:  EM64L-G16RevA.03 25-Dec-2016

 ---------------------------------------
 #p wb97xd/cc-pvdz sp scf=(maxcycles=20)
 ---------------------------------------

 ------------------
 Base pair stacking
 ------------------
 Symbolic Z-matrix:
 Charge =  0 Multiplicity = 1

                         Standard orientation:
 ---------------------------------------------------------------------
 Center     Atomic      Atomic             Coordinates (Angstroms)
 Number     Number       Type             X           Y           Z
 ---------------------------------------------------------------------
      1          7           0        5.125722   -1.075366   -1.387864
      2          6           0        6.402249   -0.409784   -1.712625
      3          6           0        2.986670   -1.522199   -1.138649
      4          7           0        3.672531   -2.631569   -0.665775
      5          6           0        4.933783   -2.317962   -0.834833
      6          1           0        5.773441   -2.961703   -0.571167
      7          7           0        1.266143   -0.031188   -1.754797
      8          6           0        2.234125    0.803657   -2.146755
      9          1           0        1.891748    1.752627   -2.557210
     10          7           0        3.555330    0.642992   -2.107986
     11          6           0        3.869020   -0.554767   -1.587044
     12          6           0        1.614296   -1.228502   -1.234891
     13          7           0        0.649464   -2.063226   -0.843061
     14          1           0        0.861063   -2.959854   -0.452531
     15          1           0       -0.317222   -1.820934   -0.926478
     16          1           0        6.909969   -0.963537   -2.372741
     17          1           0        6.218901    0.490815   -2.105598
     18          1           0        6.946537   -0.303926   -0.880429
     19          7           0        5.097328    0.898273    1.009808
     20          6           0        3.761144    1.196345    0.892333
     21          6           0        6.203558    1.702331    0.452625
     22          7           0        1.234074    3.274323   -0.272878
     23          1           0        0.235498    3.309150   -0.243631
     24          1           0        1.699887    4.014932   -0.757887
     25          7           0        3.238498    2.265242    0.253301
     26          6           0        1.918650    2.279577    0.311712
     27          7           0        1.166300    1.321394    0.946827
     28          1           0        0.162072    1.413251    0.940859
     29          6           0        1.682782    0.213084    1.610723
     30          8           0        0.916034   -0.593104    2.151918
     31          6           0        3.099510    0.184000    1.556563
     32          7           0        4.002162   -0.731216    2.080495
     33          6           0        5.171757   -0.267647    1.732127
     34          1           0        6.124418   -0.738627    1.976849
     35          1           0        6.729764    1.147598   -0.190957
     36          1           0        5.828547    2.496891   -0.023089
     37          1           0        6.800373    2.009538    1.193066
     38          1           0       -4.787692    2.098871    0.001410
     39          1           0       -4.787171    2.788939    1.622664
     40          1           0       -3.352996    2.928520    0.605306
     41          1           0       -4.752026   -1.907895    2.664327
     42          6           0       -4.062611   -1.131069    2.333456
     43          8           0       -2.114660   -2.376899    2.863114
     44          6           0       -2.653053   -1.358487    2.429810
     45          1           0       -0.869061   -0.435962    2.036568
     46          7           0       -1.870422   -0.312414    1.984306
     47          8           0       -1.531439    1.753673    1.104788
     48          6           0       -2.303021    0.886054    1.474328
     49          1           0       -5.577103    0.249927    1.746140
     50          6           0       -4.514984    0.027730    1.840374
     51          6           0       -4.184439    2.294588    0.875406
     52          7           0       -3.675157    1.030124    1.413445
     53          1           0       -6.198033    2.377273   -2.835399
     54          1           0       -4.884621    2.819554   -1.974333
     55          1           0       -6.342052    2.719922   -1.246294
     56          1           0       -2.634197   -3.647847   -0.373190
     57          1           0       -4.330606   -3.582268   -0.540520
     58          7           0       -3.451739   -3.104525   -0.564436
     59          6           0       -3.374495   -1.800809   -0.839274
     60          6           0       -4.253478    0.342698   -1.381959
     61          7           0       -3.059642    0.957959   -1.407164
     62          1           0       -1.078018    0.512874   -1.132050
     63          6           0       -2.083738    0.094791   -1.132473
     64          7           0       -2.159055   -1.211343   -0.856948
     65          1           0       -7.465052    0.048229   -1.608271
     66          6           0       -6.395452   -0.117224   -1.475935
     67          7           0       -5.851271   -1.271504   -1.177299
     68          6           0       -4.493414   -0.993916   -1.114710
     69          6           0       -5.748774    2.318112   -1.943956
     70          7           0       -5.486888    0.903570   -1.614558
 ---------------------------------------------------------------------

 SCF Done:  E(RwB97XD) =  -2048.71849794     A.U. after   15 cycles

 The electronic state is 1-A.
 Alpha  occ. eigenvalues --  -19.25115 -19.21374 -19.20549 -14.52773 -14.51648
 Alpha  occ. eigenvalues --  -14.49322 -14.49040 -14.48094 -14.47098 -14.46555
 Alpha  occ. eigenvalues --  -14.46514 -14.45458 -14.44432 -14.44335 -14.43029
 Alpha  occ. eigenvalues --  -14.41681 -14.41650 -14.41367 -14.41159 -14.41053
 Alpha  occ. eigenvalues --  -10.44711 -10.40876 -10.39988 -10.39452 -10.38146
 Alpha  occ. eigenvalues --  -10.38060 -10.37258 -10.37058 -10.36113 -10.35958
 Alpha  occ. eigenvalues --  -10.34487 -10.34479 -10.34336 -10.34090 -10.33885
 Alpha  occ. eigenvalues --  -10.33668 -10.33643 -10.32678 -10.31933 -10.30996
 Alpha  occ. eigenvalues --  -10.30276 -10.28998 -10.28178  -1.18802  -1.15499
 Alpha  occ. eigenvalues --   -1.13172  -1.12378  -1.11889  -1.10716  -1.09409
 Alpha  occ. eigenvalues --   -1.08625  -1.08444  -1.05764  -1.04890  -1.01823
 Alpha  occ. eigenvalues --   -1.01235  -1.01115  -0.99598  -0.98454  -0.97662
 Alpha  occ. eigenvalues --   -0.96987  -0.96674  -0.93436  -0.90286  -0.87862
 Alpha  occ. eigenvalues --   -0.86387  -0.85148  -0.83976  -0.83552  -0.82907
 Alpha  occ. eigenvalues --   -0.82349  -0.78185  -0.77170  -0.75031  -0.74704
 Alpha  occ. eigenvalues --   -0.73675  -0.73406  -0.72680  -0.71687  -0.70552
 Alpha  occ. eigenvalues --   -0.67468  -0.66950  -0.66921  -0.65927  -0.64485
 Alpha  occ. eigenvalues --   -0.64376  -0.63546  -0.63358  -0.62527  -0.62013
 Alpha  occ. eigenvalues --   -0.61709  -0.61181  -0.60641  -0.59864  -0.59635
 Alpha  occ. eigenvalues --   -0.58949  -0.58599  -0.58257  -0.57311  -0.56286
 Alpha  occ. eigenvalues --   -0.55729  -0.55567  -0.55236  -0.54281  -0.54179
 Alpha  occ. eigenvalues --   -0.53978  -0.53930  -0.53328  -0.53098  -0.52880
 Alpha  occ. eigenvalues --   -0.52561  -0.52463  -0.51441  -0.51248  -0.50623
 Alpha  occ. eigenvalues --   -0.50283  -0.49924  -0.49536  -0.49059  -0.48857
 Alpha  occ. eigenvalues --   -0.48607  -0.48195  -0.48120  -0.48091  -0.47639
 Alpha  occ. eigenvalues --   -0.47064  -0.46217  -0.44632  -0.44592  -0.43076
 Alpha  occ. eigenvalues --   -0.41418  -0.40806  -0.38833  -0.37866  -0.37787
 Alpha  occ. eigenvalues --   -0.37628  -0.37128  -0.36731  -0.35909  -0.34844
 Alpha  occ. eigenvalues --   -0.34703  -0.34424  -0.33978  -0.33764  -0.32852
 Alpha  occ. eigenvalues --   -0.32451  -0.32348  -0.31841  -0.31388  -0.31138
 Alpha  occ. eigenvalues --   -0.30548  -0.29860  -0.27396  -0.24309
 Alpha virt. eigenvalues --    0.03039   0.04523   0.06391   0.06600   0.07956
 Alpha virt. eigenvalues --    0.09549   0.10197   0.10347   0.11561   0.12372
 Alpha virt. eigenvalues --    0.12564   0.13600   0.14114   0.14784   0.14975

 Mulliken charges:
               1
     1  N   -0.299542
     2  C    0.193873
     3  C    0.072014
     4  N   -0.242047
     5  C    0.130554
     6  H    0.024570
     7  N   -0.280517
     8  C    0.133827
     9  H    0.000752
    10  N   -0.261268
    11  C    0.213583
    12  C    0.063126
    13  N   -0.043286
    14  H    0.112570
    15  H    0.085464
    16  H    0.025517
    17  H    0.033932
    18  H    0.020099
    19  N   -0.290933
    20  C    0.226745
    21  C    0.192771
    22  N   -0.107186
    23  H    0.118894
    24  H    0.119148
    25  N   -0.269613
    26  C    0.183960
    27  N   -0.113322
    28  H    0.119647
    29  C    0.165049
    30  O   -0.321182
    31  C    0.007575
    32  N   -0.211435
    33  C    0.107457
    34  H    0.019904
    35  H   -0.020310
    36  H    0.037250
    37  H    0.023473
    38  H   -0.001666
    39  H    0.051726
    40  H    0.080682
    41  H    0.022967
    42  C   -0.101434
    43  O   -0.270667
    44  C    0.167077
    45  H    0.128110
    46  N   -0.104996
    47  O   -0.344426
    48  C    0.318003
    49  H    0.043875
    50  C    0.165370
    51  C    0.071661
    52  N   -0.269631
    53  H    0.032664
    54  H    0.043587
    55  H    0.031233
    56  H    0.124521
    57  H    0.119779
    58  N   -0.054509
    59  C    0.103510
    60  C    0.206937
    61  N   -0.267159
    62  H    0.015512
    63  C    0.171303
    64  N   -0.300484
    65  H    0.037506
    66  C    0.128239
    67  N   -0.251444
    68  C    0.049440
    69  C    0.194344
    70  N   -0.312738
 Sum of Mulliken charges =  -0.00000

 Dipole moment (field-independent basis, Debye):
    X=             -4.8168    Y=              6.3221    Z=             -4.7942  Tot=              9.2820
 Quadrupole moment (field-independent basis, Debye-Ang):
   XX=           -146.6761   YY=           -225.6773   ZZ=           -264.2425
   XY=            -10.9082   XZ=             -1.4498   YZ=              7.5487

 Normal termination of Gaussian 16 at Wed Jan 17 22:15:08 2018.
