 Gaussian 16, Revision A.03,
 Gaussian 16:  EM64L-G16RevA.03 25-Dec-2016

 ---------------------------------------
 #p wb97xd/cc-pvdz sp scf=(maxcycles=20)
 ---------------------------------------

 ------------------
 Base pair stacking
 ------------------
 Symbolic Z-matrix:
 Charge =  0 Multiplicity = 1

                         Standard orientation:
 ---------------------------------------------------------------------
 Center     Atomic      Atomic             Coordinates (Angstroms)
 Number     Number       Type             X           Y           Z
 ---------------------------------------------------------------------
      1          7           0        4.822038   -1.154387   -1.571403
      2          6           0        6.094350   -0.526561   -1.977687
      3          6           0        2.687905   -1.555096   -1.221753
      4          7           0        3.376209   -2.647106   -0.713316
      5          6           0        4.634387   -2.361982   -0.944325
      6          1           0        5.474738   -3.002803   -0.675788
      7          7           0        0.965424   -0.074486   -1.857184
      8          6           0        1.929154    0.723252   -2.328810
      9          1           0        1.584297    1.653418   -2.778384
     10          7           0        3.248710    0.545314   -2.328468
     11          6           0        3.565725   -0.626793   -1.753923
     12          6           0        1.316841   -1.246715   -1.284929
     13          7           0        0.356265   -2.044383   -0.813553
     14          1           0        0.570393   -2.921420   -0.382069
     15          1           0       -0.609611   -1.792647   -0.875599
     16          1           0        6.570463   -1.122990   -2.624038
     17          1           0        5.908423    0.353890   -2.412832
     18          1           0        6.669936   -0.383587   -1.172546
     19          7           0        5.388769    0.843616    0.904928
     20          6           0        4.054107    1.162036    0.831975
     21          6           0        6.490930    1.651107    0.344646
     22          7           0        1.525863    3.307724   -0.200406
     23          1           0        0.528923    3.354123   -0.143918
     24          1           0        1.988883    4.057544   -0.673796
     25          7           0        3.529506    2.257275    0.240952
     26          6           0        2.211916    2.286301    0.334324
     27          7           0        1.463437    1.317840    0.958347
     28          1           0        0.460705    1.422437    0.981576
     29          6           0        1.981990    0.182497    1.573125
     30          8           0        1.218730   -0.630873    2.108472
     31          6           0        3.396337    0.137379    1.480983
     32          7           0        4.299863   -0.805361    1.951908
     33          6           0        5.466187   -0.345621    1.587851
     34          1           0        6.418454   -0.836099    1.792531
     35          1           0        6.992897    1.110646   -0.329702
     36          1           0        6.114437    2.465099   -0.095736
     37          1           0        7.110681    1.926997    1.078533
     38          1           0       -4.502018    2.199794    0.194250
     39          1           0       -4.450461    2.837663    1.835927
     40          1           0       -3.041253    2.991660    0.786269
     41          1           0       -4.451316   -1.890113    2.727374
     42          6           0       -3.760329   -1.111829    2.403267
     43          8           0       -1.816208   -2.398292    2.842079
     44          6           0       -2.351927   -1.359885    2.455422
     45          1           0       -0.566479   -0.447735    2.044943
     46          7           0       -1.567114   -0.310026    2.022853
     47          8           0       -1.223312    1.778685    1.200485
     48          6           0       -1.996647    0.909462    1.562509
     49          1           0       -5.270855    0.306119    1.899749
     50          6           0       -4.209727    0.067712    1.959060
     51          6           0       -3.873868    2.359909    1.057886
     52          7           0       -3.367840    1.072607    1.542182
     53          1           0       -6.501526    2.382208   -2.801449
     54          1           0       -5.151985    2.851212   -2.013477
     55          1           0       -6.583059    2.813109   -1.229479
     56          1           0       -2.928228   -3.552003   -0.140200
     57          1           0       -4.628624   -3.470430   -0.250207
     58          7           0       -3.745128   -3.007821   -0.331752
     59          6           0       -3.661163   -1.722333   -0.680505
     60          6           0       -4.531635    0.401223   -1.308605
     61          7           0       -3.331680    0.996377   -1.410251
     62          1           0       -1.347253    0.537535   -1.182005
     63          6           0       -2.357618    0.135051   -1.123506
     64          7           0       -2.439679   -1.152843   -0.773992
     65          1           0       -7.752862    0.142661   -1.403530
     66          6           0       -6.681373   -0.031213   -1.300575
     67          7           0       -6.141582   -1.175458   -0.958486
     68          6           0       -4.778892   -0.915104   -0.959796
     69          6           0       -6.020845    2.365074   -1.924717
     70          7           0       -5.765376    0.966877   -1.527526
 ---------------------------------------------------------------------

 SCF Done:  E(RwB97XD) =  -2048.73878073     A.U. after   15 cycles

 The electronic state is 1-A.
 Alpha  occ. eigenvalues --  -19.25187 -19.21385 -19.20704 -14.52754 -14.51654
 Alpha  occ. eigenvalues --  -14.49276 -14.49156 -14.48167 -14.47071 -14.46756
 Alpha  occ. eigenvalues --  -14.46673 -14.45475 -14.44493 -14.44458 -14.42883
 Alpha  occ. eigenvalues --  -14.41864 -14.41459 -14.41428 -14.41369 -14.40944
 Alpha  occ. eigenvalues --  -10.44745 -10.41133 -10.40072 -10.39453 -10.38321
 Alpha  occ. eigenvalues --  -10.38059 -10.37326 -10.37016 -10.36034 -10.35995
 Alpha  occ. eigenvalues --  -10.34560 -10.34341 -10.34316 -10.34096 -10.33806
 Alpha  occ. eigenvalues --  -10.33784 -10.33608 -10.32780 -10.31639 -10.31503
 Alpha  occ. eigenvalues --  -10.30207 -10.28926 -10.28368  -1.18781  -1.15440
 Alpha  occ. eigenvalues --   -1.13318  -1.12383  -1.11715  -1.10924  -1.09501
 Alpha  occ. eigenvalues --   -1.08645  -1.08497  -1.05644  -1.04963  -1.01771
 Alpha  occ. eigenvalues --   -1.01149  -1.00996  -0.99728  -0.98642  -0.97440
 Alpha  occ. eigenvalues --   -0.97062  -0.96881  -0.93313  -0.90252  -0.87831
 Alpha  occ. eigenvalues --   -0.86207  -0.84875  -0.84129  -0.83341  -0.82794
 Alpha  occ. eigenvalues --   -0.82572  -0.78139  -0.77191  -0.75080  -0.74875
 Alpha  occ. eigenvalues --   -0.73682  -0.73376  -0.72628  -0.71562  -0.70543
 Alpha  occ. eigenvalues --   -0.67516  -0.66957  -0.66824  -0.65842  -0.64565
 Alpha  occ. eigenvalues --   -0.64390  -0.63368  -0.63259  -0.62656  -0.61857
 Alpha  occ. eigenvalues --   -0.61289  -0.60968  -0.60600  -0.59763  -0.59349
 Alpha  occ. eigenvalues --   -0.58881  -0.58780  -0.58360  -0.57131  -0.56074
 Alpha  occ. eigenvalues --   -0.55672  -0.55560  -0.54932  -0.54689  -0.54294
 Alpha  occ. eigenvalues --   -0.54070  -0.53835  -0.53332  -0.53069  -0.53035
 Alpha  occ. eigenvalues --   -0.52815  -0.52292  -0.51526  -0.50945  -0.50520
 Alpha  occ. eigenvalues --   -0.50292  -0.50123  -0.49412  -0.49219  -0.49029
 Alpha  occ. eigenvalues --   -0.48758  -0.48627  -0.48161  -0.47727  -0.47475
 Alpha  occ. eigenvalues --   -0.47141  -0.46176  -0.44893  -0.44746  -0.43010
 Alpha  occ. eigenvalues --   -0.41358  -0.40804  -0.38899  -0.37925  -0.37852
 Alpha  occ. eigenvalues --   -0.37651  -0.37342  -0.37041  -0.35787  -0.34752
 Alpha  occ. eigenvalues --   -0.34546  -0.34220  -0.33979  -0.33813  -0.32995
 Alpha  occ. eigenvalues --   -0.32712  -0.32475  -0.31956  -0.31509  -0.31047
 Alpha  occ. eigenvalues --   -0.30710  -0.29848  -0.27234  -0.24660
 Alpha virt. eigenvalues --    0.03607   0.04070   0.06406   0.06953   0.08215
 Alpha virt. eigenvalues --    0.09407   0.09804   0.10345   0.11221   0.12415
 Alpha virt. eigenvalues --    0.12755   0.13477   0.14091   0.14828   0.14962

 Mulliken charges:
               1
     1  N   -0.297176
     2  C    0.187917
     3  C    0.058717
     4  N   -0.241972
     5  C    0.139673
     6  H    0.025293
     7  N   -0.282717
     8  C    0.122830
     9  H    0.003130
    10  N   -0.268161
    11  C    0.223917
    12  C    0.068782
    13  N   -0.046602
    14  H    0.114141
    15  H    0.085460
    16  H    0.027582
    17  H    0.034976
    18  H    0.009709
    19  N   -0.297757
    20  C    0.238214
    21  C    0.185088
    22  N   -0.111621
    23  H    0.119157
    24  H    0.119660
    25  N   -0.283018
    26  C    0.209073
    27  N   -0.121554
    28  H    0.120760
    29  C    0.174492
    30  O   -0.319378
    31  C   -0.002783
    32  N   -0.209839
    33  C    0.102211
    34  H    0.021022
    35  H   -0.003817
    36  H    0.036787
    37  H    0.027729
    38  H    0.025614
    39  H    0.050422
    40  H    0.075777
    41  H    0.020470
    42  C   -0.105950
    43  O   -0.273765
    44  C    0.173303
    45  H    0.128363
    46  N   -0.109580
    47  O   -0.345780
    48  C    0.315625
    49  H    0.044444
    50  C    0.163900
    51  C    0.064896
    52  N   -0.268332
    53  H    0.037428
    54  H    0.045178
    55  H    0.030205
    56  H    0.125813
    57  H    0.119388
    58  N   -0.054345
    59  C    0.102108
    60  C    0.214906
    61  N   -0.269445
    62  H    0.026393
    63  C    0.169453
    64  N   -0.306021
    65  H    0.038638
    66  C    0.133742
    67  N   -0.254300
    68  C    0.043575
    69  C    0.179923
    70  N   -0.311976
 Sum of Mulliken charges =  -0.00000

 Dipole moment (field-independent basis, Debye):
    X=             -4.9791    Y=              6.6698    Z=             -4.2334  Tot=              9.3381
 Quadrupole moment (field-independent basis, Debye-Ang):
   XX=           -146.5461   YY=           -225.6325   ZZ=           -263.0559
   XY=             -9.4778   XZ=             -5.0663   YZ=              7.8508

 Normal termination of Gaussian 16 at Thu Jan 18 12:51:21 2018.
