 Gaussian 16, Revision A.03,
 Gaussian 16:  EM64L-G16RevA.03 25-Dec-2016

 ---------------------------------------
 #p wb97xd/cc-pvdz sp scf=(maxcycles=20)
 ---------------------------------------

 ------------------
 Base pair stacking
 ------------------
 Symbolic Z-matrix:
 Charge =  0 Multiplicity = 1

                         Standard orientation:
 ---------------------------------------------------------------------
 Center     Atomic      Atomic             Coordinates (Angstroms)
 Number     Number       Type             X           Y           Z
 ---------------------------------------------------------------------
      1          7           0       -5.722209   -1.590279    0.517313
      2          6           0       -6.997229   -1.272531    1.189148
      3          6           0       -3.583942   -1.820685    0.056842
      4          7           0       -4.272834   -2.312781   -1.042250
      5          6           0       -5.533491   -2.154271   -0.720846
      6          1           0       -6.374977   -2.433922   -1.355372
      7          7           0       -1.859206   -1.169965    1.528171
      8          6           0       -2.825181   -0.779858    2.366199
      9          1           0       -2.480262   -0.355661    3.308186
     10          7           0       -4.147048   -0.834827    2.216031
     11          6           0       -4.463921   -1.371821    1.026211
     12          6           0       -2.210559   -1.706288    0.339058
     13          7           0       -1.247743   -2.096296   -0.498831
     14          1           0       -1.461728   -2.498591   -1.389675
     15          1           0       -0.280252   -1.999719   -0.264797
     16          1           0       -7.531209   -2.109886    1.306988
     17          1           0       -6.811499   -0.868073    2.084158
     18          1           0       -7.516622   -0.623516    0.633267
     19          7           0       -4.489619    1.783645   -0.600526
     20          6           0       -3.151323    1.938808   -0.330428
     21          6           0       -5.592514    2.385039    0.175787
     22          7           0       -0.612975    3.283962    1.621256
     23          1           0        0.386281    3.269378    1.644277
     24          1           0       -1.075435    3.816428    2.330703
     25          7           0       -2.623256    2.660916    0.681377
     26          6           0       -1.302683    2.619637    0.681644
     27          7           0       -0.554592    1.924931   -0.237738
     28          1           0        0.450582    1.949745   -0.160514
     29          6           0       -1.076689    1.175208   -1.287111
     30          8           0       -0.313449    0.585510   -2.062009
     31          6           0       -2.494253    1.210003   -1.300429
     32          7           0       -3.401770    0.609388   -2.162150
     33          6           0       -4.569709    0.976754   -1.709198
     34          1           0       -5.525113    0.686609   -2.147708
     35          1           0       -6.175585    1.662039    0.544711
     36          1           0       -5.213468    2.922340    0.928044
     37          1           0       -6.134205    2.979723   -0.417290
     38          1           0        5.363237    1.949086    1.150432
     39          1           0        5.481003    3.191793   -0.093129
     40          1           0        3.998738    3.025340    0.848446
     41          1           0        5.317697   -0.769363   -2.818763
     42          6           0        4.642229   -0.133053   -2.246853
     43          8           0        2.679070   -0.977388   -3.276524
     44          6           0        3.232370   -0.226382   -2.473627
     45          1           0        1.467209    0.584962   -1.830008
     46          7           0        2.468189    0.622072   -1.698134
     47          8           0        2.162803    2.228222   -0.121997
     48          6           0        2.918804    1.517442   -0.760691
     49          1           0        6.175106    0.840089   -1.129219
     50          6           0        5.111947    0.730723   -1.339187
     51          6           0        4.818170    2.490562    0.391629
     52          7           0        4.290001    1.548924   -0.599381
     53          1           0        5.607086   -0.313966    4.018944
     54          1           0        4.324744    0.627823    3.657375
     55          1           0        5.800145    0.995184    3.063812
     56          1           0        2.023797   -3.061943   -1.869536
     57          1           0        3.715709   -3.174530   -1.682786
     58          7           0        2.843696   -2.808293   -1.356145
     59          6           0        2.778236   -2.016926   -0.283478
     60          6           0        3.673559   -0.805949    1.558710
     61          7           0        2.488743   -0.328735    1.974556
     62          1           0        0.509119   -0.418927    1.451528
     63          6           0        1.508121   -0.760639    1.184141
     64          7           0        1.571650   -1.553296    0.109322
     65          1           0        6.872905   -1.270983    1.565904
     66          6           0        5.805043   -1.274662    1.345466
     67          7           0        5.252278   -1.920427    0.347910
     68          6           0        3.900943   -1.631700    0.471538
     69          6           0        5.181866    0.248643    3.309966
     70          7           0        4.908244   -0.579015    2.119121
 ---------------------------------------------------------------------

 SCF Done:  E(RwB97XD) =  -2048.74512004     A.U. after   15 cycles

 The electronic state is 1-A.
 Alpha  occ. eigenvalues --  -19.25544 -19.21639 -19.20680 -14.52327 -14.51995
 Alpha  occ. eigenvalues --  -14.49286 -14.48891 -14.47570 -14.46931 -14.46673
 Alpha  occ. eigenvalues --  -14.46530 -14.44782 -14.43608 -14.43377 -14.42515
 Alpha  occ. eigenvalues --  -14.42012 -14.41704 -14.41314 -14.40869 -14.40643
 Alpha  occ. eigenvalues --  -10.45203 -10.41237 -10.39815 -10.38846 -10.38306
 Alpha  occ. eigenvalues --  -10.37435 -10.37310 -10.36606 -10.35823 -10.35389
 Alpha  occ. eigenvalues --  -10.35147 -10.34425 -10.34397 -10.33827 -10.33817
 Alpha  occ. eigenvalues --  -10.33500 -10.33383 -10.31886 -10.31730 -10.31069
 Alpha  occ. eigenvalues --  -10.30536 -10.28913 -10.28155  -1.19176  -1.14664
 Alpha  occ. eigenvalues --   -1.13238  -1.12874  -1.11809  -1.10650  -1.09122
 Alpha  occ. eigenvalues --   -1.08592  -1.08319  -1.05428  -1.03823  -1.02306
 Alpha  occ. eigenvalues --   -1.00794  -1.00333  -0.99752  -0.98551  -0.97400
 Alpha  occ. eigenvalues --   -0.96639  -0.95954  -0.93065  -0.90667  -0.87064
 Alpha  occ. eigenvalues --   -0.85505  -0.84461  -0.84152  -0.83629  -0.82881
 Alpha  occ. eigenvalues --   -0.82574  -0.78596  -0.76273  -0.74676  -0.74087
 Alpha  occ. eigenvalues --   -0.73636  -0.73324  -0.73115  -0.71455  -0.69612
 Alpha  occ. eigenvalues --   -0.67407  -0.66720  -0.66288  -0.65965  -0.64390
 Alpha  occ. eigenvalues --   -0.63745  -0.63436  -0.63066  -0.62635  -0.61773
 Alpha  occ. eigenvalues --   -0.61102  -0.60652  -0.59752  -0.59241  -0.58771
 Alpha  occ. eigenvalues --   -0.58392  -0.58314  -0.57716  -0.56958  -0.56190
 Alpha  occ. eigenvalues --   -0.55798  -0.55758  -0.55148  -0.54786  -0.54219
 Alpha  occ. eigenvalues --   -0.53720  -0.53625  -0.53086  -0.52981  -0.52430
 Alpha  occ. eigenvalues --   -0.52290  -0.52191  -0.52083  -0.51270  -0.50680
 Alpha  occ. eigenvalues --   -0.50228  -0.49741  -0.49593  -0.49252  -0.49077
 Alpha  occ. eigenvalues --   -0.48818  -0.48368  -0.47842  -0.47595  -0.47383
 Alpha  occ. eigenvalues --   -0.47353  -0.46101  -0.45176  -0.43476  -0.43026
 Alpha  occ. eigenvalues --   -0.41492  -0.40060  -0.39210  -0.37587  -0.37516
 Alpha  occ. eigenvalues --   -0.37232  -0.37126  -0.36800  -0.35926  -0.34458
 Alpha  occ. eigenvalues --   -0.34105  -0.33853  -0.33561  -0.33505  -0.33064
 Alpha  occ. eigenvalues --   -0.32665  -0.32354  -0.31909  -0.31330  -0.31285
 Alpha  occ. eigenvalues --   -0.30776  -0.28712  -0.26445  -0.25210
 Alpha virt. eigenvalues --    0.03218   0.04567   0.07384   0.07816   0.08698
 Alpha virt. eigenvalues --    0.09199   0.09712   0.10576   0.10880   0.11931
 Alpha virt. eigenvalues --    0.13117   0.13783   0.14044   0.14476   0.14876

 Mulliken charges:
               1
     1  N   -0.307507
     2  C    0.177872
     3  C    0.047855
     4  N   -0.237096
     5  C    0.116407
     6  H    0.024979
     7  N   -0.290997
     8  C    0.138492
     9  H    0.012172
    10  N   -0.288296
    11  C    0.234458
    12  C    0.087867
    13  N   -0.040755
    14  H    0.113709
    15  H    0.089717
    16  H    0.029324
    17  H    0.035403
    18  H    0.022367
    19  N   -0.301712
    20  C    0.256080
    21  C    0.186002
    22  N   -0.123512
    23  H    0.117600
    24  H    0.118679
    25  N   -0.308932
    26  C    0.245593
    27  N   -0.145443
    28  H    0.118477
    29  C    0.188602
    30  O   -0.327184
    31  C   -0.023693
    32  N   -0.214161
    33  C    0.126346
    34  H    0.018818
    35  H    0.013614
    36  H    0.032739
    37  H    0.023869
    38  H    0.035477
    39  H    0.061619
    40  H    0.078378
    41  H    0.022067
    42  C   -0.076515
    43  O   -0.278965
    44  C    0.147665
    45  H    0.132863
    46  N   -0.108768
    47  O   -0.346984
    48  C    0.340036
    49  H    0.040986
    50  C    0.171545
    51  C    0.047947
    52  N   -0.277109
    53  H    0.034272
    54  H    0.041892
    55  H    0.021225
    56  H    0.124700
    57  H    0.115063
    58  N   -0.023078
    59  C    0.067501
    60  C    0.231476
    61  N   -0.267145
    62  H    0.027970
    63  C    0.157192
    64  N   -0.294824
    65  H    0.032834
    66  C    0.113947
    67  N   -0.247036
    68  C    0.032153
    69  C    0.178643
    70  N   -0.304780
 Sum of Mulliken charges =  -0.00000

 Dipole moment (field-independent basis, Debye):
    X=              4.7587    Y=              4.3500    Z=              6.0962  Tot=              8.8731
 Quadrupole moment (field-independent basis, Debye-Ang):
   XX=           -145.4204   YY=           -228.9624   ZZ=           -255.5491
   XY=              7.8519   XZ=             12.2969   YZ=             11.9800

 Normal termination of Gaussian 16 at Wed Jan 17 20:58:16 2018.
