 Gaussian 16, Revision A.03,
 Gaussian 16:  EM64L-G16RevA.03 25-Dec-2016

 ---------------------------------------
 #p wb97xd/cc-pvdz sp scf=(maxcycles=20)
 ---------------------------------------

 ------------------
 Base pair stacking
 ------------------
 Symbolic Z-matrix:
 Charge =  0 Multiplicity = 1

                         Standard orientation:
 ---------------------------------------------------------------------
 Center     Atomic      Atomic             Coordinates (Angstroms)
 Number     Number       Type             X           Y           Z
 ---------------------------------------------------------------------
      1          7           0        4.492789   -2.169447   -0.680684
      2          6           0        5.744057   -2.086849   -1.458835
      3          6           0        2.379974   -2.091975   -0.074625
      4          7           0        3.087593   -2.521360    1.038759
      5          6           0        4.332167   -2.550848    0.629067
      6          1           0        5.181248   -2.845806    1.246321
      7          7           0        0.635988   -1.432053   -1.518911
      8          6           0        1.576865   -1.262803   -2.453628
      9          1           0        1.214102   -0.920816   -3.421985
     10          7           0        2.892374   -1.451667   -2.372126
     11          6           0        3.232644   -1.871019   -1.142164
     12          6           0        1.010452   -1.854829   -0.291672
     13          7           0        0.072708   -2.024380    0.642704
     14          1           0        0.304369   -2.335887    1.564936
     15          1           0       -0.892818   -1.845906    0.452845
     16          1           0        6.175005   -2.988537   -1.496333
     17          1           0        5.540353   -1.776977   -2.387068
     18          1           0        6.368276   -1.438874   -1.022398
     19          7           0        5.686305    1.183482    0.165123
     20          6           0        4.356837    1.458220   -0.047218
     21          6           0        6.790091    1.552718   -0.743729
     22          7           0        1.846995    2.837660   -2.011795
     23          1           0        0.852870    2.936266   -1.976493
     24          1           0        2.312966    3.221426   -2.809479
     25          7           0        3.839652    2.106434   -1.113231
     26          6           0        2.525613    2.218766   -1.033865
     27          7           0        1.773707    1.734073    0.008838
     28          1           0        0.774135    1.865516   -0.014331
     29          6           0        2.284636    1.063972    1.115983
     30          8           0        1.518847    0.666724    2.002826
     31          6           0        3.695090    0.935616    1.044927
     32          7           0        4.591075    0.344672    1.925203
     33          6           0        5.756939    0.515557    1.363270
     34          1           0        6.704034    0.172913    1.781457
     35          1           0        7.264351    0.727099   -1.047433
     36          1           0        6.419068    2.033495   -1.537114
     37          1           0        7.433198    2.149131   -0.264658
     38          1           0       -4.190114    2.272668   -1.035696
     39          1           0       -4.085243    3.664375    0.039862
     40          1           0       -2.699672    3.212490   -0.953802
     41          1           0       -4.158062    0.077267    3.245164
     42          6           0       -3.459964    0.555643    2.558109
     43          8           0       -1.531561   -0.377156    3.577044
     44          6           0       -2.055919    0.328207    2.715487
     45          1           0       -0.263397    0.843958    1.873354
     46          7           0       -1.261338    0.980292    1.794257
     47          8           0       -0.896519    2.333673    0.007500
     48          6           0       -1.677795    1.799472    0.774907
     49          1           0       -4.953993    1.554677    1.411096
     50          6           0       -3.896672    1.349546    1.573422
     51          6           0       -3.537708    2.836685   -0.385832
     52          7           0       -3.045551    1.969538    0.688221
     53          1           0       -6.851498   -0.030029   -3.676279
     54          1           0       -5.452822    0.794124   -3.513261
     55          1           0       -6.834473    1.400339   -2.890664
     56          1           0       -3.178991   -2.428016    2.309358
     57          1           0       -4.882112   -2.365915    2.234312
     58          7           0       -4.000932   -2.146280    1.814198
     59          6           0       -3.926352   -1.506081    0.645537
     60          6           0       -4.813599   -0.435819   -1.285544
     61          7           0       -3.616549   -0.154046   -1.825995
     62          1           0       -1.626244   -0.407915   -1.407809
     63          6           0       -2.634902   -0.595969   -1.042426
     64          7           0       -2.707555   -1.237386    0.128424
     65          1           0       -8.036934   -0.524244   -1.052140
     66          6           0       -6.962810   -0.624473   -0.893502
     67          7           0       -6.413908   -1.202062    0.147064
     68          6           0       -5.051437   -1.089346   -0.088931
     69          6           0       -6.319176    0.562574   -3.071745
     70          7           0       -6.053056   -0.138122   -1.800433
 ---------------------------------------------------------------------

 SCF Done:  E(RwB97XD) =  -2048.74971043     A.U. after   15 cycles

 The electronic state is 1-A.
 Alpha  occ. eigenvalues --  -19.25284 -19.21808 -19.20834 -14.52521 -14.51772
 Alpha  occ. eigenvalues --  -14.49511 -14.48777 -14.47937 -14.47280 -14.47049
 Alpha  occ. eigenvalues --  -14.46834 -14.45358 -14.44547 -14.44406 -14.42599
 Alpha  occ. eigenvalues --  -14.42250 -14.41570 -14.41266 -14.41011 -14.40731
 Alpha  occ. eigenvalues --  -10.44861 -10.41485 -10.39941 -10.39759 -10.38525
 Alpha  occ. eigenvalues --  -10.37952 -10.37326 -10.36868 -10.36058 -10.35760
 Alpha  occ. eigenvalues --  -10.34868 -10.34377 -10.33980 -10.33977 -10.33926
 Alpha  occ. eigenvalues --  -10.33537 -10.33426 -10.32716 -10.31765 -10.31242
 Alpha  occ. eigenvalues --  -10.30275 -10.28679 -10.28601  -1.18840  -1.15256
 Alpha  occ. eigenvalues --   -1.13511  -1.12734  -1.11350  -1.11126  -1.09442
 Alpha  occ. eigenvalues --   -1.08826  -1.08582  -1.05379  -1.04885  -1.01950
 Alpha  occ. eigenvalues --   -1.00957  -1.00714  -0.99946  -0.98896  -0.97209
 Alpha  occ. eigenvalues --   -0.97061  -0.96831  -0.93052  -0.90358  -0.87695
 Alpha  occ. eigenvalues --   -0.85946  -0.84723  -0.84035  -0.83199  -0.82878
 Alpha  occ. eigenvalues --   -0.82488  -0.78239  -0.77057  -0.75074  -0.74945
 Alpha  occ. eigenvalues --   -0.73887  -0.73066  -0.72779  -0.71273  -0.70407
 Alpha  occ. eigenvalues --   -0.67700  -0.66831  -0.66488  -0.65962  -0.64716
 Alpha  occ. eigenvalues --   -0.64210  -0.63510  -0.62920  -0.62846  -0.62070
 Alpha  occ. eigenvalues --   -0.60636  -0.60582  -0.60270  -0.59571  -0.58983
 Alpha  occ. eigenvalues --   -0.58859  -0.58540  -0.58157  -0.56753  -0.55866
 Alpha  occ. eigenvalues --   -0.55783  -0.55724  -0.55276  -0.54516  -0.54253
 Alpha  occ. eigenvalues --   -0.54138  -0.53686  -0.53515  -0.53237  -0.52913
 Alpha  occ. eigenvalues --   -0.52821  -0.51879  -0.51771  -0.50795  -0.50581
 Alpha  occ. eigenvalues --   -0.50467  -0.50081  -0.49646  -0.49273  -0.49089
 Alpha  occ. eigenvalues --   -0.48906  -0.48543  -0.48435  -0.47505  -0.47334
 Alpha  occ. eigenvalues --   -0.47145  -0.45957  -0.45181  -0.45050  -0.42829
 Alpha  occ. eigenvalues --   -0.41322  -0.40758  -0.39069  -0.37906  -0.37747
 Alpha  occ. eigenvalues --   -0.37561  -0.37497  -0.37188  -0.35666  -0.34768
 Alpha  occ. eigenvalues --   -0.34462  -0.34223  -0.33707  -0.33534  -0.33222
 Alpha  occ. eigenvalues --   -0.32937  -0.32751  -0.32095  -0.31238  -0.31107
 Alpha  occ. eigenvalues --   -0.30669  -0.29993  -0.26673  -0.25242
 Alpha virt. eigenvalues --    0.03412   0.04298   0.06699   0.07727   0.08551
 Alpha virt. eigenvalues --    0.09086   0.09557   0.10377   0.10718   0.12234
 Alpha virt. eigenvalues --    0.13217   0.13442   0.14154   0.14574   0.14666

 Mulliken charges:
               1
     1  N   -0.303412
     2  C    0.190162
     3  C    0.037603
     4  N   -0.238136
     5  C    0.146725
     6  H    0.025089
     7  N   -0.293937
     8  C    0.127592
     9  H    0.008911
    10  N   -0.282552
    11  C    0.240196
    12  C    0.080531
    13  N   -0.052175
    14  H    0.118824
    15  H    0.088966
    16  H    0.026647
    17  H    0.034826
    18  H    0.003246
    19  N   -0.304487
    20  C    0.253468
    21  C    0.182904
    22  N   -0.122148
    23  H    0.118819
    24  H    0.119808
    25  N   -0.308258
    26  C    0.249388
    27  N   -0.142126
    28  H    0.120381
    29  C    0.186954
    30  O   -0.318906
    31  C   -0.012815
    32  N   -0.211388
    33  C    0.102341
    34  H    0.022323
    35  H    0.013230
    36  H    0.034440
    37  H    0.028144
    38  H    0.052367
    39  H    0.053751
    40  H    0.074054
    41  H    0.013680
    42  C   -0.095279
    43  O   -0.280466
    44  C    0.177365
    45  H    0.129932
    46  N   -0.118424
    47  O   -0.350886
    48  C    0.334917
    49  H    0.045701
    50  C    0.157596
    51  C    0.047133
    52  N   -0.271844
    53  H    0.036423
    54  H    0.041941
    55  H    0.028768
    56  H    0.126205
    57  H    0.118494
    58  N   -0.051388
    59  C    0.081318
    60  C    0.228440
    61  N   -0.268663
    62  H    0.034375
    63  C    0.162309
    64  N   -0.303972
    65  H    0.038920
    66  C    0.137385
    67  N   -0.258007
    68  C    0.041025
    69  C    0.177892
    70  N   -0.312238
 Sum of Mulliken charges =  -0.00000

 Dipole moment (field-independent basis, Debye):
    X=             -4.9673    Y=              4.2140    Z=             -6.7139  Tot=              9.3546
 Quadrupole moment (field-independent basis, Debye-Ang):
   XX=           -145.8683   YY=           -231.0133   ZZ=           -254.4346
   XY=            -11.4339   XZ=             -1.5378   YZ=            -13.7692

 Normal termination of Gaussian 16 at Thu Jan 18 00:18:15 2018.
