 Gaussian 16, Revision A.03,
 Gaussian 16:  EM64L-G16RevA.03 25-Dec-2016

 ---------------------------------------
 #p wb97xd/cc-pvdz sp scf=(maxcycles=20)
 ---------------------------------------

 ------------------
 Base pair stacking
 ------------------
 Symbolic Z-matrix:
 Charge =  0 Multiplicity = 1

                         Standard orientation:
 ---------------------------------------------------------------------
 Center     Atomic      Atomic             Coordinates (Angstroms)
 Number     Number       Type             X           Y           Z
 ---------------------------------------------------------------------
      1          7           0        4.831384   -0.853372   -1.672805
      2          6           0        6.106353   -0.154399   -1.925578
      3          6           0        2.694698   -1.318485   -1.437015
      4          7           0        3.380241   -2.492553   -1.160764
      5          6           0        4.640064   -2.165350   -1.313879
      6          1           0        5.479073   -2.848062   -1.176343
      7          7           0        0.975451    0.262074   -1.767125
      8          6           0        1.942130    1.140821   -2.051528
      9          1           0        1.599778    2.144364   -2.300442
     10          7           0        3.262026    0.966859   -2.074524
     11          6           0        3.575805   -0.299388   -1.754253
     12          6           0        1.323650   -1.003822   -1.448752
     13          7           0        0.360119   -1.882453   -1.164543
     14          1           0        0.571808   -2.830274   -0.923601
     15          1           0       -0.605647   -1.623396   -1.182765
     16          1           0        6.590431   -0.602569   -2.677244
     17          1           0        5.922883    0.797526   -2.169094
     18          1           0        6.673334   -0.182754   -1.102337
     19          7           0        5.382106    0.664792    0.990336
     20          6           0        4.046726    0.986825    0.957307
     21          6           0        6.482325    1.537805    0.534184
     22          7           0        1.513472    3.238049    0.198095
     23          1           0        0.516452    3.274901    0.259875
     24          1           0        1.974708    4.041664   -0.178974
     25          7           0        3.519549    2.145553    0.506202
     26          6           0        2.201920    2.159883    0.602455
     27          7           0        1.455760    1.120050    1.101947
     28          1           0        0.452799    1.218741    1.137941
     29          6           0        1.976975   -0.081432    1.571663
     30          8           0        1.215660   -0.956442    2.002347
     31          6           0        3.391391   -0.111671    1.474654
     32          7           0        4.297131   -1.103372    1.825430
     33          6           0        5.462338   -0.599572    1.520997
     34          1           0        6.415740   -1.109471    1.663475
     35          1           0        6.985303    1.085982   -0.201799
     36          1           0        6.103922    2.399155    0.197808
     37          1           0        7.101675    1.722226    1.296555
     38          1           0       -4.511840    2.076431    0.452730
     39          1           0       -4.461253    2.506571    2.160665
     40          1           0       -3.052672    2.792274    1.138104
     41          1           0       -4.451426   -2.295133    2.460802
     42          6           0       -3.762247   -1.481215    2.235412
     43          8           0       -1.815177   -2.807738    2.511826
     44          6           0       -2.353284   -1.730688    2.256508
     45          1           0       -0.569970   -0.770823    1.961940
     46          7           0       -1.570910   -0.633661    1.957045
     47          8           0       -1.231941    1.541453    1.399198
     48          6           0       -2.003257    0.632415    1.650988
     49          1           0       -5.276029   -0.015263    1.911042
     50          6           0       -4.214362   -0.256814    1.940430
     51          6           0       -3.883812    2.129944    1.329536
     52          7           0       -3.374819    0.793781    1.650970
     53          1           0       -6.487010    2.861178   -2.255615
     54          1           0       -5.146699    3.155309   -1.372922
     55          1           0       -6.585637    2.954123   -0.629247
     56          1           0       -2.927659   -3.497787   -0.855559
     57          1           0       -4.627021   -3.395180   -0.963935
     58          7           0       -3.743792   -2.925672   -0.937751
     59          6           0       -3.659191   -1.595670   -1.009325
     60          6           0       -4.528020    0.612172   -1.189003
     61          7           0       -3.328446    1.215540   -1.151459
     62          1           0       -1.345412    0.719309   -1.003294
     63          6           0       -2.355411    0.313395   -1.040788
     64          7           0       -2.438105   -1.019111   -0.968953
     65          1           0       -7.747503    0.378869   -1.369660
     66          6           0       -6.676727    0.187409   -1.294060
     67          7           0       -6.137870   -1.003005   -1.192939
     68          6           0       -4.775822   -0.748004   -1.125520
     69          6           0       -6.015307    2.661280   -1.396813
     70          7           0       -5.760738    1.210969   -1.297847
 ---------------------------------------------------------------------

 SCF Done:  E(RwB97XD) =  -2048.71940066     A.U. after   15 cycles

 The electronic state is 1-A.
 Alpha  occ. eigenvalues --  -19.25121 -19.21278 -19.20699 -14.52874 -14.51562
 Alpha  occ. eigenvalues --  -14.49270 -14.49216 -14.48269 -14.47034 -14.46679
 Alpha  occ. eigenvalues --  -14.46674 -14.45555 -14.44553 -14.44422 -14.42960
 Alpha  occ. eigenvalues --  -14.41731 -14.41545 -14.41404 -14.41393 -14.40959
 Alpha  occ. eigenvalues --  -10.44687 -10.41027 -10.40161 -10.39366 -10.38295
 Alpha  occ. eigenvalues --  -10.38139 -10.37387 -10.36988 -10.36052 -10.36024
 Alpha  occ. eigenvalues --  -10.34510 -10.34453 -10.34419 -10.33842 -10.33803
 Alpha  occ. eigenvalues --  -10.33774 -10.33560 -10.32867 -10.31636 -10.31369
 Alpha  occ. eigenvalues --  -10.30159 -10.28955 -10.28363  -1.18757  -1.15568
 Alpha  occ. eigenvalues --   -1.13331  -1.12293  -1.11786  -1.10923  -1.09588
 Alpha  occ. eigenvalues --   -1.08637  -1.08455  -1.05693  -1.05069  -1.01713
 Alpha  occ. eigenvalues --   -1.01272  -1.01074  -0.99731  -0.98627  -0.97556
 Alpha  occ. eigenvalues --   -0.97163  -0.96865  -0.93364  -0.90185  -0.87935
 Alpha  occ. eigenvalues --   -0.86348  -0.85146  -0.84047  -0.83536  -0.82702
 Alpha  occ. eigenvalues --   -0.82465  -0.78085  -0.77294  -0.75207  -0.74882
 Alpha  occ. eigenvalues --   -0.73706  -0.73416  -0.72575  -0.71625  -0.70654
 Alpha  occ. eigenvalues --   -0.67560  -0.67089  -0.66887  -0.65789  -0.64611
 Alpha  occ. eigenvalues --   -0.64507  -0.63370  -0.63303  -0.62641  -0.61857
 Alpha  occ. eigenvalues --   -0.61572  -0.61158  -0.60727  -0.59990  -0.59741
 Alpha  occ. eigenvalues --   -0.58852  -0.58827  -0.58357  -0.57257  -0.56187
 Alpha  occ. eigenvalues --   -0.55809  -0.55584  -0.55215  -0.54362  -0.54225
 Alpha  occ. eigenvalues --   -0.54122  -0.53846  -0.53272  -0.53158  -0.53009
 Alpha  occ. eigenvalues --   -0.52703  -0.52356  -0.51375  -0.51092  -0.50426
 Alpha  occ. eigenvalues --   -0.50376  -0.49920  -0.49488  -0.49199  -0.49043
 Alpha  occ. eigenvalues --   -0.48711  -0.48650  -0.48083  -0.47688  -0.47558
 Alpha  occ. eigenvalues --   -0.47081  -0.46257  -0.44764  -0.44549  -0.42938
 Alpha  occ. eigenvalues --   -0.41249  -0.40815  -0.38860  -0.38141  -0.37914
 Alpha  occ. eigenvalues --   -0.37716  -0.37313  -0.36872  -0.35751  -0.34828
 Alpha  occ. eigenvalues --   -0.34607  -0.34306  -0.34058  -0.33831  -0.32971
 Alpha  occ. eigenvalues --   -0.32731  -0.32409  -0.31951  -0.31541  -0.31054
 Alpha  occ. eigenvalues --   -0.30460  -0.29825  -0.27432  -0.24447
 Alpha virt. eigenvalues --    0.03543   0.04071   0.06334   0.06703   0.07967
 Alpha virt. eigenvalues --    0.09429   0.09832   0.10312   0.11490   0.12500
 Alpha virt. eigenvalues --    0.12515   0.13439   0.14097   0.14713   0.15153

 Mulliken charges:
               1
     1  N   -0.295603
     2  C    0.191374
     3  C    0.064569
     4  N   -0.243991
     5  C    0.139052
     6  H    0.025398
     7  N   -0.279333
     8  C    0.125348
     9  H   -0.001467
    10  N   -0.262151
    11  C    0.216109
    12  C    0.065323
    13  N   -0.047235
    14  H    0.112981
    15  H    0.084974
    16  H    0.026570
    17  H    0.033739
    18  H    0.010663
    19  N   -0.296237
    20  C    0.228274
    21  C    0.183007
    22  N   -0.103067
    23  H    0.119801
    24  H    0.120290
    25  N   -0.266461
    26  C    0.180913
    27  N   -0.110264
    28  H    0.120238
    29  C    0.170615
    30  O   -0.318837
    31  C    0.003170
    32  N   -0.209381
    33  C    0.101448
    34  H    0.021421
    35  H   -0.004429
    36  H    0.037331
    37  H    0.025859
    38  H    0.015040
    39  H    0.046757
    40  H    0.075313
    41  H    0.021684
    42  C   -0.105689
    43  O   -0.272494
    44  C    0.173975
    45  H    0.128503
    46  N   -0.108898
    47  O   -0.344106
    48  C    0.309204
    49  H    0.044283
    50  C    0.162482
    51  C    0.076329
    52  N   -0.268022
    53  H    0.036341
    54  H    0.047145
    55  H    0.030228
    56  H    0.125014
    57  H    0.120103
    58  N   -0.057930
    59  C    0.110760
    60  C    0.217122
    61  N   -0.275439
    62  H    0.024817
    63  C    0.173126
    64  N   -0.307283
    65  H    0.038993
    66  C    0.134178
    67  N   -0.253927
    68  C    0.041984
    69  C    0.184341
    70  N   -0.313941
 Sum of Mulliken charges =  -0.00000

 Dipole moment (field-independent basis, Debye):
    X=             -4.9891    Y=              7.1573    Z=             -3.5743  Tot=              9.4284
 Quadrupole moment (field-independent basis, Debye-Ang):
   XX=           -146.5202   YY=           -229.2303   ZZ=           -260.8153
   XY=             -8.4041   XZ=             -6.5671   YZ=             13.5633

 Normal termination of Gaussian 16 at Wed Jan 17 23:04:51 2018.
