 Gaussian 16, Revision A.03,
 Gaussian 16:  EM64L-G16RevA.03 25-Dec-2016

 ---------------------------------------
 #p wb97xd/cc-pvdz sp scf=(maxcycles=20)
 ---------------------------------------

 ------------------
 Base pair stacking
 ------------------
 Symbolic Z-matrix:
 Charge =  0 Multiplicity = 1

                         Standard orientation:
 ---------------------------------------------------------------------
 Center     Atomic      Atomic             Coordinates (Angstroms)
 Number     Number       Type             X           Y           Z
 ---------------------------------------------------------------------
      1          7           0       -6.310591   -1.266054    0.350178
      2          6           0       -7.585861   -0.888420    0.989772
      3          6           0       -4.175044   -1.603862   -0.053089
      4          7           0       -4.857168   -2.048285   -1.176446
      5          6           0       -6.116456   -1.826984   -0.888530
      6          1           0       -6.953024   -2.055833   -1.549376
      7          7           0       -2.461204   -1.059060    1.472984
      8          6           0       -3.428922   -0.627032    2.288117
      9          1           0       -3.089236   -0.230792    3.244085
     10          7           0       -4.747056   -0.611055    2.100558
     11          6           0       -5.057591   -1.118957    0.896390
     12          6           0       -2.806135   -1.564501    0.268561
     13          7           0       -1.841568   -1.996272   -0.546531
     14          1           0       -2.050848   -2.378004   -1.447467
     15          1           0       -0.877395   -1.952917   -0.284537
     16          1           0       -8.165950   -1.697706    1.083223
     17          1           0       -7.404782   -0.503071    1.894121
     18          1           0       -8.054661   -0.207609    0.426997
     19          7           0       -3.849786    2.057768   -0.759730
     20          6           0       -2.511670    2.150089   -0.461439
     21          6           0       -4.931471    2.783943   -0.064516
     22          7           0        0.056690    3.481217    1.460367
     23          1           0        1.052043    3.406666    1.514793
     24          1           0       -0.388789    4.094067    2.113578
     25          7           0       -1.964596    2.913542    0.509074
     26          6           0       -0.649813    2.790794    0.552580
     27          7           0        0.075620    1.982748   -0.289042
     28          1           0        1.078011    1.951184   -0.183357
     29          6           0       -0.466309    1.188564   -1.294750
     30          8           0        0.277248    0.495146   -1.999758
     31          6           0       -1.877933    1.309851   -1.353736
     32          7           0       -2.799644    0.702269   -2.195277
     33          6           0       -3.952903    1.174802   -1.806816
     34          1           0       -4.913364    0.911577   -2.251233
     35          1           0       -5.568877    2.128796    0.339579
     36          1           0       -4.538243    3.352824    0.656596
     37          1           0       -5.418634    3.363797   -0.716643
     38          1           0        5.945341    1.747078    1.272746
     39          1           0        6.174210    2.881181   -0.056196
     40          1           0        4.660694    2.879362    0.849676
     41          1           0        5.827703   -1.259464   -2.481379
     42          6           0        5.179896   -0.540644   -1.979510
     43          8           0        3.193772   -1.338322   -3.002312
     44          6           0        3.773230   -0.563676   -2.241433
     45          1           0        2.047682    0.402221   -1.714325
     46          7           0        3.045276    0.387338   -1.555219
     47          8           0        2.802997    2.125343   -0.113745
     48          6           0        3.528078    1.322315   -0.674159
     49          1           0        6.742749    0.418576   -0.891757
     50          6           0        5.680501    0.359421   -1.125183
     51          6           0        5.455665    2.261504    0.459311
     52          7           0        4.893904    1.281184   -0.474032
     53          1           0        4.965786   -0.620704    4.180370
     54          1           0        3.745151    0.390611    3.793859
     55          1           0        5.253988    0.685824    3.245836
     56          1           0        1.412738   -3.118814   -1.836345
     57          1           0        3.090475   -3.321899   -1.603809
     58          7           0        2.229842   -2.913623   -1.297474
     59          6           0        2.175316   -2.130476   -0.218173
     60          6           0        3.079909   -0.986314    1.661810
     61          7           0        1.910292   -0.451671    2.049825
     62          1           0       -0.055677   -0.432680    1.470853
     63          6           0        0.931314   -0.823721    1.227578
     64          7           0        0.983906   -1.608024    0.146059
     65          1           0        6.249127   -1.618720    1.752901
     66          6           0        5.189226   -1.564173    1.502765
     67          7           0        4.632078   -2.170193    0.482959
     68          6           0        3.294698   -1.812154    0.572137
     69          6           0        4.590838   -0.029611    3.466214
     70          7           0        4.308329   -0.830035    2.258934
 ---------------------------------------------------------------------

 SCF Done:  E(RwB97XD) =  -2048.74262334     A.U. after   15 cycles

 The electronic state is 1-A.
 Alpha  occ. eigenvalues --  -19.25739 -19.22152 -19.20753 -14.52364 -14.51403
 Alpha  occ. eigenvalues --  -14.49556 -14.48720 -14.47682 -14.46992 -14.46688
 Alpha  occ. eigenvalues --  -14.45765 -14.44227 -14.42939 -14.42698 -14.42481
 Alpha  occ. eigenvalues --  -14.42124 -14.42012 -14.41495 -14.40789 -14.40708
 Alpha  occ. eigenvalues --  -10.45375 -10.41242 -10.39955 -10.38302 -10.38133
 Alpha  occ. eigenvalues --  -10.37226 -10.36752 -10.35913 -10.35904 -10.35639
 Alpha  occ. eigenvalues --  -10.34810 -10.34545 -10.34332 -10.34054 -10.33606
 Alpha  occ. eigenvalues --  -10.33342 -10.33267 -10.31763 -10.31246 -10.30755
 Alpha  occ. eigenvalues --  -10.30618 -10.29183 -10.28101  -1.19338  -1.14043
 Alpha  occ. eigenvalues --   -1.13257  -1.13228  -1.12107  -1.10587  -1.09248
 Alpha  occ. eigenvalues --   -1.08619  -1.07601  -1.05539  -1.03115  -1.02501
 Alpha  occ. eigenvalues --   -1.00923  -0.99777  -0.99720  -0.98546  -0.97635
 Alpha  occ. eigenvalues --   -0.96537  -0.95254  -0.93148  -0.90699  -0.86459
 Alpha  occ. eigenvalues --   -0.84953  -0.84639  -0.84069  -0.83785  -0.83008
 Alpha  occ. eigenvalues --   -0.82427  -0.78680  -0.75641  -0.74603  -0.73673
 Alpha  occ. eigenvalues --   -0.73495  -0.73413  -0.73259  -0.71635  -0.68984
 Alpha  occ. eigenvalues --   -0.67374  -0.66876  -0.66411  -0.65318  -0.64385
 Alpha  occ. eigenvalues --   -0.63733  -0.63290  -0.62755  -0.62633  -0.61732
 Alpha  occ. eigenvalues --   -0.60729  -0.60665  -0.59366  -0.59144  -0.58382
 Alpha  occ. eigenvalues --   -0.58225  -0.58037  -0.57426  -0.57035  -0.56405
 Alpha  occ. eigenvalues --   -0.55904  -0.55781  -0.55045  -0.54320  -0.54239
 Alpha  occ. eigenvalues --   -0.53663  -0.53516  -0.52906  -0.52660  -0.52529
 Alpha  occ. eigenvalues --   -0.52316  -0.51843  -0.51602  -0.51466  -0.50789
 Alpha  occ. eigenvalues --   -0.50238  -0.49670  -0.49542  -0.49175  -0.48886
 Alpha  occ. eigenvalues --   -0.48650  -0.48350  -0.47833  -0.47665  -0.47510
 Alpha  occ. eigenvalues --   -0.47466  -0.45715  -0.45453  -0.43412  -0.42725
 Alpha  occ. eigenvalues --   -0.41714  -0.39520  -0.39365  -0.37743  -0.37303
 Alpha  occ. eigenvalues --   -0.37214  -0.37189  -0.36349  -0.35817  -0.34314
 Alpha  occ. eigenvalues --   -0.34117  -0.34011  -0.33511  -0.33443  -0.32955
 Alpha  occ. eigenvalues --   -0.32725  -0.32282  -0.31913  -0.31559  -0.30986
 Alpha  occ. eigenvalues --   -0.30813  -0.27866  -0.26335  -0.25419
 Alpha virt. eigenvalues --    0.02975   0.05344   0.07324   0.07669   0.08943
 Alpha virt. eigenvalues --    0.09640   0.09824   0.10461   0.10892   0.12191
 Alpha virt. eigenvalues --    0.13394   0.13633   0.13906   0.14665   0.14859

 Mulliken charges:
               1
     1  N   -0.310807
     2  C    0.179583
     3  C    0.037041
     4  N   -0.244326
     5  C    0.119686
     6  H    0.027255
     7  N   -0.287039
     8  C    0.137173
     9  H    0.014964
    10  N   -0.291722
    11  C    0.237908
    12  C    0.094940
    13  N   -0.038648
    14  H    0.112070
    15  H    0.092976
    16  H    0.028998
    17  H    0.035876
    18  H    0.022481
    19  N   -0.305393
    20  C    0.257763
    21  C    0.183888
    22  N   -0.122689
    23  H    0.116295
    24  H    0.118660
    25  N   -0.308911
    26  C    0.244048
    27  N   -0.146606
    28  H    0.121832
    29  C    0.179121
    30  O   -0.326822
    31  C   -0.016268
    32  N   -0.227195
    33  C    0.133441
    34  H    0.023988
    35  H    0.023686
    36  H    0.030117
    37  H    0.021883
    38  H    0.046459
    39  H    0.063147
    40  H    0.076110
    41  H    0.022398
    42  C   -0.052070
    43  O   -0.277577
    44  C    0.154388
    45  H    0.135637
    46  N   -0.124052
    47  O   -0.347080
    48  C    0.345641
    49  H    0.040262
    50  C    0.157684
    51  C    0.042108
    52  N   -0.282681
    53  H    0.033309
    54  H    0.041399
    55  H    0.010979
    56  H    0.119182
    57  H    0.115908
    58  N   -0.014618
    59  C    0.092331
    60  C    0.231972
    61  N   -0.273394
    62  H    0.030577
    63  C    0.155646
    64  N   -0.303338
    65  H    0.027014
    66  C    0.116901
    67  N   -0.244366
    68  C    0.008582
    69  C    0.183322
    70  N   -0.301027
 Sum of Mulliken charges =  -0.00000

 Dipole moment (field-independent basis, Debye):
    X=              4.6808    Y=              4.5131    Z=              5.4960  Tot=              8.5137
 Quadrupole moment (field-independent basis, Debye-Ang):
   XX=           -144.1076   YY=           -229.0115   ZZ=           -253.2254
   XY=              6.0397   XZ=             18.7715   YZ=             10.5427

 Normal termination of Gaussian 16 at Thu Jan 18 03:00:58 2018.
