 Gaussian 16, Revision A.03,
 Gaussian 16:  EM64L-G16RevA.03 25-Dec-2016

 ---------------------------------------
 #p wb97xd/cc-pvdz sp scf=(maxcycles=20)
 ---------------------------------------

 ------------------
 Base pair stacking
 ------------------
 Symbolic Z-matrix:
 Charge =  0 Multiplicity = 1

                         Standard orientation:
 ---------------------------------------------------------------------
 Center     Atomic      Atomic             Coordinates (Angstroms)
 Number     Number       Type             X           Y           Z
 ---------------------------------------------------------------------
      1          7           0       -7.104355   -0.682789    0.230910
      2          6           0       -8.363442   -0.032075    0.642339
      3          6           0       -4.990898   -1.270348    0.071606
      4          7           0       -5.675370   -2.024192   -0.870712
      5          6           0       -6.921256   -1.640037   -0.737020
      6          1           0       -7.755316   -2.025557   -1.324098
      7          7           0       -3.280897   -0.351063    1.410918
      8          6           0       -4.233859    0.390695    1.984711
      9          1           0       -3.890022    1.064262    2.768510
     10          7           0       -5.541624    0.425163    1.736840
     11          6           0       -5.858434   -0.438924    0.758356
     12          6           0       -3.631787   -1.210765    0.429647
     13          7           0       -2.681949   -1.952060   -0.144345
     14          1           0       -2.896132   -2.601622   -0.874694
     15          1           0       -1.724414   -1.883441    0.135951
     16          1           0       -9.005602   -0.724154    0.972241
     17          1           0       -8.177191    0.623799    1.373272
     18          1           0       -8.764319    0.446758   -0.138686
     19          7           0       -2.947303    1.883080   -1.323431
     20          6           0       -1.617076    1.980526   -0.993183
     21          6           0       -4.005486    2.816781   -0.888504
     22          7           0        0.960817    3.626514    0.652087
     23          1           0        1.947241    3.517919    0.772217
     24          1           0        0.531733    4.407760    1.106236
     25          7           0       -1.057700    2.937897   -0.222087
     26          6           0        0.244765    2.763768   -0.084684
     27          7           0        0.947562    1.731688   -0.657758
     28          1           0        1.941889    1.677343   -0.498639
     29          6           0        0.392641    0.735389   -1.454817
     30          8           0        1.115884   -0.152025   -1.924034
     31          6           0       -1.005982    0.909076   -1.611537
     32          7           0       -1.933884    0.154171   -2.315813
     33          6           0       -3.068540    0.768216   -2.116541
     34          1           0       -4.027546    0.449241   -2.526216
     35          1           0       -4.695504    2.319921   -0.363327
     36          1           0       -3.602976    3.530364   -0.316626
     37          1           0       -4.433342    3.234642   -1.689213
     38          1           0        6.734541    1.605390    1.197835
     39          1           0        7.078289    2.348994   -0.362141
     40          1           0        5.537305    2.655635    0.439557
     41          1           0        6.561090   -2.250884   -1.673684
     42          6           0        5.941899   -1.395731   -1.402491
     43          8           0        3.946751   -2.326457   -2.285790
     44          6           0        4.546310   -1.413514   -1.718487
     45          1           0        2.866400   -0.258651   -1.538171
     46          7           0        3.855131   -0.283001   -1.331899
     47          8           0        3.670909    1.775711   -0.391157
     48          6           0        4.364024    0.820375   -0.693810
     49          1           0        7.522541   -0.270954   -0.518027
     50          6           0        6.467312   -0.333807   -0.780507
     51          6           0        6.305684    1.918983    0.257721
     52          7           0        5.717038    0.762481   -0.423267
     53          1           0        4.084950    0.508265    4.183656
     54          1           0        2.955203    1.404238    3.420118
     55          1           0        4.495862    1.401685    2.881206
     56          1           0        0.510061   -3.646222   -0.818943
     57          1           0        2.160884   -3.863813   -0.448064
     58          7           0        1.326103   -3.322882   -0.339685
     59          6           0        1.303196   -2.219531    0.410816
     60          6           0        2.242921   -0.567029    1.841862
     61          7           0        1.107629    0.139579    1.969293
     62          1           0       -0.835483    0.085419    1.319657
     63          6           0        0.124930   -0.425975    1.271164
     64          7           0        0.145878   -1.531049    0.518869
     65          1           0        5.351455   -1.329261    2.298156
     66          6           0        4.305625   -1.295914    1.991430
     67          7           0        3.730751   -2.174410    1.206924
     68          6           0        2.422593   -1.724038    1.103908
     69          6           0        3.774738    0.845830    3.294939
     70          7           0        3.463714   -0.295785    2.412906
 ---------------------------------------------------------------------

 SCF Done:  E(RwB97XD) =  -2048.75216447     A.U. after   15 cycles

 The electronic state is 1-A.
 Alpha  occ. eigenvalues --  -19.26062 -19.21942 -19.20700 -14.52622 -14.50944
 Alpha  occ. eigenvalues --  -14.49984 -14.48542 -14.47811 -14.46855 -14.46689
 Alpha  occ. eigenvalues --  -14.45675 -14.43717 -14.42903 -14.42712 -14.42456
 Alpha  occ. eigenvalues --  -14.42334 -14.42026 -14.42005 -14.41156 -14.40746
 Alpha  occ. eigenvalues --  -10.45630 -10.41189 -10.40054 -10.38292 -10.37836
 Alpha  occ. eigenvalues --  -10.37656 -10.36421 -10.36393 -10.35911 -10.35443
 Alpha  occ. eigenvalues --  -10.35330 -10.34593 -10.34293 -10.34099 -10.34091
 Alpha  occ. eigenvalues --  -10.33118 -10.32999 -10.31953 -10.31030 -10.30745
 Alpha  occ. eigenvalues --  -10.30338 -10.29780 -10.28090  -1.19617  -1.13572
 Alpha  occ. eigenvalues --   -1.13226  -1.12932  -1.12596  -1.10507  -1.09482
 Alpha  occ. eigenvalues --   -1.08589  -1.07191  -1.06047  -1.02725  -1.02494
 Alpha  occ. eigenvalues --   -1.01447  -0.99754  -0.99272  -0.98497  -0.98100
 Alpha  occ. eigenvalues --   -0.96405  -0.94865  -0.93633  -0.91042  -0.86020
 Alpha  occ. eigenvalues --   -0.85089  -0.84528  -0.84043  -0.83941  -0.83409
 Alpha  occ. eigenvalues --   -0.82203  -0.78914  -0.75253  -0.74523  -0.73948
 Alpha  occ. eigenvalues --   -0.73636  -0.73371  -0.72977  -0.72145  -0.68592
 Alpha  occ. eigenvalues --   -0.67372  -0.67317  -0.66600  -0.64893  -0.64468
 Alpha  occ. eigenvalues --   -0.63745  -0.63690  -0.62634  -0.62434  -0.61690
 Alpha  occ. eigenvalues --   -0.61124  -0.60394  -0.59568  -0.58816  -0.58369
 Alpha  occ. eigenvalues --   -0.58112  -0.58021  -0.57566  -0.57294  -0.56424
 Alpha  occ. eigenvalues --   -0.56201  -0.56069  -0.54484  -0.54432  -0.53861
 Alpha  occ. eigenvalues --   -0.53618  -0.53564  -0.52877  -0.52862  -0.52748
 Alpha  occ. eigenvalues --   -0.52181  -0.51931  -0.51765  -0.51257  -0.51122
 Alpha  occ. eigenvalues --   -0.50090  -0.50033  -0.49482  -0.48713  -0.48461
 Alpha  occ. eigenvalues --   -0.48272  -0.48173  -0.47960  -0.47870  -0.47725
 Alpha  occ. eigenvalues --   -0.47374  -0.46043  -0.44989  -0.44118  -0.42942
 Alpha  occ. eigenvalues --   -0.42175  -0.39610  -0.39050  -0.38285  -0.37276
 Alpha  occ. eigenvalues --   -0.37184  -0.36370  -0.35757  -0.35336  -0.34674
 Alpha  occ. eigenvalues --   -0.34578  -0.34405  -0.33227  -0.32852  -0.32786
 Alpha  occ. eigenvalues --   -0.32631  -0.32291  -0.31951  -0.31899  -0.31868
 Alpha  occ. eigenvalues --   -0.31318  -0.27942  -0.26745  -0.25429
 Alpha virt. eigenvalues --    0.03130   0.05615   0.06764   0.08240   0.08953
 Alpha virt. eigenvalues --    0.09029   0.09803   0.10147   0.10745   0.12426
 Alpha virt. eigenvalues --    0.12969   0.13169   0.14612   0.14809   0.15480

 Mulliken charges:
               1
     1  N   -0.310150
     2  C    0.180356
     3  C    0.030348
     4  N   -0.256145
     5  C    0.130489
     6  H    0.030047
     7  N   -0.276087
     8  C    0.128082
     9  H    0.019102
    10  N   -0.289093
    11  C    0.236368
    12  C    0.085555
    13  N   -0.032009
    14  H    0.107659
    15  H    0.091438
    16  H    0.028826
    17  H    0.036546
    18  H    0.025661
    19  N   -0.301199
    20  C    0.249032
    21  C    0.184117
    22  N   -0.119693
    23  H    0.111877
    24  H    0.117928
    25  N   -0.303888
    26  C    0.239607
    27  N   -0.125117
    28  H    0.118177
    29  C    0.156331
    30  O   -0.325486
    31  C   -0.003931
    32  N   -0.227801
    33  C    0.120321
    34  H    0.030021
    35  H    0.026456
    36  H    0.027628
    37  H    0.021596
    38  H    0.053566
    39  H    0.065403
    40  H    0.076616
    41  H    0.030557
    42  C   -0.084784
    43  O   -0.272210
    44  C    0.188698
    45  H    0.134020
    46  N   -0.127009
    47  O   -0.350785
    48  C    0.342320
    49  H    0.044389
    50  C    0.155238
    51  C    0.036550
    52  N   -0.289438
    53  H    0.030740
    54  H    0.037822
    55  H    0.011065
    56  H    0.115746
    57  H    0.122096
    58  N   -0.051754
    59  C    0.135444
    60  C    0.235136
    61  N   -0.274423
    62  H    0.037528
    63  C    0.154948
    64  N   -0.305839
    65  H    0.022537
    66  C    0.113458
    67  N   -0.246581
    68  C    0.014068
    69  C    0.182883
    70  N   -0.300972
 Sum of Mulliken charges =  -0.00000

 Dipole moment (field-independent basis, Debye):
    X=              4.4780    Y=              5.4418    Z=              4.5410  Tot=              8.3837
 Quadrupole moment (field-independent basis, Debye-Ang):
   XX=           -139.3622   YY=           -227.1567   ZZ=           -254.3860
   XY=             13.0878   XZ=             25.9948   YZ=              2.3083

 Normal termination of Gaussian 16 at Thu Jan 18 00:55:00 2018.
