 Gaussian 16, Revision A.03,
 Gaussian 16:  EM64L-G16RevA.03 25-Dec-2016

 ---------------------------------------
 #p wb97xd/cc-pvdz sp scf=(maxcycles=20)
 ---------------------------------------

 ------------------
 Base pair stacking
 ------------------
 Symbolic Z-matrix:
 Charge =  0 Multiplicity = 1

                         Standard orientation:
 ---------------------------------------------------------------------
 Center     Atomic      Atomic             Coordinates (Angstroms)
 Number     Number       Type             X           Y           Z
 ---------------------------------------------------------------------
      1          7           0        4.806429   -1.876411   -0.925332
      2          6           0        6.071218   -1.587237   -1.628687
      3          6           0        2.679307   -1.994510   -0.378810
      4          7           0        3.375889   -2.643377    0.630376
      5          6           0        4.629530   -2.546260    0.260733
      6          1           0        5.474014   -2.948977    0.820735
      7          7           0        0.946882   -1.075043   -1.688868
      8          6           0        1.902125   -0.674772   -2.534370
      9          1           0        1.549806   -0.134212   -3.411823
     10          7           0        3.221041   -0.841210   -2.459072
     11          6           0        3.547642   -1.516471   -1.344722
     12          6           0        1.307839   -1.752099   -0.576943
     13          7           0        0.355751   -2.152499    0.268270
     14          1           0        0.577095   -2.656601    1.103795
     15          1           0       -0.610707   -1.962332    0.095217
     16          1           0        6.532449   -2.445433   -1.854381
     17          1           0        5.877986   -1.082619   -2.469613
     18          1           0        6.663865   -1.036981   -1.040487
     19          7           0        5.398103    1.248968    0.448984
     20          6           0        4.064708    1.517675    0.254268
     21          6           0        6.503676    1.768356   -0.380859
     22          7           0        1.545336    3.094892   -1.542089
     23          1           0        0.548544    3.163037   -1.510366
     24          1           0        2.011507    3.597427   -2.270690
     25          7           0        3.544666    2.295087   -0.720025
     26          6           0        2.227140    2.362767   -0.648198
     27          7           0        1.474590    1.719134    0.304122
     28          1           0        0.472250    1.827791    0.282436
     29          6           0        1.988421    0.914172    1.315990
     30          8           0        1.221734    0.378473    2.125888
     31          6           0        3.402632    0.831849    1.251808
     32          7           0        4.302265    0.146367    2.056582
     33          6           0        5.470552    0.422611    1.543763
     34          1           0        6.420806    0.048554    1.926350
     35          1           0        7.003957    1.005063   -0.788189
     36          1           0        6.130572    2.345651   -1.105979
     37          1           0        7.124071    2.307931    0.187282
     38          1           0       -4.486983    2.250483   -0.756806
     39          1           0       -4.433926    3.480960    0.503256
     40          1           0       -3.023531    3.206259   -0.519816
     41          1           0       -4.453474   -0.518349    3.177528
     42          6           0       -3.759303    0.068163    2.575560
     43          8           0       -1.820405   -0.949549    3.487728
     44          6           0       -2.351903   -0.144223    2.723686
     45          1           0       -0.562723    0.527929    1.991986
     46          7           0       -1.562816    0.649261    1.915617
     47          8           0       -1.210501    2.246921    0.340646
     48          6           0       -1.987384    1.591897    1.013003
     49          1           0       -5.264083    1.180006    1.553179
     50          6           0       -4.203913    0.980454    1.703404
     51          6           0       -3.858725    2.734415   -0.023892
     52          7           0       -3.357930    1.738534    0.927515
     53          1           0       -6.533218    0.570910   -3.694186
     54          1           0       -5.166484    1.375229   -3.310500
     55          1           0       -6.580870    1.788392   -2.608419
     56          1           0       -2.916966   -3.008291    1.707444
     57          1           0       -4.619127   -2.977344    1.598836
     58          7           0       -3.736590   -2.645112    1.264214
     59          6           0       -3.657344   -1.757187    0.270998
     60          6           0       -4.536474   -0.305412   -1.396708
     61          7           0       -3.337714    0.122959   -1.825516
     62          1           0       -1.349862   -0.163981   -1.417180
     63          6           0       -2.359603   -0.456639   -1.132498
     64          7           0       -2.436931   -1.346194   -0.137365
     65          1           0       -7.759504   -0.531721   -1.282543
     66          6           0       -6.686443   -0.635704   -1.119267
     67          7           0       -6.141932   -1.416916   -0.218761
     68          6           0       -4.779033   -1.217038   -0.383972
     69          6           0       -6.034279    1.026983   -2.957267
     70          7           0       -5.773386    0.066377   -1.867692
 ---------------------------------------------------------------------

 SCF Done:  E(RwB97XD) =  -2048.74892582     A.U. after   15 cycles

 The electronic state is 1-A.
 Alpha  occ. eigenvalues --  -19.25323 -19.21668 -19.20760 -14.52546 -14.51820
 Alpha  occ. eigenvalues --  -14.49292 -14.48989 -14.47882 -14.47210 -14.46913
 Alpha  occ. eigenvalues --  -14.46724 -14.45334 -14.44415 -14.44333 -14.42646
 Alpha  occ. eigenvalues --  -14.42067 -14.41336 -14.41334 -14.41243 -14.40801
 Alpha  occ. eigenvalues --  -10.44877 -10.41305 -10.39859 -10.39680 -10.38399
 Alpha  occ. eigenvalues --  -10.37921 -10.37189 -10.37042 -10.35923 -10.35833
 Alpha  occ. eigenvalues --  -10.34648 -10.34534 -10.34136 -10.34075 -10.33778
 Alpha  occ. eigenvalues --  -10.33661 -10.33509 -10.32610 -10.31602 -10.31531
 Alpha  occ. eigenvalues --  -10.30308 -10.28780 -10.28413  -1.18881  -1.15235
 Alpha  occ. eigenvalues --   -1.13372  -1.12637  -1.11535  -1.10953  -1.09331
 Alpha  occ. eigenvalues --   -1.08745  -1.08608  -1.05469  -1.04766  -1.01936
 Alpha  occ. eigenvalues --   -1.00943  -1.00798  -0.99812  -0.98722  -0.97229
 Alpha  occ. eigenvalues --   -0.96957  -0.96828  -0.93136  -0.90399  -0.87644
 Alpha  occ. eigenvalues --   -0.85972  -0.84625  -0.84155  -0.83154  -0.82950
 Alpha  occ. eigenvalues --   -0.82612  -0.78270  -0.76999  -0.74917  -0.74876
 Alpha  occ. eigenvalues --   -0.73746  -0.73212  -0.72773  -0.71389  -0.70338
 Alpha  occ. eigenvalues --   -0.67561  -0.66751  -0.66634  -0.65969  -0.64572
 Alpha  occ. eigenvalues --   -0.64160  -0.63511  -0.63054  -0.62729  -0.61928
 Alpha  occ. eigenvalues --   -0.60829  -0.60717  -0.60374  -0.59551  -0.58979
 Alpha  occ. eigenvalues --   -0.58785  -0.58494  -0.58398  -0.56909  -0.55847
 Alpha  occ. eigenvalues --   -0.55760  -0.55593  -0.55300  -0.54393  -0.54243
 Alpha  occ. eigenvalues --   -0.54142  -0.53687  -0.53500  -0.53152  -0.52957
 Alpha  occ. eigenvalues --   -0.52809  -0.52100  -0.51792  -0.50831  -0.50641
 Alpha  occ. eigenvalues --   -0.50375  -0.50090  -0.49390  -0.49212  -0.49086
 Alpha  occ. eigenvalues --   -0.48866  -0.48448  -0.48339  -0.47666  -0.47296
 Alpha  occ. eigenvalues --   -0.47276  -0.46114  -0.44955  -0.44878  -0.43089
 Alpha  occ. eigenvalues --   -0.41352  -0.40699  -0.39029  -0.37881  -0.37603
 Alpha  occ. eigenvalues --   -0.37480  -0.37404  -0.37198  -0.35829  -0.34603
 Alpha  occ. eigenvalues --   -0.34474  -0.34098  -0.33826  -0.33668  -0.33090
 Alpha  occ. eigenvalues --   -0.32754  -0.32523  -0.31976  -0.31435  -0.31075
 Alpha  occ. eigenvalues --   -0.30749  -0.29842  -0.26928  -0.24867
 Alpha virt. eigenvalues --    0.03625   0.04120   0.06547   0.07293   0.08512
 Alpha virt. eigenvalues --    0.09323   0.09769   0.10466   0.10990   0.12149
 Alpha virt. eigenvalues --    0.12979   0.13535   0.14156   0.14584   0.15031

 Mulliken charges:
               1
     1  N   -0.301209
     2  C    0.187469
     3  C    0.048056
     4  N   -0.237990
     5  C    0.139852
     6  H    0.024609
     7  N   -0.289815
     8  C    0.126706
     9  H    0.008454
    10  N   -0.279309
    11  C    0.236049
    12  C    0.074228
    13  N   -0.045873
    14  H    0.116267
    15  H    0.086296
    16  H    0.027529
    17  H    0.034935
    18  H    0.007218
    19  N   -0.302027
    20  C    0.251640
    21  C    0.186039
    22  N   -0.121635
    23  H    0.118544
    24  H    0.119537
    25  N   -0.302210
    26  C    0.240311
    27  N   -0.137375
    28  H    0.121427
    29  C    0.182068
    30  O   -0.320568
    31  C   -0.011324
    32  N   -0.209989
    33  C    0.104619
    34  H    0.020572
    35  H    0.003844
    36  H    0.035266
    37  H    0.028134
    38  H    0.041817
    39  H    0.054282
    40  H    0.075988
    41  H    0.017348
    42  C   -0.104690
    43  O   -0.277034
    44  C    0.172495
    45  H    0.127998
    46  N   -0.109610
    47  O   -0.349279
    48  C    0.326583
    49  H    0.044673
    50  C    0.167662
    51  C    0.051913
    52  N   -0.271090
    53  H    0.037664
    54  H    0.042365
    55  H    0.029120
    56  H    0.126789
    57  H    0.117921
    58  N   -0.046938
    59  C    0.085097
    60  C    0.220515
    61  N   -0.266324
    62  H    0.029985
    63  C    0.163937
    64  N   -0.303495
    65  H    0.038032
    66  C    0.132919
    67  N   -0.255227
    68  C    0.042540
    69  C    0.176526
    70  N   -0.310827
 Sum of Mulliken charges =  -0.00000

 Dipole moment (field-independent basis, Debye):
    X=             -4.9299    Y=              4.7492    Z=             -6.2072  Tot=              9.2406
 Quadrupole moment (field-independent basis, Debye-Ang):
   XX=           -146.4371   YY=           -226.9645   ZZ=           -259.4748
   XY=            -10.8004   XZ=              0.1371   YZ=             -9.9017

 Normal termination of Gaussian 16 at Thu Jan 18 13:15:59 2018.
