 Gaussian 16, Revision A.03,
 Gaussian 16:  EM64L-G16RevA.03 25-Dec-2016

 ---------------------------------------
 #p wb97xd/cc-pvdz sp scf=(maxcycles=20)
 ---------------------------------------

 ------------------
 Base pair stacking
 ------------------
 Symbolic Z-matrix:
 Charge =  0 Multiplicity = 1

                         Standard orientation:
 ---------------------------------------------------------------------
 Center     Atomic      Atomic             Coordinates (Angstroms)
 Number     Number       Type             X           Y           Z
 ---------------------------------------------------------------------
      1          7           0        7.053884    0.566587    0.263140
      2          6           0        8.292324   -0.225482    0.393117
      3          6           0        4.957540    1.227051    0.343406
      4          7           0        5.669264    2.264751   -0.240857
      5          6           0        6.903751    1.825313   -0.265826
      6          1           0        7.752508    2.383113   -0.662564
      7          7           0        3.212934   -0.087441    1.233030
      8          6           0        4.141614   -1.017350    1.478785
      9          1           0        3.773845   -1.929555    1.946646
     10          7           0        5.450225   -0.989756    1.234517
     11          6           0        5.797543    0.173474    0.659475
     12          6           0        3.594243    1.071894    0.653679
     13          7           0        2.668679    2.001365    0.407564
     14          1           0        2.905751    2.874473   -0.019873
     15          1           0        1.707268    1.856750    0.641902
     16          1           0        8.948934    0.270799    0.961235
     17          1           0        8.082999   -1.105388    0.818636
     18          1           0        8.687800   -0.380613   -0.512158
     19          7           0        3.025662   -1.418027   -1.464779
     20          6           0        1.700776   -1.581291   -1.139079
     21          6           0        4.118890   -2.332110   -1.077487
     22          7           0       -0.810150   -3.402058    0.423552
     23          1           0       -1.799633   -3.336411    0.549465
     24          1           0       -0.351205   -4.188398    0.837985
     25          7           0        1.179263   -2.596031   -0.416335
     26          6           0       -0.128448   -2.477635   -0.269728
     27          7           0       -0.870527   -1.445226   -0.790292
     28          1           0       -1.865812   -1.435971   -0.628138
     29          6           0       -0.354974   -0.390508   -1.537043
     30          8           0       -1.111848    0.491566   -1.961075
     31          6           0        1.048770   -0.503932   -1.702969
     32          7           0        1.946257    0.319144   -2.369277
     33          6           0        3.103445   -0.261334   -2.201438
     34          1           0        4.048931    0.113158   -2.595241
     35          1           0        4.791203   -1.836625   -0.528587
     36          1           0        3.744588   -3.087773   -0.541637
     37          1           0        4.560080   -2.693378   -1.898247
     38          1           0       -6.653738   -1.627220    1.072405
     39          1           0       -6.973319   -2.304586   -0.522481
     40          1           0       -5.420085   -2.593077    0.262108
     41          1           0       -6.630749    2.370941   -1.603553
     42          6           0       -5.979531    1.527023   -1.375632
     43          8           0       -4.022504    2.574275   -2.212547
     44          6           0       -4.586337    1.612517   -1.691102
     45          1           0       -2.864186    0.513545   -1.569437
     46          7           0       -3.852649    0.490717   -1.361677
     47          8           0       -3.589703   -1.603942   -0.524746
     48          6           0       -4.318599   -0.661236   -0.779067
     49          1           0       -7.515113    0.301498   -0.547439
     50          6           0       -6.463578    0.416618   -0.807033
     51          6           0       -6.215763   -1.877438    0.117610
     52          7           0       -5.672186   -0.667344   -0.505245
     53          1           0       -4.196631   -1.741525    3.479058
     54          1           0       -3.083307   -2.308340    2.429607
     55          1           0       -4.618576   -2.058917    1.934819
     56          1           0       -0.473144    3.909892    0.435591
     57          1           0       -2.121104    4.013779    0.863970
     58          7           0       -1.301337    3.450197    0.756382
     59          6           0       -1.313143    2.143752    1.028865
     60          6           0       -2.307201    0.096112    1.722214
     61          7           0       -1.191416   -0.635885    1.568547
     62          1           0        0.758111   -0.390166    0.985807
     63          6           0       -0.188525    0.126643    1.137660
     64          7           0       -0.174702    1.435300    0.864170
     65          1           0       -5.399267    0.709787    2.439660
     66          6           0       -4.351951    0.767918    2.141829
     67          7           0       -3.748001    1.863508    1.751183
     68          6           0       -2.450859    1.451549    1.482053
     69          6           0       -3.887243   -1.722611    2.528308
     70          7           0       -3.539508   -0.339601    2.148352
 ---------------------------------------------------------------------

 SCF Done:  E(RwB97XD) =  -2048.72188989     A.U. after   15 cycles

 The electronic state is 1-A.
 Alpha  occ. eigenvalues --  -19.26186 -19.21984 -19.20462 -14.52875 -14.51141
 Alpha  occ. eigenvalues --  -14.50343 -14.48032 -14.47978 -14.46496 -14.46236
 Alpha  occ. eigenvalues --  -14.46213 -14.44008 -14.43498 -14.43028 -14.42936
 Alpha  occ. eigenvalues --  -14.42570 -14.42348 -14.41784 -14.41614 -14.40454
 Alpha  occ. eigenvalues --  -10.45805 -10.40735 -10.40094 -10.38377 -10.37957
 Alpha  occ. eigenvalues --  -10.37852 -10.36930 -10.36715 -10.36314 -10.35757
 Alpha  occ. eigenvalues --  -10.35665 -10.35002 -10.34510 -10.34500 -10.33926
 Alpha  occ. eigenvalues --  -10.33163 -10.32857 -10.32234 -10.31221 -10.31105
 Alpha  occ. eigenvalues --  -10.30222 -10.29087 -10.27812  -1.19855  -1.13878
 Alpha  occ. eigenvalues --   -1.13022  -1.13016  -1.12956  -1.10192  -1.09707
 Alpha  occ. eigenvalues --   -1.08288  -1.07749  -1.06578  -1.03341  -1.02663
 Alpha  occ. eigenvalues --   -1.02021  -0.99638  -0.99364  -0.98488  -0.98215
 Alpha  occ. eigenvalues --   -0.96038  -0.95376  -0.94182  -0.91283  -0.86435
 Alpha  occ. eigenvalues --   -0.85527  -0.85062  -0.84228  -0.83782  -0.83613
 Alpha  occ. eigenvalues --   -0.81634  -0.79119  -0.75747  -0.74482  -0.74193
 Alpha  occ. eigenvalues --   -0.73593  -0.73511  -0.73229  -0.72626  -0.69140
 Alpha  occ. eigenvalues --   -0.67806  -0.67095  -0.66708  -0.65498  -0.64675
 Alpha  occ. eigenvalues --   -0.64226  -0.63371  -0.62980  -0.62521  -0.61565
 Alpha  occ. eigenvalues --   -0.61350  -0.61310  -0.59710  -0.59435  -0.58646
 Alpha  occ. eigenvalues --   -0.58138  -0.58027  -0.57848  -0.57705  -0.56803
 Alpha  occ. eigenvalues --   -0.56541  -0.56091  -0.55282  -0.54587  -0.54344
 Alpha  occ. eigenvalues --   -0.54160  -0.53354  -0.53274  -0.53098  -0.52488
 Alpha  occ. eigenvalues --   -0.52209  -0.51931  -0.51606  -0.51514  -0.51218
 Alpha  occ. eigenvalues --   -0.50459  -0.49864  -0.49520  -0.48648  -0.48580
 Alpha  occ. eigenvalues --   -0.48409  -0.48311  -0.48017  -0.47925  -0.47612
 Alpha  occ. eigenvalues --   -0.47223  -0.46152  -0.45357  -0.44329  -0.42937
 Alpha  occ. eigenvalues --   -0.41695  -0.39867  -0.39628  -0.38747  -0.37085
 Alpha  occ. eigenvalues --   -0.37014  -0.36644  -0.35947  -0.35472  -0.35046
 Alpha  occ. eigenvalues --   -0.34952  -0.34350  -0.33328  -0.33189  -0.33126
 Alpha  occ. eigenvalues --   -0.32652  -0.32463  -0.31997  -0.31861  -0.31643
 Alpha  occ. eigenvalues --   -0.31430  -0.27904  -0.27015  -0.25184
 Alpha virt. eigenvalues --    0.02976   0.05092   0.06126   0.07989   0.08643
 Alpha virt. eigenvalues --    0.08842   0.09867   0.10102   0.11172   0.12220
 Alpha virt. eigenvalues --    0.12390   0.13108   0.14610   0.14909   0.15059

 Mulliken charges:
               1
     1  N   -0.311795
     2  C    0.180141
     3  C    0.042119
     4  N   -0.255543
     5  C    0.133263
     6  H    0.031570
     7  N   -0.258377
     8  C    0.107841
     9  H    0.023853
    10  N   -0.287753
    11  C    0.235033
    12  C    0.080579
    13  N   -0.034590
    14  H    0.107646
    15  H    0.089922
    16  H    0.029714
    17  H    0.036300
    18  H    0.027322
    19  N   -0.293301
    20  C    0.234676
    21  C    0.202122
    22  N   -0.096220
    23  H    0.109251
    24  H    0.113524
    25  N   -0.288538
    26  C    0.206661
    27  N   -0.108172
    28  H    0.121797
    29  C    0.129483
    30  O   -0.323640
    31  C    0.014361
    32  N   -0.224889
    33  C    0.112341
    34  H    0.026034
    35  H    0.017210
    36  H    0.021601
    37  H    0.016079
    38  H    0.052707
    39  H    0.065499
    40  H    0.090160
    41  H    0.032451
    42  C   -0.091256
    43  O   -0.263980
    44  C    0.187601
    45  H    0.132909
    46  N   -0.124241
    47  O   -0.347847
    48  C    0.339813
    49  H    0.045400
    50  C    0.157587
    51  C    0.037440
    52  N   -0.285304
    53  H    0.031360
    54  H    0.026293
    55  H   -0.030255
    56  H    0.116240
    57  H    0.121698
    58  N   -0.066142
    59  C    0.140884
    60  C    0.216378
    61  N   -0.279681
    62  H    0.047489
    63  C    0.156758
    64  N   -0.304584
    65  H    0.022538
    66  C    0.109921
    67  N   -0.249136
    68  C    0.028408
    69  C    0.204447
    70  N   -0.289178
 Sum of Mulliken charges =  -0.00000

 Dipole moment (field-independent basis, Debye):
    X=             -3.9622    Y=             -5.4120    Z=              4.9409  Tot=              8.3307
 Quadrupole moment (field-independent basis, Debye-Ang):
   XX=           -138.0561   YY=           -227.4529   ZZ=           -259.3791
   XY=             19.4162   XZ=            -21.5931   YZ=              3.9258

 Normal termination of Gaussian 16 at Thu Jan 18 00:30:43 2018.
