 Gaussian 16, Revision A.03,
 Gaussian 16:  EM64L-G16RevA.03 25-Dec-2016

 ---------------------------------------
 #p wb97xd/cc-pvdz sp scf=(maxcycles=20)
 ---------------------------------------

 ------------------
 Base pair stacking
 ------------------
 Symbolic Z-matrix:
 Charge =  0 Multiplicity = 1

                         Standard orientation:
 ---------------------------------------------------------------------
 Center     Atomic      Atomic             Coordinates (Angstroms)
 Number     Number       Type             X           Y           Z
 ---------------------------------------------------------------------
      1          7           0       -6.836898   -0.785884    0.346558
      2          6           0       -8.097380   -0.125872    0.738436
      3          6           0       -4.719458   -1.359917    0.190800
      4          7           0       -5.408256   -2.172626   -0.697897
      5          6           0       -6.656368   -1.794266   -0.568483
      6          1           0       -7.493991   -2.220755   -1.121143
      7          7           0       -3.001743   -0.349186    1.452075
      8          6           0       -3.954951    0.413996    1.996615
      9          1           0       -3.607991    1.134164    2.736363
     10          7           0       -5.266251    0.421099    1.765635
     11          6           0       -5.586725   -0.499967    0.841857
     12          6           0       -3.356373   -1.266374    0.525749
     13          7           0       -2.406291   -2.029131   -0.018962
     14          1           0       -2.623166   -2.720995   -0.708525
     15          1           0       -1.445872   -1.935061    0.243521
     16          1           0       -8.727400   -0.804763    1.115750
     17          1           0       -7.908494    0.572037    1.428627
     18          1           0       -8.513994    0.304047   -0.062569
     19          7           0       -3.259538    1.776724   -1.301325
     20          6           0       -1.928568    1.899484   -0.982724
     21          6           0       -4.336565    2.669083   -0.827614
     22          7           0        0.624467    3.564026    0.682525
     23          1           0        1.614698    3.477992    0.788738
     24          1           0        0.180469    4.320077    1.164160
     25          7           0       -1.385421    2.848313   -0.189771
     26          6           0       -0.077362    2.704629   -0.071648
     27          7           0        0.645384    1.708637   -0.682504
     28          1           0        1.642566    1.675885   -0.535812
     29          6           0        0.107407    0.721791   -1.502610
     30          8           0        0.848031   -0.132146   -2.005624
     31          6           0       -1.296987    0.863065   -1.639024
     32          7           0       -2.213014    0.104882   -2.355238
     33          6           0       -3.360881    0.682719   -2.125669
     34          1           0       -4.315935    0.350704   -2.534219
     35          1           0       -5.007294    2.139063   -0.309922
     36          1           0       -3.946189    3.375991   -0.239275
     37          1           0       -4.784391    3.098761   -1.610969
     38          1           0        6.454760    1.680690    1.105968
     39          1           0        6.760969    2.478407   -0.434983
     40          1           0        5.221907    2.720740    0.392013
     41          1           0        6.348549   -2.093182   -1.876186
     42          6           0        5.710492   -1.262940   -1.573175
     43          8           0        3.730150   -2.219701   -2.461995
     44          6           0        4.312273   -1.308243   -1.874477
     45          1           0        2.605073   -0.203834   -1.641994
     46          7           0        3.596415   -0.208140   -1.447218
     47          8           0        3.369567    1.816597   -0.444129
     48          6           0        4.083757    0.889131   -0.782345
     49          1           0        7.271441   -0.123245   -0.672993
     50          6           0        6.215242   -0.206177   -0.925809
     51          6           0        6.007043    2.010227    0.180216
     52          7           0        5.440862    0.859026   -0.528250
     53          1           0        4.390966    0.740178    4.068081
     54          1           0        3.241254    1.580108    3.271353
     55          1           0        4.774439    1.562881    2.711789
     56          1           0        0.794728   -3.726012   -0.642097
     57          1           0        2.452688   -3.905504   -0.282860
     58          7           0        1.613564   -3.367856   -0.193329
     59          6           0        1.588684   -2.224231    0.494183
     60          6           0        2.529429   -0.484170    1.816643
     61          7           0        1.388264    0.216878    1.920106
     62          1           0       -0.562708    0.106360    1.301980
     63          6           0        0.402522   -0.397123    1.268811
     64          7           0        0.425438   -1.542591    0.579623
     65          1           0        5.652007   -1.187736    2.271264
     66          6           0        4.601843   -1.182402    1.977901
     67          7           0        4.026109   -2.109548    1.252227
     68          6           0        2.711813   -1.679062    1.142476
     69          6           0        4.065102    1.023915    3.166246
     70          7           0        3.754764   -0.168733    2.354285
 ---------------------------------------------------------------------

 SCF Done:  E(RwB97XD) =  -2048.75270534     A.U. after   15 cycles

 The electronic state is 1-A.
 Alpha  occ. eigenvalues --  -19.25999 -19.22009 -19.20600 -14.52583 -14.51217
 Alpha  occ. eigenvalues --  -14.49977 -14.48455 -14.47833 -14.46765 -14.46543
 Alpha  occ. eigenvalues --  -14.46023 -14.44014 -14.42912 -14.42743 -14.42650
 Alpha  occ. eigenvalues --  -14.42635 -14.42021 -14.41915 -14.41125 -14.40683
 Alpha  occ. eigenvalues --  -10.45583 -10.41085 -10.40063 -10.38170 -10.38129
 Alpha  occ. eigenvalues --  -10.37560 -10.36695 -10.36389 -10.35981 -10.35702
 Alpha  occ. eigenvalues --  -10.35286 -10.34543 -10.34389 -10.34218 -10.34060
 Alpha  occ. eigenvalues --  -10.33242 -10.33090 -10.31990 -10.31023 -10.30950
 Alpha  occ. eigenvalues --  -10.30187 -10.29731 -10.27991  -1.19573  -1.13846
 Alpha  occ. eigenvalues --   -1.13143  -1.12987  -1.12571  -1.10426  -1.09449
 Alpha  occ. eigenvalues --   -1.08481  -1.07505  -1.06011  -1.03031  -1.02535
 Alpha  occ. eigenvalues --   -1.01425  -0.99640  -0.99558  -0.98414  -0.98078
 Alpha  occ. eigenvalues --   -0.96320  -0.95163  -0.93614  -0.90989  -0.86309
 Alpha  occ. eigenvalues --   -0.85073  -0.84819  -0.84054  -0.83863  -0.83395
 Alpha  occ. eigenvalues --   -0.82093  -0.78884  -0.75546  -0.74438  -0.73925
 Alpha  occ. eigenvalues --   -0.73552  -0.73366  -0.73281  -0.72114  -0.68897
 Alpha  occ. eigenvalues --   -0.67330  -0.67243  -0.66575  -0.65204  -0.64453
 Alpha  occ. eigenvalues --   -0.63725  -0.63618  -0.62733  -0.62551  -0.61589
 Alpha  occ. eigenvalues --   -0.61122  -0.60817  -0.59534  -0.59124  -0.58283
 Alpha  occ. eigenvalues --   -0.58229  -0.57879  -0.57657  -0.57373  -0.56375
 Alpha  occ. eigenvalues --   -0.56191  -0.55998  -0.54867  -0.54403  -0.54111
 Alpha  occ. eigenvalues --   -0.53652  -0.53485  -0.52890  -0.52863  -0.52682
 Alpha  occ. eigenvalues --   -0.52247  -0.51985  -0.51676  -0.51474  -0.51160
 Alpha  occ. eigenvalues --   -0.50047  -0.49991  -0.49461  -0.48684  -0.48627
 Alpha  occ. eigenvalues --   -0.48367  -0.48166  -0.47951  -0.47931  -0.47766
 Alpha  occ. eigenvalues --   -0.47354  -0.45934  -0.45185  -0.44067  -0.43102
 Alpha  occ. eigenvalues --   -0.42066  -0.39554  -0.39348  -0.38257  -0.37185
 Alpha  occ. eigenvalues --   -0.37132  -0.36552  -0.36106  -0.35621  -0.34691
 Alpha  occ. eigenvalues --   -0.34559  -0.34245  -0.33199  -0.33129  -0.32805
 Alpha  occ. eigenvalues --   -0.32628  -0.32294  -0.31927  -0.31825  -0.31704
 Alpha  occ. eigenvalues --   -0.31326  -0.28150  -0.26744  -0.25333
 Alpha virt. eigenvalues --    0.02990   0.05574   0.06828   0.08126   0.08913
 Alpha virt. eigenvalues --    0.09078   0.09790   0.10175   0.10909   0.12133
 Alpha virt. eigenvalues --    0.12934   0.13189   0.14580   0.14808   0.15201

 Mulliken charges:
               1
     1  N   -0.310273
     2  C    0.180050
     3  C    0.036359
     4  N   -0.253118
     5  C    0.128505
     6  H    0.029770
     7  N   -0.275700
     8  C    0.129839
     9  H    0.018354
    10  N   -0.290197
    11  C    0.234474
    12  C    0.091170
    13  N   -0.034752
    14  H    0.108466
    15  H    0.089271
    16  H    0.029189
    17  H    0.036101
    18  H    0.025310
    19  N   -0.300581
    20  C    0.252916
    21  C    0.185377
    22  N   -0.116532
    23  H    0.112806
    24  H    0.117147
    25  N   -0.302561
    26  C    0.233813
    27  N   -0.129297
    28  H    0.119241
    29  C    0.158769
    30  O   -0.325324
    31  C   -0.003362
    32  N   -0.227539
    33  C    0.119947
    34  H    0.026701
    35  H    0.021569
    36  H    0.027903
    37  H    0.020870
    38  H    0.053614
    39  H    0.065646
    40  H    0.077905
    41  H    0.029043
    42  C   -0.075127
    43  O   -0.270613
    44  C    0.180127
    45  H    0.133947
    46  N   -0.126099
    47  O   -0.347643
    48  C    0.340850
    49  H    0.042630
    50  C    0.153429
    51  C    0.035676
    52  N   -0.283889
    53  H    0.032224
    54  H    0.038173
    55  H   -0.000412
    56  H    0.117493
    57  H    0.120883
    58  N   -0.051431
    59  C    0.128496
    60  C    0.225429
    61  N   -0.276620
    62  H    0.033751
    63  C    0.161969
    64  N   -0.305733
    65  H    0.024219
    66  C    0.117697
    67  N   -0.246912
    68  C    0.016400
    69  C    0.188395
    70  N   -0.298197
 Sum of Mulliken charges =  -0.00000

 Dipole moment (field-independent basis, Debye):
    X=              4.4125    Y=              5.2974    Z=              4.8115  Tot=              8.4074
 Quadrupole moment (field-independent basis, Debye-Ang):
   XX=           -140.9614   YY=           -226.2832   ZZ=           -256.9283
   XY=             13.2995   XZ=             22.6932   YZ=              2.0635

 Normal termination of Gaussian 16 at Thu Jan 18 13:52:59 2018.
