 Gaussian 16, Revision A.03,
 Gaussian 16:  EM64L-G16RevA.03 25-Dec-2016

 ---------------------------------------
 #p wb97xd/cc-pvdz sp scf=(maxcycles=20)
 ---------------------------------------

 ------------------
 Base pair stacking
 ------------------
 Symbolic Z-matrix:
 Charge =  0 Multiplicity = 1

                         Standard orientation:
 ---------------------------------------------------------------------
 Center     Atomic      Atomic             Coordinates (Angstroms)
 Number     Number       Type             X           Y           Z
 ---------------------------------------------------------------------
      1          7           0       -5.725390   -1.681921    0.390678
      2          6           0       -6.999550   -1.467932    1.103935
      3          6           0       -3.587668   -1.833125   -0.103873
      4          7           0       -4.278045   -2.173232   -1.258177
      5          6           0       -5.538322   -2.068526   -0.914027
      6          1           0       -6.380691   -2.263273   -1.578430
      7          7           0       -1.860903   -1.380723    1.437741
      8          6           0       -2.825785   -1.116050    2.324606
      9          1           0       -2.479588   -0.823677    3.315026
     10          7           0       -4.147890   -1.158106    2.172428
     11          6           0       -4.466373   -1.527822    0.920910
     12          6           0       -2.213848   -1.750101    0.187113
     13          7           0       -1.252135   -2.014730   -0.699587
     14          1           0       -1.467311   -2.291622   -1.636733
     15          1           0       -0.284295   -1.945254   -0.457497
     16          1           0       -7.528178   -2.316887    1.106800
     17          1           0       -6.812615   -1.189630    2.045601
     18          1           0       -7.524903   -0.751727    0.644533
     19          7           0       -4.484541    1.888346   -0.452000
     20          6           0       -3.145290    2.024838   -0.176640
     21          6           0       -5.584119    2.452348    0.356414
     22          7           0       -0.599187    3.258579    1.837559
     23          1           0        0.400035    3.239502    1.857991
     24          1           0       -1.058677    3.755096    2.574487
     25          7           0       -2.613122    2.691769    0.870279
     26          6           0       -1.292698    2.646149    0.866025
     27          7           0       -0.548482    1.997553   -0.089469
     28          1           0        0.456902    2.014984   -0.012877
     29          6           0       -1.074833    1.304966   -1.175360
     30          8           0       -0.314869    0.753692   -1.981148
     31          6           0       -2.492287    1.345118   -1.184297
     32          7           0       -3.403259    0.792998   -2.074349
     33          6           0       -4.569193    1.140273   -1.600857
     34          1           0       -5.526300    0.876428   -2.052103
     35          1           0       -6.169056    1.713146    0.688424
     36          1           0       -5.202023    2.948668    1.134829
     37          1           0       -6.124743    3.078772   -0.204065
     38          1           0        5.371647    1.930036    1.287421
     39          1           0        5.491635    3.235143    0.109727
     40          1           0        4.010342    3.025030    1.044069
     41          1           0        5.310369   -0.578851   -2.817250
     42          6           0        4.638019    0.029206   -2.211909
     43          8           0        2.670314   -0.754089   -3.280421
     44          6           0        3.227479   -0.047555   -2.440682
     45          1           0        1.466147    0.735199   -1.752690
     46          7           0        2.467461    0.762098   -1.620872
     47          8           0        2.170120    2.285398    0.036935
     48          6           0        2.922650    1.606176   -0.639097
     49          1           0        6.176015    0.937996   -1.048109
     50          6           0        5.112159    0.843204   -1.261542
     51          6           0        4.827205    2.511923    0.558687
     52          7           0        4.294215    1.624687   -0.478846
     53          1           0        5.610138   -0.829451    3.999362
     54          1           0        4.320922    0.145110    3.775201
     55          1           0        5.791791    0.600129    3.233377
     56          1           0        2.019484   -2.761410   -2.200662
     57          1           0        3.712751   -2.888025   -2.036539
     58          7           0        2.839936   -2.575853   -1.659764
     59          6           0        2.774140   -1.940440   -0.487968
     60          6           0        3.669736   -0.989540    1.500865
     61          7           0        2.483833   -0.581729    1.982273
     62          1           0        0.502702   -0.611387    1.458012
     63          6           0        1.502604   -0.906646    1.142915
     64          7           0        1.566457   -1.543042   -0.031180
     65          1           0        6.871731   -1.430946    1.433782
     66          6           0        5.803041   -1.410916    1.218298
     67          7           0        5.250072   -1.916371    0.142934
     68          6           0        3.897593   -1.655977    0.309447
     69          6           0        5.178844   -0.177111    3.376118
     70          7           0        4.905300   -0.834305    2.083336
 ---------------------------------------------------------------------

 SCF Done:  E(RwB97XD) =  -2048.73478311     A.U. after   15 cycles

 The electronic state is 1-A.
 Alpha  occ. eigenvalues --  -19.25653 -19.21652 -19.20754 -14.52423 -14.51841
 Alpha  occ. eigenvalues --  -14.49188 -14.48934 -14.47683 -14.47005 -14.46741
 Alpha  occ. eigenvalues --  -14.46135 -14.44644 -14.43415 -14.43155 -14.42366
 Alpha  occ. eigenvalues --  -14.42078 -14.41604 -14.41213 -14.40895 -14.40530
 Alpha  occ. eigenvalues --  -10.45301 -10.41304 -10.39884 -10.38574 -10.38371
 Alpha  occ. eigenvalues --  -10.37366 -10.37297 -10.36443 -10.35706 -10.35446
 Alpha  occ. eigenvalues --  -10.34984 -10.34450 -10.34330 -10.33730 -10.33652
 Alpha  occ. eigenvalues --  -10.33409 -10.33400 -10.31703 -10.31620 -10.31117
 Alpha  occ. eigenvalues --  -10.30584 -10.28818 -10.28206  -1.19276  -1.14513
 Alpha  occ. eigenvalues --   -1.13303  -1.13113  -1.11712  -1.10702  -1.09223
 Alpha  occ. eigenvalues --   -1.08662  -1.08098  -1.05319  -1.03636  -1.02424
 Alpha  occ. eigenvalues --   -1.00678  -1.00163  -0.99822  -0.98613  -0.97292
 Alpha  occ. eigenvalues --   -0.96686  -0.95754  -0.92951  -0.90743  -0.86897
 Alpha  occ. eigenvalues --   -0.85333  -0.84368  -0.84192  -0.83695  -0.82784
 Alpha  occ. eigenvalues --   -0.82615  -0.78691  -0.76112  -0.74730  -0.73925
 Alpha  occ. eigenvalues --   -0.73700  -0.73226  -0.73200  -0.71354  -0.69429
 Alpha  occ. eigenvalues --   -0.67468  -0.66609  -0.66370  -0.65805  -0.64452
 Alpha  occ. eigenvalues --   -0.63815  -0.63266  -0.62939  -0.62697  -0.61831
 Alpha  occ. eigenvalues --   -0.60864  -0.60532  -0.59579  -0.59307  -0.58589
 Alpha  occ. eigenvalues --   -0.58453  -0.58399  -0.57523  -0.56844  -0.56293
 Alpha  occ. eigenvalues --   -0.55889  -0.55634  -0.55254  -0.54659  -0.54285
 Alpha  occ. eigenvalues --   -0.53769  -0.53662  -0.53047  -0.52931  -0.52442
 Alpha  occ. eigenvalues --   -0.52206  -0.52153  -0.52016  -0.51208  -0.50577
 Alpha  occ. eigenvalues --   -0.50324  -0.49944  -0.49545  -0.49342  -0.48938
 Alpha  occ. eigenvalues --   -0.48911  -0.48447  -0.47711  -0.47553  -0.47474
 Alpha  occ. eigenvalues --   -0.47266  -0.46097  -0.45122  -0.43430  -0.42696
 Alpha  occ. eigenvalues --   -0.41390  -0.39920  -0.39307  -0.37743  -0.37471
 Alpha  occ. eigenvalues --   -0.37292  -0.37155  -0.36651  -0.35797  -0.34481
 Alpha  occ. eigenvalues --   -0.33971  -0.33722  -0.33524  -0.33390  -0.33159
 Alpha  occ. eigenvalues --   -0.32734  -0.32403  -0.31955  -0.31302  -0.31206
 Alpha  occ. eigenvalues --   -0.30664  -0.28188  -0.26356  -0.25233
 Alpha virt. eigenvalues --    0.03025   0.04680   0.07446   0.07987   0.08720
 Alpha virt. eigenvalues --    0.09172   0.09654   0.10685   0.10907   0.11854
 Alpha virt. eigenvalues --    0.13041   0.13778   0.14109   0.14432   0.14859

 Mulliken charges:
               1
     1  N   -0.307911
     2  C    0.178611
     3  C    0.044911
     4  N   -0.235704
     5  C    0.115363
     6  H    0.024474
     7  N   -0.292249
     8  C    0.138043
     9  H    0.012488
    10  N   -0.289832
    11  C    0.237179
    12  C    0.088539
    13  N   -0.039946
    14  H    0.114199
    15  H    0.090287
    16  H    0.028738
    17  H    0.035017
    18  H    0.021009
    19  N   -0.304309
    20  C    0.258052
    21  C    0.183493
    22  N   -0.124095
    23  H    0.117418
    24  H    0.119011
    25  N   -0.310268
    26  C    0.247599
    27  N   -0.147382
    28  H    0.119007
    29  C    0.191966
    30  O   -0.328419
    31  C   -0.025533
    32  N   -0.214121
    33  C    0.127953
    34  H    0.019208
    35  H    0.019188
    36  H    0.032156
    37  H    0.023957
    38  H    0.042035
    39  H    0.061528
    40  H    0.077948
    41  H    0.021691
    42  C   -0.072695
    43  O   -0.282520
    44  C    0.140902
    45  H    0.133273
    46  N   -0.106700
    47  O   -0.348211
    48  C    0.342426
    49  H    0.041282
    50  C    0.175038
    51  C    0.045897
    52  N   -0.278648
    53  H    0.034061
    54  H    0.041783
    55  H    0.020507
    56  H    0.125546
    57  H    0.113298
    58  N   -0.013738
    59  C    0.060045
    60  C    0.236196
    61  N   -0.270771
    62  H    0.028082
    63  C    0.158666
    64  N   -0.296146
    65  H    0.032085
    66  C    0.113750
    67  N   -0.248185
    68  C    0.030530
    69  C    0.178913
    70  N   -0.305966
 Sum of Mulliken charges =  -0.00000

 Dipole moment (field-independent basis, Debye):
    X=              4.8192    Y=              4.2339    Z=              6.1318  Tot=              8.8741
 Quadrupole moment (field-independent basis, Debye-Ang):
   XX=           -145.2226   YY=           -231.2943   ZZ=           -252.3493
   XY=              6.5952   XZ=             12.7525   YZ=             13.7174

 Normal termination of Gaussian 16 at Thu Jan 18 01:32:11 2018.
