 Gaussian 16, Revision A.03,
 Gaussian 16:  EM64L-G16RevA.03 25-Dec-2016

 ---------------------------------------
 #p wb97xd/cc-pvdz sp scf=(maxcycles=20)
 ---------------------------------------

 ------------------
 Base pair stacking
 ------------------
 Symbolic Z-matrix:
 Charge =  0 Multiplicity = 1

                         Standard orientation:
 ---------------------------------------------------------------------
 Center     Atomic      Atomic             Coordinates (Angstroms)
 Number     Number       Type             X           Y           Z
 ---------------------------------------------------------------------
      1          7           0        4.569483    0.269379    1.806750
      2          6           0        5.846862   -0.469233    1.778918
      3          6           0        2.431442    0.782785    1.756917
      4          7           0        3.112451    1.975369    1.953684
      5          6           0        4.373288    1.618324    1.975825
      6          1           0        5.209584    2.304302    2.113613
      7          7           0        0.718420   -0.809123    1.449782
      8          6           0        1.688238   -1.726894    1.381032
      9          1           0        1.349705   -2.750402    1.225781
     10          7           0        3.007241   -1.570923    1.474834
     11          6           0        3.316212   -0.277469    1.664458
     12          6           0        1.061816    0.483366    1.641188
     13          7           0        0.095154    1.400972    1.710092
     14          1           0        0.303243    2.369533    1.850807
     15          1           0       -0.869469    1.151686    1.623462
     16          1           0        6.326578   -0.341047    2.647030
     17          1           0        5.667001   -1.442494    1.639140
     18          1           0        6.416228   -0.126548    1.031668
     19          7           0        5.635219   -0.321917   -0.904662
     20          6           0        4.298545   -0.632690   -0.973655
     21          6           0        6.721604   -1.282190   -0.624740
     22          7           0        1.741367   -2.974969   -0.783084
     23          1           0        0.746036   -2.989464   -0.874493
     24          1           0        2.191059   -3.845162   -0.579967
     25          7           0        3.757350   -1.857662   -0.798732
     26          6           0        2.442423   -1.840099   -0.926264
     27          7           0        1.711509   -0.710403   -1.203860
     28          1           0        0.709458   -0.790827   -1.283741
     29          6           0        2.247328    0.560410   -1.387759
     30          8           0        1.499139    1.514367   -1.634548
     31          6           0        3.659031    0.557421   -1.253761
     32          7           0        4.575781    1.594491   -1.358504
     33          6           0        5.731835    1.027083   -1.144508
     34          1           0        6.689825    1.548141   -1.150121
     35          1           0        7.207755   -1.005871    0.203570
     36          1           0        6.332738   -2.193126   -0.493371
     37          1           0        7.358810   -1.300795   -1.394433
     38          1           0       -4.272735   -1.737569   -0.917446
     39          1           0       -4.181768   -1.785110   -2.676447
     40          1           0       -2.799291   -2.298300   -1.708592
     41          1           0       -4.151386    2.966166   -1.920812
     42          6           0       -3.470152    2.117193   -1.862626
     43          8           0       -1.513277    3.456428   -1.797633
     44          6           0       -2.060410    2.353957   -1.796126
     45          1           0       -0.287454    1.338707   -1.676996
     46          7           0       -1.288595    1.211801   -1.725336
     47          8           0       -0.969305   -1.035258   -1.648087
     48          6           0       -1.731749   -0.087053   -1.713149
     49          1           0       -4.995427    0.627947   -1.901256
     50          6           0       -3.932691    0.861581   -1.852608
     51          6           0       -3.623699   -1.603530   -1.770002
     52          7           0       -3.103346   -0.233540   -1.780119
     53          1           0       -6.733551   -3.420255    0.873264
     54          1           0       -5.389209   -3.350464   -0.048675
     55          1           0       -6.826766   -2.884606   -0.665503
     56          1           0       -3.199007    3.001667    2.027122
     57          1           0       -4.898208    2.860237    2.080248
     58          7           0       -4.012770    2.439112    1.880591
     59          6           0       -3.922314    1.183061    1.438621
     60          6           0       -4.781594   -0.928362    0.756531
     61          7           0       -3.579164   -1.467866    0.496655
     62          1           0       -1.597973   -0.946641    0.558550
     63          6           0       -2.609926   -0.588994    0.743758
     64          7           0       -2.698488    0.669482    1.186456
     65          1           0       -8.002651   -0.791672    0.997919
     66          6           0       -6.932528   -0.582592    1.006176
     67          7           0       -6.398812    0.557671    1.370341
     68          6           0       -5.035420    0.351975    1.216782
     69          6           0       -6.260135   -2.905751    0.158306
     70          7           0       -6.011889   -1.527035    0.622530
 ---------------------------------------------------------------------

 SCF Done:  E(RwB97XD) =  -2048.61157325     A.U. after   16 cycles

 The electronic state is 1-A.
 Alpha  occ. eigenvalues --  -19.24968 -19.21099 -19.20764 -14.53213 -14.51374
 Alpha  occ. eigenvalues --  -14.49465 -14.49067 -14.48412 -14.47014 -14.46826
 Alpha  occ. eigenvalues --  -14.46793 -14.45772 -14.44613 -14.44434 -14.43012
 Alpha  occ. eigenvalues --  -14.41770 -14.41639 -14.41576 -14.41190 -14.40797
 Alpha  occ. eigenvalues --  -10.44575 -10.41217 -10.40290 -10.39217 -10.38390
 Alpha  occ. eigenvalues --  -10.38333 -10.37633 -10.36793 -10.36054 -10.35956
 Alpha  occ. eigenvalues --  -10.34709 -10.34652 -10.34420 -10.34095 -10.33852
 Alpha  occ. eigenvalues --  -10.33149 -10.33120 -10.32014 -10.31675 -10.30941
 Alpha  occ. eigenvalues --  -10.30109 -10.28963 -10.28529  -1.18713  -1.15924
 Alpha  occ. eigenvalues --   -1.13766  -1.12141  -1.11760  -1.11221  -1.09975
 Alpha  occ. eigenvalues --   -1.09123  -1.08326  -1.05635  -1.05609  -1.01569
 Alpha  occ. eigenvalues --   -1.01516  -1.01233  -1.00251  -0.98971  -0.97804
 Alpha  occ. eigenvalues --   -0.97707  -0.97041  -0.93358  -0.90031  -0.88198
 Alpha  occ. eigenvalues --   -0.86582  -0.85846  -0.84026  -0.83923  -0.82382
 Alpha  occ. eigenvalues --   -0.82282  -0.77977  -0.77513  -0.75790  -0.75214
 Alpha  occ. eigenvalues --   -0.74042  -0.73471  -0.72455  -0.71786  -0.70940
 Alpha  occ. eigenvalues --   -0.67930  -0.67540  -0.67021  -0.65635  -0.64922
 Alpha  occ. eigenvalues --   -0.64794  -0.63667  -0.63307  -0.62880  -0.62234
 Alpha  occ. eigenvalues --   -0.61893  -0.61808  -0.61155  -0.60565  -0.60038
 Alpha  occ. eigenvalues --   -0.59410  -0.58898  -0.58578  -0.57863  -0.56406
 Alpha  occ. eigenvalues --   -0.56291  -0.55992  -0.55677  -0.54664  -0.54476
 Alpha  occ. eigenvalues --   -0.54037  -0.53589  -0.53543  -0.53180  -0.52937
 Alpha  occ. eigenvalues --   -0.52565  -0.52078  -0.51363  -0.50937  -0.50581
 Alpha  occ. eigenvalues --   -0.50363  -0.49799  -0.49416  -0.49408  -0.49210
 Alpha  occ. eigenvalues --   -0.48877  -0.48605  -0.47949  -0.47447  -0.47397
 Alpha  occ. eigenvalues --   -0.46995  -0.46392  -0.44518  -0.43809  -0.43117
 Alpha  occ. eigenvalues --   -0.40282  -0.40075  -0.39354  -0.38819  -0.38097
 Alpha  occ. eigenvalues --   -0.37795  -0.37452  -0.36618  -0.35507  -0.35025
 Alpha  occ. eigenvalues --   -0.34546  -0.33911  -0.33893  -0.33372  -0.33360
 Alpha  occ. eigenvalues --   -0.33100  -0.32391  -0.31995  -0.31131  -0.30850
 Alpha  occ. eigenvalues --   -0.30109  -0.29758  -0.27570  -0.23967
 Alpha virt. eigenvalues --    0.03337   0.04200   0.06516   0.06913   0.07961
 Alpha virt. eigenvalues --    0.09064   0.09201   0.10044   0.11337   0.12568
 Alpha virt. eigenvalues --    0.12614   0.13281   0.14038   0.14512   0.14876

 Mulliken charges:
               1
     1  N   -0.289944
     2  C    0.203148
     3  C    0.065470
     4  N   -0.248780
     5  C    0.142590
     6  H    0.025915
     7  N   -0.268195
     8  C    0.115211
     9  H   -0.002826
    10  N   -0.258671
    11  C    0.204437
    12  C    0.066180
    13  N   -0.055188
    14  H    0.111038
    15  H    0.083775
    16  H    0.019130
    17  H    0.026738
    18  H    0.009474
    19  N   -0.302907
    20  C    0.195299
    21  C    0.173759
    22  N   -0.079463
    23  H    0.123461
    24  H    0.122557
    25  N   -0.225465
    26  C    0.117067
    27  N   -0.085051
    28  H    0.122685
    29  C    0.167056
    30  O   -0.316926
    31  C    0.017991
    32  N   -0.207884
    33  C    0.098723
    34  H    0.023970
    35  H    0.010962
    36  H    0.038887
    37  H    0.023149
    38  H    0.038705
    39  H    0.024381
    40  H    0.064853
    41  H    0.023298
    42  C   -0.097542
    43  O   -0.270959
    44  C    0.178016
    45  H    0.130063
    46  N   -0.114818
    47  O   -0.339917
    48  C    0.303007
    49  H    0.044486
    50  C    0.153097
    51  C    0.098793
    52  N   -0.270015
    53  H    0.035727
    54  H    0.051119
    55  H    0.030214
    56  H    0.122822
    57  H    0.121169
    58  N   -0.065512
    59  C    0.118683
    60  C    0.236536
    61  N   -0.302850
    62  H    0.040624
    63  C    0.160694
    64  N   -0.308224
    65  H    0.040796
    66  C    0.138844
    67  N   -0.254484
    68  C    0.035613
    69  C    0.183898
    70  N   -0.318491
 Sum of Mulliken charges =  -0.00000

 Dipole moment (field-independent basis, Debye):
    X=             -5.1788    Y=             -8.1591    Z=              1.9757  Tot=              9.8638
 Quadrupole moment (field-independent basis, Debye-Ang):
   XX=           -146.1146   YY=           -240.1421   ZZ=           -252.7701
   XY=              2.4920   XZ=             10.8968   YZ=             20.4598

 Normal termination of Gaussian 16 at Thu Jan 18 09:08:07 2018.
