 Gaussian 16, Revision A.03,
 Gaussian 16:  EM64L-G16RevA.03 25-Dec-2016

 ---------------------------------------
 #p wb97xd/cc-pvdz sp scf=(maxcycles=20)
 ---------------------------------------

 ------------------
 Base pair stacking
 ------------------
 Symbolic Z-matrix:
 Charge =  0 Multiplicity = 1

                         Standard orientation:
 ---------------------------------------------------------------------
 Center     Atomic      Atomic             Coordinates (Angstroms)
 Number     Number       Type             X           Y           Z
 ---------------------------------------------------------------------
      1          7           0       -7.069845   -0.590836    0.266428
      2          6           0       -8.313636    0.179173    0.461564
      3          6           0       -4.969073   -1.241523    0.292327
      4          7           0       -5.673726   -2.231403   -0.377242
      5          6           0       -6.911159   -1.799772   -0.366042
      6          1           0       -7.756099   -2.328098   -0.808633
      7          7           0       -3.233443    0.005565    1.289979
      8          6           0       -4.168415    0.905330    1.612224
      9          1           0       -3.806855    1.777586    2.155083
     10          7           0       -5.476801    0.889456    1.365719
     11          6           0       -5.816210   -0.223832    0.695046
     12          6           0       -3.606861   -1.103695    0.615319
     13          7           0       -2.675006   -2.003019    0.292745
     14          1           0       -2.906153   -2.838818   -0.206468
     15          1           0       -1.714607   -1.872045    0.538950
     16          1           0       -8.966869   -0.367375    0.985711
     17          1           0       -8.110277    1.021737    0.959426
     18          1           0       -8.710126    0.406931   -0.427776
     19          7           0       -3.003233    1.512871   -1.462584
     20          6           0       -1.677197    1.664897   -1.136160
     21          6           0       -4.088539    2.437435   -1.077866
     22          7           0        0.848721    3.466090    0.424997
     23          1           0        1.837488    3.391836    0.551819
     24          1           0        0.396524    4.257284    0.837587
     25          7           0       -1.147167    2.676305   -0.414921
     26          6           0        0.159315    2.546490   -0.267069
     27          7           0        0.892519    1.506502   -0.785104
     28          1           0        1.887556    1.488648   -0.622154
     29          6           0        0.368121    0.455026   -1.530261
     30          8           0        1.117407   -0.434592   -1.952041
     31          6           0       -1.034419    0.580681   -1.697505
     32          7           0       -1.938725   -0.235592   -2.362959
     33          6           0       -3.090801    0.355538   -2.197120
     34          1           0       -4.039298   -0.011228   -2.590955
     35          1           0       -4.765675    1.949020   -0.528563
     36          1           0       -3.707896    3.190738   -0.543157
     37          1           0       -4.525851    2.801081   -1.899658
     38          1           0        6.675701    1.640283    1.081777
     39          1           0        7.002553    2.311738   -0.514139
     40          1           0        5.451360    2.615592    0.268693
     41          1           0        6.618991   -2.362574   -1.586658
     42          6           0        5.975173   -1.512433   -1.360835
     43          8           0        4.009501   -2.543722   -2.197310
     44          6           0        4.581512   -1.586061   -1.677237
     45          1           0        2.869178   -0.471493   -1.558994
     46          7           0        3.857635   -0.457124   -1.350506
     47          8           0        3.612814    1.641388   -0.517733
     48          6           0        4.333438    0.691717   -0.769697
     49          1           0        7.521020   -0.299130   -0.533762
     50          6           0        6.468704   -0.405332   -0.793959
     51          6           0        6.240721    1.892593    0.126163
     52          7           0        5.686811    0.686236   -0.494836
     53          1           0        4.164678    1.515687    3.671101
     54          1           0        3.047561    2.160897    2.672162
     55          1           0        4.584504    1.964182    2.159134
     56          1           0        0.479676   -3.885903    0.162661
     57          1           0        2.128299   -4.014180    0.581813
     58          7           0        1.304732   -3.449120    0.521327
     59          6           0        1.307667   -2.170050    0.902318
     60          6           0        2.287799   -0.181024    1.765358
     61          7           0        1.167072    0.553722    1.672884
     62          1           0       -0.780721    0.344515    1.070444
     63          6           0        0.169386   -0.176787    1.179042
     64          7           0        0.164454   -1.457998    0.796859
     65          1           0        5.383930   -0.831748    2.430713
     66          6           0        4.337053   -0.871800    2.128435
     67          7           0        3.740550   -1.934868    1.647016
     68          6           0        2.440655   -1.510582    1.412574
     69          6           0        3.855444    1.574403    2.721926
     70          7           0        3.517102    0.225769    2.227233
 ---------------------------------------------------------------------

 SCF Done:  E(RwB97XD) =  -2048.73932130     A.U. after   15 cycles

 The electronic state is 1-A.
 Alpha  occ. eigenvalues --  -19.26158 -19.21952 -19.20515 -14.52789 -14.51133
 Alpha  occ. eigenvalues --  -14.50248 -14.48188 -14.47916 -14.46388 -14.46374
 Alpha  occ. eigenvalues --  -14.46332 -14.43966 -14.43347 -14.42944 -14.42802
 Alpha  occ. eigenvalues --  -14.42609 -14.42321 -14.41824 -14.41494 -14.40529
 Alpha  occ. eigenvalues --  -10.45747 -10.40859 -10.40060 -10.38275 -10.38043
 Alpha  occ. eigenvalues --  -10.37788 -10.36802 -10.36656 -10.36199 -10.35713
 Alpha  occ. eigenvalues --  -10.35575 -10.34898 -10.34420 -10.34403 -10.34030
 Alpha  occ. eigenvalues --  -10.33197 -10.32927 -10.32159 -10.31158 -10.31050
 Alpha  occ. eigenvalues --  -10.30108 -10.29573 -10.27876  -1.19768  -1.13820
 Alpha  occ. eigenvalues --   -1.13033  -1.12975  -1.12873  -1.10266  -1.09629
 Alpha  occ. eigenvalues --   -1.08337  -1.07642  -1.06423  -1.03202  -1.02598
 Alpha  occ. eigenvalues --   -1.01848  -0.99586  -0.99447  -0.98388  -0.98263
 Alpha  occ. eigenvalues --   -0.96124  -0.95285  -0.94023  -0.91199  -0.86339
 Alpha  occ. eigenvalues --   -0.85392  -0.84899  -0.84196  -0.83715  -0.83664
 Alpha  occ. eigenvalues --   -0.81804  -0.79045  -0.75640  -0.74402  -0.74183
 Alpha  occ. eigenvalues --   -0.73541  -0.73420  -0.73275  -0.72490  -0.69014
 Alpha  occ. eigenvalues --   -0.67679  -0.67133  -0.66672  -0.65349  -0.64576
 Alpha  occ. eigenvalues --   -0.64085  -0.63459  -0.62863  -0.62504  -0.61471
 Alpha  occ. eigenvalues --   -0.61408  -0.61038  -0.59648  -0.59273  -0.58510
 Alpha  occ. eigenvalues --   -0.58102  -0.57947  -0.57862  -0.57651  -0.56655
 Alpha  occ. eigenvalues --   -0.56419  -0.56066  -0.54993  -0.54493  -0.54150
 Alpha  occ. eigenvalues --   -0.54056  -0.53352  -0.53163  -0.53054  -0.52553
 Alpha  occ. eigenvalues --   -0.52280  -0.51967  -0.51568  -0.51526  -0.51343
 Alpha  occ. eigenvalues --   -0.50353  -0.49889  -0.49498  -0.48623  -0.48546
 Alpha  occ. eigenvalues --   -0.48400  -0.48246  -0.48025  -0.47853  -0.47711
 Alpha  occ. eigenvalues --   -0.47272  -0.46179  -0.45255  -0.44262  -0.43010
 Alpha  occ. eigenvalues --   -0.42016  -0.39733  -0.39510  -0.38615  -0.37086
 Alpha  occ. eigenvalues --   -0.37059  -0.36565  -0.35954  -0.35463  -0.34935
 Alpha  occ. eigenvalues --   -0.34868  -0.34342  -0.33232  -0.33134  -0.33043
 Alpha  occ. eigenvalues --   -0.32619  -0.32495  -0.31960  -0.31797  -0.31709
 Alpha  occ. eigenvalues --   -0.31520  -0.28029  -0.27019  -0.25241
 Alpha virt. eigenvalues --    0.03034   0.05213   0.06327   0.08077   0.08703
 Alpha virt. eigenvalues --    0.08913   0.09878   0.10080   0.11079   0.12218
 Alpha virt. eigenvalues --    0.12568   0.13081   0.14659   0.14946   0.15122

 Mulliken charges:
               1
     1  N   -0.310751
     2  C    0.180161
     3  C    0.039066
     4  N   -0.255666
     5  C    0.132524
     6  H    0.031209
     7  N   -0.263891
     8  C    0.114947
     9  H    0.022143
    10  N   -0.286341
    11  C    0.234550
    12  C    0.082198
    13  N   -0.034138
    14  H    0.107622
    15  H    0.090247
    16  H    0.029461
    17  H    0.036297
    18  H    0.026889
    19  N   -0.294565
    20  C    0.238664
    21  C    0.192722
    22  N   -0.105081
    23  H    0.110408
    24  H    0.114937
    25  N   -0.293011
    26  C    0.217402
    27  N   -0.111498
    28  H    0.119817
    29  C    0.134214
    30  O   -0.323913
    31  C    0.009362
    32  N   -0.225156
    33  C    0.113888
    34  H    0.027180
    35  H    0.018348
    36  H    0.024582
    37  H    0.019123
    38  H    0.053685
    39  H    0.066182
    40  H    0.085707
    41  H    0.031920
    42  C   -0.090013
    43  O   -0.265662
    44  C    0.187379
    45  H    0.133262
    46  N   -0.125247
    47  O   -0.347902
    48  C    0.340053
    49  H    0.045113
    50  C    0.156838
    51  C    0.034598
    52  N   -0.285926
    53  H    0.031423
    54  H    0.031474
    55  H   -0.017097
    56  H    0.116396
    57  H    0.121952
    58  N   -0.063625
    59  C    0.141350
    60  C    0.220001
    61  N   -0.275289
    62  H    0.045454
    63  C    0.154434
    64  N   -0.304330
    65  H    0.022725
    66  C    0.110304
    67  N   -0.248231
    68  C    0.025034
    69  C    0.195647
    70  N   -0.291561
 Sum of Mulliken charges =  -0.00000

 Dipole moment (field-independent basis, Debye):
    X=              4.0760    Y=              5.4572    Z=              4.7633  Tot=              8.3117
 Quadrupole moment (field-independent basis, Debye-Ang):
   XX=           -138.5158   YY=           -227.0410   ZZ=           -258.2536
   XY=             18.3219   XZ=             22.7605   YZ=             -2.6433

 Normal termination of Gaussian 16 at Thu Jan 18 14:17:14 2018.
