 Gaussian 16, Revision A.03,
 Gaussian 16:  EM64L-G16RevA.03 25-Dec-2016

 ---------------------------------------
 #p wb97xd/cc-pvdz sp scf=(maxcycles=20)
 ---------------------------------------

 ------------------
 Base pair stacking
 ------------------
 Symbolic Z-matrix:
 Charge =  0 Multiplicity = 1

                         Standard orientation:
 ---------------------------------------------------------------------
 Center     Atomic      Atomic             Coordinates (Angstroms)
 Number     Number       Type             X           Y           Z
 ---------------------------------------------------------------------
      1          7           0        5.109857   -1.941095   -0.572248
      2          6           0        6.376949   -1.765590   -1.308248
      3          6           0        2.979192   -1.996569   -0.029538
      4          7           0        3.676268   -2.425909    1.090495
      5          6           0        4.932011   -2.375305    0.718703
      6          1           0        5.777469   -2.645923    1.351887
      7          7           0        1.244892   -1.380683   -1.504603
      8          6           0        2.202047   -1.129758   -2.403743
      9          1           0        1.849687   -0.774365   -3.371116
     10          7           0        3.522916   -1.251350   -2.287876
     11          6           0        3.849397   -1.694151   -1.062418
     12          6           0        1.605770   -1.824995   -0.280907
     13          7           0        0.651759   -2.076029    0.617995
     14          1           0        0.872970   -2.406368    1.536231
     15          1           0       -0.316062   -1.942528    0.404345
     16          1           0        6.856861   -2.641362   -1.361960
     17          1           0        6.183897   -1.435203   -2.231661
     18          1           0        6.952312   -1.100859   -0.831711
     19          7           0        5.105455    1.515123    0.338317
     20          6           0        3.769833    1.726188    0.094122
     21          6           0        6.213670    1.973370   -0.523414
     22          7           0        1.247401    3.037484   -1.900761
     23          1           0        0.248796    3.082002   -1.892981
     24          1           0        1.714983    3.472607   -2.670659
     25          7           0        3.249641    2.382372   -0.965535
     26          6           0        1.929701    2.422130   -0.923163
     27          7           0        1.175042    1.862703    0.079362
     28          1           0        0.170929    1.941715    0.029638
     29          6           0        1.688984    1.182915    1.179182
     30          8           0        0.920271    0.715377    2.028438
     31          6           0        3.105770    1.131986    1.147566
     32          7           0        4.006362    0.559410    2.035248
     33          6           0        5.177155    0.811062    1.515517
     34          1           0        6.128799    0.504886    1.951296
     35          1           0        6.740450    1.184975   -0.839235
     36          1           0        5.840473    2.460831   -1.311681
     37          1           0        6.809426    2.586182   -0.005401
     38          1           0       -4.776240    2.120185   -1.130700
     39          1           0       -4.777999    3.477659   -0.007358
     40          1           0       -3.341728    3.134272   -0.972026
     41          1           0       -4.750272   -0.216415    3.074794
     42          6           0       -4.059326    0.321629    2.425693
     43          8           0       -2.113836   -0.542192    3.472592
     44          6           0       -2.650223    0.163622    2.618830
     45          1           0       -0.864419    0.802292    1.849855
     46          7           0       -1.865541    0.888195    1.744471
     47          8           0       -1.522491    2.319679    0.015193
     48          6           0       -2.295784    1.718743    0.740156
     49          1           0       -5.571107    1.278973    1.266452
     50          6           0       -4.509425    1.124685    1.454551
     51          6           0       -4.174422    2.695283   -0.442842
     52          7           0       -3.667624    1.818986    0.616878
     53          1           0       -6.241425   -0.303922   -3.845124
     54          1           0       -4.894622    0.587080   -3.612031
     55          1           0       -6.324515    1.097456   -3.012863
     56          1           0       -2.620528   -2.708478    2.169258
     57          1           0       -4.321602   -2.734159    2.043699
     58          7           0       -3.441718   -2.453809    1.658438
     59          6           0       -3.367848   -1.770746    0.514266
     60          6           0       -4.255013   -0.683187   -1.407158
     61          7           0       -3.059704   -0.319962   -1.900836
     62          1           0       -1.071617   -0.482269   -1.429916
     63          6           0       -2.078854   -0.735952   -1.102227
     64          7           0       -2.150797   -1.420216    0.044152
     65          1           0       -7.474297   -0.950235   -1.276483
     66          6           0       -6.401408   -0.998821   -1.088100
     67          7           0       -5.852623   -1.581965   -0.050584
     68          6           0       -4.491936   -1.389170   -0.240549
     69          6           0       -5.759688    0.294888   -3.205323
     70          7           0       -5.493229   -0.434039   -1.950067
 ---------------------------------------------------------------------

 SCF Done:  E(RwB97XD) =  -2048.74421783     A.U. after   15 cycles

 The electronic state is 1-A.
 Alpha  occ. eigenvalues --  -19.25492 -19.21787 -19.20738 -14.52317 -14.52053
 Alpha  occ. eigenvalues --  -14.49133 -14.48996 -14.47407 -14.47351 -14.46942
 Alpha  occ. eigenvalues --  -14.46725 -14.45113 -14.44114 -14.43995 -14.42477
 Alpha  occ. eigenvalues --  -14.42079 -14.41279 -14.41243 -14.41136 -14.40681
 Alpha  occ. eigenvalues --  -10.45052 -10.41299 -10.39864 -10.39440 -10.38372
 Alpha  occ. eigenvalues --  -10.37725 -10.37190 -10.36880 -10.35734 -10.35565
 Alpha  occ. eigenvalues --  -10.34962 -10.34555 -10.34105 -10.33933 -10.33644
 Alpha  occ. eigenvalues --  -10.33615 -10.33434 -10.32288 -10.31584 -10.31442
 Alpha  occ. eigenvalues --  -10.30477 -10.28727 -10.28312  -1.19061  -1.14989
 Alpha  occ. eigenvalues --   -1.13334  -1.12861  -1.11531  -1.10844  -1.09020
 Alpha  occ. eigenvalues --   -1.08864  -1.08655  -1.05372  -1.04401  -1.02162
 Alpha  occ. eigenvalues --   -1.00708  -1.00679  -0.99814  -0.98670  -0.97184
 Alpha  occ. eigenvalues --   -0.96834  -0.96513  -0.93028  -0.90593  -0.87379
 Alpha  occ. eigenvalues --   -0.85753  -0.84487  -0.84156  -0.83338  -0.82950
 Alpha  occ. eigenvalues --   -0.82591  -0.78477  -0.76694  -0.74847  -0.74571
 Alpha  occ. eigenvalues --   -0.73726  -0.73167  -0.72967  -0.71323  -0.70027
 Alpha  occ. eigenvalues --   -0.67530  -0.66579  -0.66461  -0.66130  -0.64512
 Alpha  occ. eigenvalues --   -0.63857  -0.63680  -0.62975  -0.62722  -0.61900
 Alpha  occ. eigenvalues --   -0.60842  -0.60594  -0.60119  -0.59265  -0.59112
 Alpha  occ. eigenvalues --   -0.58699  -0.58460  -0.58009  -0.56846  -0.55964
 Alpha  occ. eigenvalues --   -0.55807  -0.55716  -0.55065  -0.54649  -0.54234
 Alpha  occ. eigenvalues --   -0.53983  -0.53686  -0.53427  -0.53141  -0.52830
 Alpha  occ. eigenvalues --   -0.52542  -0.52108  -0.52059  -0.51005  -0.50584
 Alpha  occ. eigenvalues --   -0.50370  -0.49878  -0.49499  -0.49146  -0.49097
 Alpha  occ. eigenvalues --   -0.48970  -0.48477  -0.48095  -0.47585  -0.47373
 Alpha  occ. eigenvalues --   -0.47244  -0.46202  -0.44854  -0.44469  -0.43279
 Alpha  occ. eigenvalues --   -0.41297  -0.40448  -0.39153  -0.37810  -0.37443
 Alpha  occ. eigenvalues --   -0.37382  -0.37185  -0.37148  -0.35900  -0.34609
 Alpha  occ. eigenvalues --   -0.34248  -0.33943  -0.33609  -0.33544  -0.33147
 Alpha  occ. eigenvalues --   -0.32789  -0.32326  -0.31895  -0.31575  -0.31054
 Alpha  occ. eigenvalues --   -0.30666  -0.29512  -0.26836  -0.24780
 Alpha virt. eigenvalues --    0.03084   0.04631   0.06816   0.07224   0.08740
 Alpha virt. eigenvalues --    0.09289   0.09826   0.10725   0.11043   0.11849
 Alpha virt. eigenvalues --    0.12809   0.13668   0.14217   0.14321   0.15187

 Mulliken charges:
               1
     1  N   -0.303937
     2  C    0.181796
     3  C    0.047357
     4  N   -0.234553
     5  C    0.130416
     6  H    0.023478
     7  N   -0.291885
     8  C    0.132231
     9  H    0.010194
    10  N   -0.284393
    11  C    0.238566
    12  C    0.078436
    13  N   -0.042062
    14  H    0.115947
    15  H    0.086048
    16  H    0.027469
    17  H    0.034597
    18  H    0.015996
    19  N   -0.303459
    20  C    0.256330
    21  C    0.186307
    22  N   -0.124578
    23  H    0.118058
    24  H    0.119266
    25  N   -0.307897
    26  C    0.246849
    27  N   -0.142453
    28  H    0.121180
    29  C    0.184007
    30  O   -0.323924
    31  C   -0.014949
    32  N   -0.210298
    33  C    0.112431
    34  H    0.019282
    35  H    0.007209
    36  H    0.034228
    37  H    0.026727
    38  H    0.040869
    39  H    0.057589
    40  H    0.077440
    41  H    0.019010
    42  C   -0.103157
    43  O   -0.279915
    44  C    0.167446
    45  H    0.127279
    46  N   -0.103678
    47  O   -0.350065
    48  C    0.333337
    49  H    0.044915
    50  C    0.174933
    51  C    0.048815
    52  N   -0.274969
    53  H    0.036571
    54  H    0.041465
    55  H    0.028265
    56  H    0.127243
    57  H    0.115977
    58  N   -0.032712
    59  C    0.063737
    60  C    0.224572
    61  N   -0.266215
    62  H    0.028256
    63  C    0.158601
    64  N   -0.295415
    65  H    0.036371
    66  C    0.126527
    67  N   -0.253063
    68  C    0.042847
    69  C    0.175987
    70  N   -0.308879
 Sum of Mulliken charges =  -0.00000

 Dipole moment (field-independent basis, Debye):
    X=             -4.8084    Y=              4.0948    Z=             -6.5318  Tot=              9.0859
 Quadrupole moment (field-independent basis, Debye-Ang):
   XX=           -146.3764   YY=           -230.7210   ZZ=           -254.6596
   XY=             -9.6024   XZ=              5.5675   YZ=            -13.9665

 Normal termination of Gaussian 16 at Wed Jan 17 22:39:19 2018.
