 Gaussian 16, Revision A.03,
 Gaussian 16:  EM64L-G16RevA.03 25-Dec-2016

 ---------------------------------------
 #p wb97xd/cc-pvdz sp scf=(maxcycles=20)
 ---------------------------------------

 ------------------
 Base pair stacking
 ------------------
 Symbolic Z-matrix:
 Charge =  0 Multiplicity = 1

                         Standard orientation:
 ---------------------------------------------------------------------
 Center     Atomic      Atomic             Coordinates (Angstroms)
 Number     Number       Type             X           Y           Z
 ---------------------------------------------------------------------
      1          7           0       -6.571133   -0.942744    0.436138
      2          6           0       -7.837479   -0.332730    0.885859
      3          6           0       -4.445986   -1.464377    0.214843
      4          7           0       -5.133283   -2.235077   -0.711647
      5          6           0       -6.386096   -1.889958   -0.541242
      6          1           0       -7.224144   -2.298548   -1.106632
      7          7           0       -2.727937   -0.498407    1.510272
      8          6           0       -3.686648    0.211363    2.114174
      9          1           0       -3.341694    0.891992    2.891353
     10          7           0       -5.001322    0.206609    1.903177
     11          6           0       -5.318918   -0.662819    0.929699
     12          6           0       -3.079811   -1.364484    0.534994
     13          7           0       -2.124236   -2.073880   -0.069008
     14          1           0       -2.338887   -2.726743   -0.796268
     15          1           0       -1.161743   -1.976988    0.184703
     16          1           0       -8.448618   -1.045566    1.230192
     17          1           0       -7.650912    0.325582    1.614514
     18          1           0       -8.274645    0.136720    0.118723
     19          7           0       -3.562328    1.790442   -1.182585
     20          6           0       -2.229049    1.919876   -0.876507
     21          6           0       -4.648355    2.630980   -0.639689
     22          7           0        0.318124    3.530282    0.849834
     23          1           0        1.311348    3.457512    0.936162
     24          1           0       -0.132376    4.246799    1.383097
     25          7           0       -1.691431    2.829332   -0.035142
     26          6           0       -0.379203    2.704578    0.054942
     27          7           0        0.352438    1.761949   -0.625996
     28          1           0        1.352244    1.740027   -0.496111
     29          6           0       -0.179726    0.816296   -1.496861
     30          8           0        0.568807    0.009251   -2.061745
     31          6           0       -1.588502    0.937858   -1.603929
     32          7           0       -2.501265    0.206646   -2.351647
     33          6           0       -3.656039    0.746727   -2.070567
     34          1           0       -4.610995    0.421339   -2.484656
     35          1           0       -5.300779    2.057390   -0.145590
     36          1           0       -4.262126    3.308443   -0.015074
     37          1           0       -5.116449    3.098513   -1.388766
     38          1           0        6.188736    1.740075    1.072649
     39          1           0        6.455610    2.635762   -0.421061
     40          1           0        4.925464    2.797025    0.441503
     41          1           0        6.106588   -1.847152   -2.132280
     42          6           0        5.457869   -1.049589   -1.769936
     43          8           0        3.482136   -1.989500   -2.686539
     44          6           0        4.056191   -1.104090   -2.053048
     45          1           0        2.332388   -0.049718   -1.728794
     46          7           0        3.326591   -0.046275   -1.549103
     47          8           0        3.077525    1.908955   -0.421182
     48          6           0        3.803614    1.017994   -0.825698
     49          1           0        7.011097    0.063928   -0.824729
     50          6           0        5.952795   -0.024329   -1.066731
     51          6           0        5.720391    2.116310    0.175341
     52          7           0        5.164877    0.999298   -0.593710
     53          1           0        4.683222    0.575742    4.079932
     54          1           0        3.505527    1.439650    3.352748
     55          1           0        5.029770    1.486670    2.770910
     56          1           0        1.097921   -3.666328   -0.841046
     57          1           0        2.764410   -3.834565   -0.517599
     58          7           0        1.916839   -3.319995   -0.383237
     59          6           0        1.881272   -2.220934    0.373053
     60          6           0        2.809836   -0.546151    1.785355
     61          7           0        1.657465    0.124691    1.947992
     62          1           0       -0.300571    0.013433    1.352745
     63          6           0        0.673303   -0.467968    1.274874
     64          7           0        0.706915   -1.568808    0.516849
     65          1           0        5.951860   -1.214277    2.150691
     66          6           0        4.897293   -1.211872    1.873526
     67          7           0        4.327745   -2.104429    1.101109
     68          6           0        3.004024   -1.694077    1.036963
     69          6           0        4.337931    0.907222    3.201925
     70          7           0        4.037334   -0.239823    2.323329
 ---------------------------------------------------------------------

 SCF Done:  E(RwB97XD) =  -2048.75211222     A.U. after   15 cycles

 The electronic state is 1-A.
 Alpha  occ. eigenvalues --  -19.25856 -19.22038 -19.20608 -14.52485 -14.51430
 Alpha  occ. eigenvalues --  -14.49870 -14.48510 -14.47742 -14.46806 -14.46526
 Alpha  occ. eigenvalues --  -14.46197 -14.44228 -14.43001 -14.42831 -14.42829
 Alpha  occ. eigenvalues --  -14.42483 -14.41886 -14.41877 -14.41008 -14.40678
 Alpha  occ. eigenvalues --  -10.45470 -10.41086 -10.40026 -10.38333 -10.38150
 Alpha  occ. eigenvalues --  -10.37452 -10.36843 -10.36253 -10.35897 -10.35894
 Alpha  occ. eigenvalues --  -10.35140 -10.34579 -10.34382 -10.34197 -10.33914
 Alpha  occ. eigenvalues --  -10.33384 -10.33143 -10.31963 -10.31263 -10.30804
 Alpha  occ. eigenvalues --  -10.30314 -10.29555 -10.27961  -1.19454  -1.14054
 Alpha  occ. eigenvalues --   -1.13133  -1.13000  -1.12439  -1.10438  -1.09355
 Alpha  occ. eigenvalues --   -1.08476  -1.07719  -1.05872  -1.03232  -1.02497
 Alpha  occ. eigenvalues --   -1.01287  -0.99779  -0.99617  -0.98410  -0.97959
 Alpha  occ. eigenvalues --   -0.96346  -0.95367  -0.93487  -0.90878  -0.86519
 Alpha  occ. eigenvalues --   -0.85038  -0.84934  -0.83985  -0.83862  -0.83293
 Alpha  occ. eigenvalues --   -0.82148  -0.78801  -0.75729  -0.74448  -0.73808
 Alpha  occ. eigenvalues --   -0.73584  -0.73441  -0.73314  -0.71972  -0.69094
 Alpha  occ. eigenvalues --   -0.67236  -0.67205  -0.66504  -0.65404  -0.64404
 Alpha  occ. eigenvalues --   -0.63638  -0.63603  -0.62901  -0.62534  -0.61589
 Alpha  occ. eigenvalues --   -0.61080  -0.61018  -0.59483  -0.59280  -0.58396
 Alpha  occ. eigenvalues --   -0.58228  -0.57742  -0.57668  -0.57319  -0.56336
 Alpha  occ. eigenvalues --   -0.56093  -0.55909  -0.55146  -0.54358  -0.54266
 Alpha  occ. eigenvalues --   -0.53602  -0.53484  -0.52846  -0.52789  -0.52671
 Alpha  occ. eigenvalues --   -0.52344  -0.51875  -0.51648  -0.51605  -0.51069
 Alpha  occ. eigenvalues --   -0.50004  -0.49946  -0.49418  -0.48848  -0.48734
 Alpha  occ. eigenvalues --   -0.48548  -0.48237  -0.48008  -0.47821  -0.47689
 Alpha  occ. eigenvalues --   -0.47356  -0.45834  -0.45298  -0.43882  -0.43121
 Alpha  occ. eigenvalues --   -0.41979  -0.39547  -0.39422  -0.38102  -0.37156
 Alpha  occ. eigenvalues --   -0.37134  -0.36774  -0.36372  -0.35834  -0.34570
 Alpha  occ. eigenvalues --   -0.34427  -0.34108  -0.33403  -0.33202  -0.33000
 Alpha  occ. eigenvalues --   -0.32621  -0.32118  -0.31889  -0.31782  -0.31478
 Alpha  occ. eigenvalues --   -0.31211  -0.28302  -0.26676  -0.25279
 Alpha virt. eigenvalues --    0.02825   0.05561   0.07000   0.07776   0.09113
 Alpha virt. eigenvalues --    0.09286   0.09779   0.10205   0.11038   0.12034
 Alpha virt. eigenvalues --    0.13076   0.13316   0.14313   0.14833   0.15011

 Mulliken charges:
               1
     1  N   -0.310501
     2  C    0.179350
     3  C    0.041000
     4  N   -0.249405
     5  C    0.124908
     6  H    0.028950
     7  N   -0.279740
     8  C    0.133948
     9  H    0.016529
    10  N   -0.290347
    11  C    0.232731
    12  C    0.094418
    13  N   -0.037533
    14  H    0.109806
    15  H    0.089681
    16  H    0.029742
    17  H    0.036095
    18  H    0.024428
    19  N   -0.300670
    20  C    0.254030
    21  C    0.186169
    22  N   -0.117849
    23  H    0.114545
    24  H    0.117426
    25  N   -0.304233
    26  C    0.234067
    27  N   -0.138812
    28  H    0.122415
    29  C    0.165878
    30  O   -0.325403
    31  C   -0.005438
    32  N   -0.228296
    33  C    0.126261
    34  H    0.024620
    35  H    0.019360
    36  H    0.029089
    37  H    0.020364
    38  H    0.050841
    39  H    0.065035
    40  H    0.076748
    41  H    0.026722
    42  C   -0.065942
    43  O   -0.271344
    44  C    0.170260
    45  H    0.134755
    46  N   -0.125453
    47  O   -0.344921
    48  C    0.340080
    49  H    0.041387
    50  C    0.153355
    51  C    0.038079
    52  N   -0.280876
    53  H    0.033464
    54  H    0.039806
    55  H   -0.001655
    56  H    0.118771
    57  H    0.119510
    58  N   -0.044302
    59  C    0.117437
    60  C    0.220079
    61  N   -0.273385
    62  H    0.032207
    63  C    0.158116
    64  N   -0.305052
    65  H    0.026715
    66  C    0.119944
    67  N   -0.244775
    68  C    0.015781
    69  C    0.188475
    70  N   -0.297446
 Sum of Mulliken charges =  -0.00000

 Dipole moment (field-independent basis, Debye):
    X=              4.4688    Y=              5.0811    Z=              5.0864  Tot=              8.4652
 Quadrupole moment (field-independent basis, Debye-Ang):
   XX=           -142.7015   YY=           -225.9301   ZZ=           -257.8664
   XY=             11.6126   XZ=             20.1141   YZ=              3.8770

 Normal termination of Gaussian 16 at Thu Jan 18 13:03:37 2018.
