 Gaussian 16, Revision A.03,
 Gaussian 16:  EM64L-G16RevA.03 25-Dec-2016

 ---------------------------------------
 #p wb97xd/cc-pvdz sp scf=(maxcycles=20)
 ---------------------------------------

 ------------------
 Base pair stacking
 ------------------
 Symbolic Z-matrix:
 Charge =  0 Multiplicity = 1

                         Standard orientation:
 ---------------------------------------------------------------------
 Center     Atomic      Atomic             Coordinates (Angstroms)
 Number     Number       Type             X           Y           Z
 ---------------------------------------------------------------------
      1          7           0       -4.172352    2.495330   -0.234263
      2          6           0       -5.397097    2.718543   -1.026842
      3          6           0       -2.086652    2.135943    0.364080
      4          7           0       -2.818033    2.223740    1.539707
      5          6           0       -4.045314    2.436738    1.132176
      6          1           0       -4.904977    2.559870    1.791535
      7          7           0       -0.316535    1.887409   -1.174703
      8          6           0       -1.228747    2.063898   -2.136116
      9          1           0       -0.843889    2.028730   -3.154402
     10          7           0       -2.538827    2.276316   -2.029013
     11          6           0       -2.907839    2.301347   -0.737644
     12          6           0       -0.719492    1.918086    0.114387
     13          7           0        0.189607    1.742107    1.075505
     14          1           0       -0.063743    1.757047    2.043389
     15          1           0        1.154389    1.589429    0.860957
     16          1           0       -5.794235    3.604469   -0.786855
     17          1           0       -5.171388    2.708306   -2.000528
     18          1           0       -6.059088    1.994741   -0.832251
     19          7           0       -5.965510   -1.090937   -0.142846
     20          6           0       -4.642755   -1.370990   -0.387634
     21          6           0       -7.071291   -1.287103   -1.101737
     22          7           0       -2.156452   -2.517419   -2.524398
     23          1           0       -1.165989   -2.650160   -2.499600
     24          1           0       -2.626149   -2.763786   -3.372580
     25          7           0       -4.135027   -1.868423   -1.536028
     26          6           0       -2.825596   -2.030959   -1.468221
     27          7           0       -2.069383   -1.730001   -0.361392
     28          1           0       -1.073897   -1.886642   -0.399269
     29          6           0       -2.570603   -1.217241    0.830969
     30          8           0       -1.801633   -0.979897    1.770708
     31          6           0       -3.975998   -1.037190    0.773324
     32          7           0       -4.862333   -0.557237    1.727754
     33          6           0       -6.027530   -0.607193    1.141211
     34          1           0       -6.967984   -0.302244    1.601445
     35          1           0       -7.518492   -0.411508   -1.281032
     36          1           0       -6.707263   -1.655272   -1.956248
     37          1           0       -7.735853   -1.928555   -0.720011
     38          1           0        3.885443   -2.286783   -1.446914
     39          1           0        3.730234   -3.819411   -0.591568
     40          1           0        2.367534   -3.182857   -1.513099
     41          1           0        3.878519   -0.753862    3.113429
     42          6           0        3.173040   -1.103213    2.359442
     43          8           0        1.263474   -0.274867    3.497218
     44          6           0        1.774854   -0.859470    2.542485
     45          1           0       -0.024219   -1.189606    1.624513
     46          7           0        0.969997   -1.342695    1.530586
     47          8           0        0.582116   -2.403060   -0.439793
     48          6           0        1.371625   -2.013020    0.402353
     49          1           0        4.647662   -1.964822    1.083140
     50          6           0        3.595343   -1.754337    1.269355
     51          6           0        3.210976   -2.921372   -0.891521
     52          7           0        2.734577   -2.209498    0.297603
     53          1           0        7.189050    0.902299   -3.493781
     54          1           0        5.757136    0.132464   -3.631862
     55          1           0        7.093276   -0.700511   -3.201815
     56          1           0        3.391812    1.453278    2.857834
     57          1           0        5.093260    1.341591    2.805801
     58          7           0        4.220463    1.305407    2.317812
     59          6           0        4.165158    1.070327    1.005234
     60          6           0        5.082512    0.624751   -1.144559
     61          7           0        3.896355    0.581791   -1.773535
     62          1           0        1.902592    0.779979   -1.341935
     63          6           0        2.903551    0.797750   -0.912940
     64          7           0        2.956895    1.033378    0.402046
     65          1           0        8.296531    0.490240   -0.821834
     66          6           0        7.221647    0.583470   -0.664131
     67          7           0        6.656632    0.827583    0.492952
     68          6           0        5.300345    0.856313    0.202453
     69          6           0        6.614780    0.173863   -3.120147
     70          7           0        6.328295    0.449227   -1.698842
 ---------------------------------------------------------------------

 SCF Done:  E(RwB97XD) =  -2048.73810242     A.U. after   15 cycles

 The electronic state is 1-A.
 Alpha  occ. eigenvalues --  -19.25322 -19.22152 -19.20913 -14.52418 -14.51803
 Alpha  occ. eigenvalues --  -14.49689 -14.48451 -14.47924 -14.47454 -14.47215
 Alpha  occ. eigenvalues --  -14.47012 -14.45310 -14.44586 -14.44459 -14.42471
 Alpha  occ. eigenvalues --  -14.42398 -14.41787 -14.41068 -14.40675 -14.40544
 Alpha  occ. eigenvalues --  -10.44920 -10.41691 -10.39975 -10.39918 -10.38649
 Alpha  occ. eigenvalues --  -10.37920 -10.37343 -10.36716 -10.36054 -10.35555
 Alpha  occ. eigenvalues --  -10.35074 -10.34493 -10.34186 -10.33823 -10.33566
 Alpha  occ. eigenvalues --  -10.33293 -10.33224 -10.32753 -10.31832 -10.30899
 Alpha  occ. eigenvalues --  -10.30161 -10.28789 -10.28448  -1.18893  -1.15202
 Alpha  occ. eigenvalues --   -1.13668  -1.13025  -1.11299  -1.11049  -1.09540
 Alpha  occ. eigenvalues --   -1.08975  -1.08628  -1.05180  -1.04991  -1.02101
 Alpha  occ. eigenvalues --   -1.00930  -1.00513  -1.00133  -0.99085  -0.97360
 Alpha  occ. eigenvalues --   -0.97074  -0.96604  -0.92852  -0.90401  -0.87684
 Alpha  occ. eigenvalues --   -0.85868  -0.84867  -0.83770  -0.83310  -0.82969
 Alpha  occ. eigenvalues --   -0.82204  -0.78336  -0.77069  -0.75239  -0.74937
 Alpha  occ. eigenvalues --   -0.74068  -0.72950  -0.72785  -0.71044  -0.70448
 Alpha  occ. eigenvalues --   -0.67877  -0.66894  -0.66252  -0.66082  -0.64873
 Alpha  occ. eigenvalues --   -0.64329  -0.63562  -0.63015  -0.62651  -0.62252
 Alpha  occ. eigenvalues --   -0.60532  -0.60494  -0.59982  -0.59506  -0.59033
 Alpha  occ. eigenvalues --   -0.58949  -0.58683  -0.57787  -0.56497  -0.56020
 Alpha  occ. eigenvalues --   -0.55966  -0.55524  -0.55192  -0.54708  -0.54405
 Alpha  occ. eigenvalues --   -0.54062  -0.53697  -0.53619  -0.53357  -0.52898
 Alpha  occ. eigenvalues --   -0.52774  -0.52030  -0.51589  -0.50770  -0.50692
 Alpha  occ. eigenvalues --   -0.50281  -0.50016  -0.49905  -0.49438  -0.49008
 Alpha  occ. eigenvalues --   -0.48851  -0.48693  -0.48533  -0.47598  -0.47421
 Alpha  occ. eigenvalues --   -0.46878  -0.45894  -0.45212  -0.44996  -0.42631
 Alpha  occ. eigenvalues --   -0.41179  -0.40747  -0.39189  -0.37939  -0.37792
 Alpha  occ. eigenvalues --   -0.37653  -0.37575  -0.36967  -0.35571  -0.34914
 Alpha  occ. eigenvalues --   -0.34523  -0.34374  -0.33586  -0.33425  -0.33265
 Alpha  occ. eigenvalues --   -0.33185  -0.32954  -0.32184  -0.30942  -0.30856
 Alpha  occ. eigenvalues --   -0.30459  -0.30115  -0.26389  -0.25508
 Alpha virt. eigenvalues --    0.02859   0.04556   0.06952   0.07993   0.08523
 Alpha virt. eigenvalues --    0.08938   0.09340   0.10420   0.10848   0.12450
 Alpha virt. eigenvalues --    0.13142   0.13500   0.14096   0.14301   0.14995

 Mulliken charges:
               1
     1  N   -0.306607
     2  C    0.185498
     3  C    0.031099
     4  N   -0.236093
     5  C    0.150096
     6  H    0.025736
     7  N   -0.297660
     8  C    0.128555
     9  H    0.009645
    10  N   -0.285181
    11  C    0.241713
    12  C    0.081917
    13  N   -0.058714
    14  H    0.122124
    15  H    0.093552
    16  H    0.024986
    17  H    0.033616
    18  H    0.012837
    19  N   -0.308341
    20  C    0.254284
    21  C    0.181417
    22  N   -0.123008
    23  H    0.119170
    24  H    0.120020
    25  N   -0.312641
    26  C    0.253785
    27  N   -0.146800
    28  H    0.120498
    29  C    0.193390
    30  O   -0.317483
    31  C   -0.013948
    32  N   -0.215739
    33  C    0.105621
    34  H    0.023986
    35  H    0.019721
    36  H    0.033187
    37  H    0.028105
    38  H    0.056288
    39  H    0.055234
    40  H    0.073170
    41  H    0.012043
    42  C   -0.090720
    43  O   -0.285274
    44  C    0.180443
    45  H    0.130782
    46  N   -0.124155
    47  O   -0.354774
    48  C    0.349010
    49  H    0.045711
    50  C    0.156300
    51  C    0.043989
    52  N   -0.277587
    53  H    0.034837
    54  H    0.041827
    55  H    0.028902
    56  H    0.126455
    57  H    0.119801
    58  N   -0.054548
    59  C    0.070346
    60  C    0.238361
    61  N   -0.270354
    62  H    0.034757
    63  C    0.162129
    64  N   -0.300730
    65  H    0.039201
    66  C    0.139792
    67  N   -0.260563
    68  C    0.040922
    69  C    0.179304
    70  N   -0.313243
 Sum of Mulliken charges =  -0.00000

 Dipole moment (field-independent basis, Debye):
    X=              4.8744    Y=             -3.7364    Z=             -7.2447  Tot=              9.4977
 Quadrupole moment (field-independent basis, Debye-Ang):
   XX=           -145.0483   YY=           -236.9106   ZZ=           -246.6640
   XY=            -12.7202   XZ=              1.9125   YZ=             15.4484

 Normal termination of Gaussian 16 at Thu Jan 18 10:19:49 2018.
