 Gaussian 16, Revision A.03,
 Gaussian 16:  EM64L-G16RevA.03 25-Dec-2016

 ---------------------------------------
 #p wb97xd/cc-pvdz sp scf=(maxcycles=20)
 ---------------------------------------

 ------------------
 Base pair stacking
 ------------------
 Symbolic Z-matrix:
 Charge =  0 Multiplicity = 1

                         Standard orientation:
 ---------------------------------------------------------------------
 Center     Atomic      Atomic             Coordinates (Angstroms)
 Number     Number       Type             X           Y           Z
 ---------------------------------------------------------------------
      1          7           0       -6.593301   -1.120827    0.238792
      2          6           0       -7.869018   -0.754803    0.884220
      3          6           0       -4.459939   -1.479591   -0.157857
      4          7           0       -5.135875   -1.841605   -1.314045
      5          6           0       -6.394104   -1.610966   -1.028807
      6          1           0       -7.226225   -1.782094   -1.712336
      7          7           0       -2.755948   -1.063468    1.418910
      8          6           0       -3.725440   -0.660187    2.246569
      9          1           0       -3.390567   -0.328976    3.228618
     10          7           0       -5.040323   -0.604880    2.044209
     11          6           0       -5.345002   -1.033364    0.808093
     12          6           0       -3.094961   -1.488750    0.182272
     13          7           0       -2.128610   -1.891701   -0.645360
     14          1           0       -2.333559   -2.214503   -1.570023
     15          1           0       -1.167363   -1.884657   -0.369484
     16          1           0       -8.466871   -1.555631    0.921971
     17          1           0       -7.692229   -0.427985    1.812155
     18          1           0       -8.316056   -0.031789    0.357525
     19          7           0       -3.524759    2.215523   -0.766188
     20          6           0       -2.186658    2.270219   -0.458681
     21          6           0       -4.586530    2.995623   -0.099277
     22          7           0        0.410345    3.563024    1.450769
     23          1           0        1.402117    3.456278    1.515776
     24          1           0       -0.019134    4.207294    2.084152
     25          7           0       -1.621552    3.039600    0.496703
     26          6           0       -0.312088    2.873619    0.554823
     27          7           0        0.391995    2.019976   -0.259466
     28          1           0        1.391877    1.957271   -0.144255
     29          6           0       -0.168724    1.218797   -1.249198
     30          8           0        0.556312    0.482613   -1.929696
     31          6           0       -1.574893    1.386209   -1.323596
     32          7           0       -2.510105    0.788558   -2.157321
     33          6           0       -3.649633    1.309740   -1.791174
     34          1           0       -4.614975    1.067731   -2.237073
     35          1           0       -5.249023    2.373105    0.315892
     36          1           0       -4.179838    3.569364    0.610444
     37          1           0       -5.048518    3.574551   -0.770257
     38          1           0        6.237834    1.626406    1.359047
     39          1           0        6.515625    2.717330    0.003558
     40          1           0        4.995847    2.790169    0.895928
     41          1           0        6.047431   -1.470630   -2.317725
     42          6           0        5.420553   -0.717558   -1.840107
     43          8           0        3.416525   -1.473810   -2.859449
     44          6           0        4.016024   -0.699771   -2.113627
     45          1           0        2.320267    0.337270   -1.626526
     46          7           0        3.315484    0.292775   -1.458376
     47          8           0        3.121188    2.074720   -0.064057
     48          6           0        3.822901    1.233389   -0.597371
     49          1           0        7.006546    0.216089   -0.763664
     50          6           0        5.944772    0.186883   -1.004767
     51          6           0        5.772372    2.135866    0.528472
     52          7           0        5.184914    1.151267   -0.384338
     53          1           0        4.641358   -0.946124    4.238212
     54          1           0        3.447147    0.112290    3.898051
     55          1           0        4.969002    0.407311    3.387155
     56          1           0        1.118946   -3.004708   -1.960204
     57          1           0        2.788851   -3.257118   -1.719764
     58          7           0        1.932774   -2.849511   -1.400070
     59          6           0        1.879873   -2.131085   -0.276581
     60          6           0        2.782454   -1.120603    1.679427
     61          7           0        1.618973   -0.585140    2.084449
     62          1           0       -0.338204   -0.489641    1.483672
     63          6           0        0.643705   -0.886508    1.229494
     64          7           0        0.694688   -1.605917    0.103700
     65          1           0        5.936449   -1.824916    1.771209
     66          6           0        4.881360   -1.732917    1.511867
     67          7           0        4.325623   -2.265044    0.450883
     68          6           0        2.994829   -1.884436    0.544981
     69          6           0        4.288329   -0.305637    3.556190
     70          7           0        4.005672   -1.026473    2.299804
 ---------------------------------------------------------------------

 SCF Done:  E(RwB97XD) =  -2048.74120494     A.U. after   15 cycles

 The electronic state is 1-A.
 Alpha  occ. eigenvalues --  -19.25900 -19.22369 -19.20814 -14.52406 -14.51065
 Alpha  occ. eigenvalues --  -14.49606 -14.48724 -14.47856 -14.47079 -14.46782
 Alpha  occ. eigenvalues --  -14.45154 -14.43892 -14.42489 -14.42383 -14.42263
 Alpha  occ. eigenvalues --  -14.42241 -14.42102 -14.41515 -14.40866 -14.40689
 Alpha  occ. eigenvalues --  -10.45503 -10.41329 -10.40189 -10.38370 -10.37634
 Alpha  occ. eigenvalues --  -10.37229 -10.36470 -10.35897 -10.35674 -10.35450
 Alpha  occ. eigenvalues --  -10.34913 -10.34409 -10.34109 -10.34098 -10.33622
 Alpha  occ. eigenvalues --  -10.33276 -10.33046 -10.31736 -10.30818 -10.30761
 Alpha  occ. eigenvalues --  -10.30729 -10.29263 -10.28171  -1.19475  -1.13739
 Alpha  occ. eigenvalues --   -1.13387  -1.13335  -1.12177  -1.10641  -1.09339
 Alpha  occ. eigenvalues --   -1.08706  -1.07125  -1.05545  -1.02728  -1.02555
 Alpha  occ. eigenvalues --   -1.00928  -0.99865  -0.99357  -0.98626  -0.97684
 Alpha  occ. eigenvalues --   -0.96582  -0.94779  -0.93133  -0.90778  -0.86080
 Alpha  occ. eigenvalues --   -0.84694  -0.84586  -0.84121  -0.83842  -0.83035
 Alpha  occ. eigenvalues --   -0.82445  -0.78771  -0.75241  -0.74651  -0.73745
 Alpha  occ. eigenvalues --   -0.73517  -0.73397  -0.72996  -0.71668  -0.68565
 Alpha  occ. eigenvalues --   -0.67447  -0.66895  -0.66530  -0.64906  -0.64456
 Alpha  occ. eigenvalues --   -0.63790  -0.63279  -0.62710  -0.62364  -0.61795
 Alpha  occ. eigenvalues --   -0.60719  -0.60364  -0.59460  -0.58792  -0.58459
 Alpha  occ. eigenvalues --   -0.58050  -0.57906  -0.57327  -0.56985  -0.56493
 Alpha  occ. eigenvalues --   -0.56016  -0.55741  -0.54751  -0.54397  -0.53900
 Alpha  occ. eigenvalues --   -0.53731  -0.53528  -0.52953  -0.52618  -0.52543
 Alpha  occ. eigenvalues --   -0.52136  -0.51885  -0.51509  -0.51217  -0.50788
 Alpha  occ. eigenvalues --   -0.50294  -0.49648  -0.49559  -0.49065  -0.48766
 Alpha  occ. eigenvalues --   -0.48407  -0.48254  -0.47856  -0.47756  -0.47534
 Alpha  occ. eigenvalues --   -0.47474  -0.45657  -0.45399  -0.43650  -0.42557
 Alpha  occ. eigenvalues --   -0.41754  -0.39507  -0.39183  -0.37810  -0.37376
 Alpha  occ. eigenvalues --   -0.37257  -0.36977  -0.36045  -0.35659  -0.34384
 Alpha  occ. eigenvalues --   -0.34287  -0.34126  -0.33577  -0.33114  -0.32748
 Alpha  occ. eigenvalues --   -0.32526  -0.32231  -0.31965  -0.31617  -0.31130
 Alpha  occ. eigenvalues --   -0.30843  -0.27423  -0.26330  -0.25469
 Alpha virt. eigenvalues --    0.02933   0.05871   0.07310   0.07834   0.08920
 Alpha virt. eigenvalues --    0.09604   0.09807   0.10434   0.10770   0.12512
 Alpha virt. eigenvalues --    0.13368   0.13594   0.14129   0.14681   0.15049

 Mulliken charges:
               1
     1  N   -0.310689
     2  C    0.180290
     3  C    0.031722
     4  N   -0.249073
     5  C    0.123028
     6  H    0.027720
     7  N   -0.286239
     8  C    0.134910
     9  H    0.016069
    10  N   -0.292182
    11  C    0.238271
    12  C    0.098518
    13  N   -0.035993
    14  H    0.110686
    15  H    0.090711
    16  H    0.028408
    17  H    0.036171
    18  H    0.023070
    19  N   -0.307065
    20  C    0.259651
    21  C    0.182405
    22  N   -0.123007
    23  H    0.115584
    24  H    0.118932
    25  N   -0.309545
    26  C    0.246461
    27  N   -0.144522
    28  H    0.119270
    29  C    0.181805
    30  O   -0.327573
    31  C   -0.012587
    32  N   -0.232290
    33  C    0.131474
    34  H    0.025965
    35  H    0.028140
    36  H    0.029268
    37  H    0.022038
    38  H    0.051262
    39  H    0.063129
    40  H    0.075267
    41  H    0.023678
    42  C   -0.049502
    43  O   -0.282913
    44  C    0.169660
    45  H    0.136058
    46  N   -0.126783
    47  O   -0.349831
    48  C    0.348394
    49  H    0.040350
    50  C    0.152647
    51  C    0.040056
    52  N   -0.285981
    53  H    0.031851
    54  H    0.040717
    55  H    0.014532
    56  H    0.115975
    57  H    0.117007
    58  N   -0.012260
    59  C    0.093829
    60  C    0.233743
    61  N   -0.277647
    62  H    0.029165
    63  C    0.157254
    64  N   -0.304205
    65  H    0.024559
    66  C    0.122013
    67  N   -0.247136
    68  C    0.006669
    69  C    0.181967
    70  N   -0.303325
 Sum of Mulliken charges =  -0.00000

 Dipole moment (field-independent basis, Debye):
    X=              4.7891    Y=              4.7076    Z=              5.2115  Tot=              8.5004
 Quadrupole moment (field-independent basis, Debye-Ang):
   XX=           -142.7460   YY=           -229.8843   ZZ=           -250.8103
   XY=              4.5843   XZ=             21.9382   YZ=              9.9235

 Normal termination of Gaussian 16 at Thu Jan 18 08:29:09 2018.
