 Gaussian 16, Revision A.03,
 Gaussian 16:  EM64L-G16RevA.03 25-Dec-2016

 ---------------------------------------
 #p wb97xd/cc-pvdz sp scf=(maxcycles=20)
 ---------------------------------------

 ------------------
 Base pair stacking
 ------------------
 Symbolic Z-matrix:
 Charge =  0 Multiplicity = 1

                         Standard orientation:
 ---------------------------------------------------------------------
 Center     Atomic      Atomic             Coordinates (Angstroms)
 Number     Number       Type             X           Y           Z
 ---------------------------------------------------------------------
      1          7           0       -7.016032    0.527610   -0.242371
      2          6           0       -8.243781   -0.291249   -0.253450
      3          6           0       -4.928573    1.196851   -0.421031
      4          7           0       -5.654421    2.299430    0.005827
      5          6           0       -6.882989    1.852101    0.096383
      6          1           0       -7.739356    2.450721    0.408189
      7          7           0       -3.166042   -0.210566   -1.110677
      8          6           0       -4.082134   -1.178636   -1.216479
      9          1           0       -3.701957   -2.144578   -1.546169
     10          7           0       -5.391177   -1.132879   -0.977304
     11          6           0       -5.754308    0.097348   -0.578385
     12          6           0       -3.563111    1.015964   -0.706888
     13          7           0       -2.650127    1.983621   -0.600661
     14          1           0       -2.899072    2.906697   -0.305417
     15          1           0       -1.686711    1.818960   -0.812468
     16          1           0       -8.906488    0.107749   -0.887324
     17          1           0       -8.022489   -1.221150   -0.545778
     18          1           0       -8.637820   -0.317357    0.665269
     19          7           0       -3.074913   -1.266028    1.430383
     20          6           0       -1.751786   -1.442940    1.104649
     21          6           0       -4.181539   -2.152586    1.017955
     22          7           0        0.734393   -3.266129   -0.494300
     23          1           0        1.725221   -3.213590   -0.615743
     24          1           0        0.264129   -4.034671   -0.928938
     25          7           0       -1.244419   -2.448319    0.359088
     26          6           0        0.065505   -2.347714    0.219152
     27          7           0        0.822516   -1.340397    0.766650
     28          1           0        1.818337   -1.343431    0.607637
     29          6           0        0.321687   -0.295741    1.537185
     30          8           0        1.091368    0.563411    1.984593
     31          6           0       -1.084249   -0.390256    1.696287
     32          7           0       -1.970447    0.431017    2.379692
     33          6           0       -3.136346   -0.126327    2.194561
     34          1           0       -4.076916    0.253897    2.594567
     35          1           0       -4.843931   -1.633120    0.479264
     36          1           0       -3.817775   -2.901096    0.465082
     37          1           0       -4.631201   -2.526307    1.828473
     38          1           0        6.608077   -1.571548   -1.083245
     39          1           0        6.911416   -2.292292    0.495721
     40          1           0        5.356283   -2.536452   -0.300087
     41          1           0        6.641145    2.360741    1.688489
     42          6           0        5.977085    1.533290    1.438363
     43          8           0        4.034563    2.591780    2.294706
     44          6           0        4.584424    1.633823    1.751796
     45          1           0        2.845108    0.566292    1.598647
     46          7           0        3.833735    0.532399    1.393243
     47          8           0        3.539618   -1.536906    0.505175
     48          6           0        4.282859   -0.612608    0.784305
     49          1           0        7.495296    0.303259    0.585219
     50          6           0        6.444925    0.429192    0.844489
     51          6           0        6.162986   -1.837556   -0.136040
     52          7           0        5.637060   -0.634149    0.514310
     53          1           0        4.266448   -2.077641   -3.099243
     54          1           0        3.159969   -2.499324   -1.976760
     55          1           0        4.691432   -2.159856   -1.525706
     56          1           0        0.466133    3.908826   -0.911698
     57          1           0        2.112897    3.970634   -1.352668
     58          7           0        1.300596    3.418101   -1.162714
     59          6           0        1.329917    2.086109   -1.240962
     60          6           0        2.351541   -0.027673   -1.628166
     61          7           0        1.245432   -0.743961   -1.367604
     62          1           0       -0.707609   -0.441345   -0.824764
     63          6           0        0.232204    0.060121   -1.051816
     64          7           0        0.200838    1.394427   -0.972894
     65          1           0        5.435723    0.515144   -2.431495
     66          6           0        4.387510    0.602417   -2.144125
     67          7           0        3.768808    1.735322   -1.917405
     68          6           0        2.477041    1.350101   -1.589272
     69          6           0        3.956135   -1.923790   -2.161153
     70          7           0        3.589815   -0.504765   -1.987404
 ---------------------------------------------------------------------

 SCF Done:  E(RwB97XD) =  -2048.62843607     A.U. after   15 cycles

 The electronic state is 1-A.
 Alpha  occ. eigenvalues --  -19.26213 -19.22086 -19.20361 -14.53105 -14.51050
 Alpha  occ. eigenvalues --  -14.50517 -14.48127 -14.47635 -14.46739 -14.45888
 Alpha  occ. eigenvalues --  -14.45867 -14.44017 -14.43813 -14.43183 -14.43169
 Alpha  occ. eigenvalues --  -14.42351 -14.42210 -14.41918 -14.41738 -14.40279
 Alpha  occ. eigenvalues --  -10.45950 -10.40471 -10.40196 -10.38503 -10.38013
 Alpha  occ. eigenvalues --  -10.37763 -10.37172 -10.36779 -10.36525 -10.35834
 Alpha  occ. eigenvalues --  -10.35759 -10.35198 -10.34818 -10.34686 -10.33678
 Alpha  occ. eigenvalues --  -10.32747 -10.32684 -10.32394 -10.31380 -10.31126
 Alpha  occ. eigenvalues --  -10.30413 -10.27688 -10.27379  -1.20127  -1.13976
 Alpha  occ. eigenvalues --   -1.13252  -1.13134  -1.13008  -1.10108  -1.09913
 Alpha  occ. eigenvalues --   -1.08394  -1.07829  -1.07059  -1.03604  -1.02850
 Alpha  occ. eigenvalues --   -1.02613  -0.99694  -0.99207  -0.98703  -0.98212
 Alpha  occ. eigenvalues --   -0.95952  -0.95388  -0.94680  -0.91544  -0.86746
 Alpha  occ. eigenvalues --   -0.86002  -0.85612  -0.84118  -0.84009  -0.83445
 Alpha  occ. eigenvalues --   -0.81219  -0.79329  -0.75943  -0.74813  -0.74313
 Alpha  occ. eigenvalues --   -0.73773  -0.73670  -0.73154  -0.72927  -0.69411
 Alpha  occ. eigenvalues --   -0.68135  -0.67152  -0.66778  -0.65925  -0.65069
 Alpha  occ. eigenvalues --   -0.64656  -0.63340  -0.63153  -0.62713  -0.61915
 Alpha  occ. eigenvalues --   -0.61772  -0.61196  -0.60055  -0.59746  -0.58973
 Alpha  occ. eigenvalues --   -0.58820  -0.58201  -0.57899  -0.57849  -0.57153
 Alpha  occ. eigenvalues --   -0.56970  -0.56260  -0.55985  -0.55289  -0.54623
 Alpha  occ. eigenvalues --   -0.54042  -0.53553  -0.53504  -0.53074  -0.52468
 Alpha  occ. eigenvalues --   -0.52058  -0.51828  -0.51629  -0.51186  -0.50787
 Alpha  occ. eigenvalues --   -0.50679  -0.49932  -0.49699  -0.48956  -0.48560
 Alpha  occ. eigenvalues --   -0.48449  -0.48256  -0.47988  -0.47782  -0.47240
 Alpha  occ. eigenvalues --   -0.47062  -0.45921  -0.45519  -0.44455  -0.42625
 Alpha  occ. eigenvalues --   -0.40689  -0.39924  -0.39724  -0.38923  -0.37133
 Alpha  occ. eigenvalues --   -0.36947  -0.36792  -0.35949  -0.35419  -0.35312
 Alpha  occ. eigenvalues --   -0.34993  -0.34418  -0.33705  -0.33284  -0.33217
 Alpha  occ. eigenvalues --   -0.32600  -0.32329  -0.32170  -0.31953  -0.31490
 Alpha  occ. eigenvalues --   -0.31151  -0.27313  -0.26446  -0.25053
 Alpha virt. eigenvalues --    0.02819   0.04873   0.05544   0.07782   0.08495
 Alpha virt. eigenvalues --    0.08667   0.09832   0.10284   0.11188   0.11957
 Alpha virt. eigenvalues --    0.12267   0.13159   0.14541   0.14598   0.15220

 Mulliken charges:
               1
     1  N   -0.315622
     2  C    0.180230
     3  C    0.046484
     4  N   -0.255383
     5  C    0.134629
     6  H    0.032132
     7  N   -0.246002
     8  C    0.090123
     9  H    0.029776
    10  N   -0.286306
    11  C    0.236357
    12  C    0.079146
    13  N   -0.035551
    14  H    0.107883
    15  H    0.089256
    16  H    0.030188
    17  H    0.036423
    18  H    0.028281
    19  N   -0.291934
    20  C    0.223743
    21  C    0.232976
    22  N   -0.074413
    23  H    0.105237
    24  H    0.110223
    25  N   -0.278880
    26  C    0.183645
    27  N   -0.104723
    28  H    0.128205
    29  C    0.124965
    30  O   -0.323914
    31  C    0.025830
    32  N   -0.225065
    33  C    0.110368
    34  H    0.023569
    35  H    0.014352
    36  H    0.010906
    37  H    0.001765
    38  H    0.048453
    39  H    0.061670
    40  H    0.094307
    41  H    0.033683
    42  C   -0.092941
    43  O   -0.261061
    44  C    0.188313
    45  H    0.132195
    46  N   -0.121952
    47  O   -0.351042
    48  C    0.340171
    49  H    0.046011
    50  C    0.158830
    51  C    0.058636
    52  N   -0.285805
    53  H    0.030022
    54  H    0.009286
    55  H   -0.060254
    56  H    0.115499
    57  H    0.121116
    58  N   -0.069819
    59  C    0.137118
    60  C    0.211140
    61  N   -0.299122
    62  H    0.048997
    63  C    0.174182
    64  N   -0.307959
    65  H    0.021638
    66  C    0.109716
    67  N   -0.251040
    68  C    0.033457
    69  C    0.235135
    70  N   -0.287482
 Sum of Mulliken charges =  -0.00000

 Dipole moment (field-independent basis, Debye):
    X=              3.7975    Y=             -5.2893    Z=             -5.4266  Tot=              8.4762
 Quadrupole moment (field-independent basis, Debye-Ang):
   XX=           -136.8517   YY=           -228.6444   ZZ=           -261.6661
   XY=            -20.9085   XZ=            -18.9610   YZ=             -5.7990

 Normal termination of Gaussian 16 at Thu Jan 18 09:44:18 2018.
