 Gaussian 16, Revision A.03,
 Gaussian 16:  EM64L-G16RevA.03 25-Dec-2016

 ---------------------------------------
 #p wb97xd/cc-pvdz sp scf=(maxcycles=20)
 ---------------------------------------

 ------------------
 Base pair stacking
 ------------------
 Symbolic Z-matrix:
 Charge =  0 Multiplicity = 1

                         Standard orientation:
 ---------------------------------------------------------------------
 Center     Atomic      Atomic             Coordinates (Angstroms)
 Number     Number       Type             X           Y           Z
 ---------------------------------------------------------------------
      1          7           0       -6.853503   -0.881148    0.261687
      2          6           0       -8.122247   -0.355320    0.801868
      3          6           0       -4.729044   -1.372662   -0.025344
      4          7           0       -5.407328   -1.945107   -1.091633
      5          6           0       -6.660090   -1.626079   -0.876029
      6          1           0       -7.492120   -1.910538   -1.520812
      7          7           0       -3.024541   -0.689570    1.454857
      8          6           0       -3.987386   -0.098443    2.169754
      9          1           0       -3.649706    0.417642    3.067470
     10          7           0       -5.298571   -0.049328    1.943274
     11          6           0       -5.607194   -0.713503    0.817201
     12          6           0       -3.367379   -1.349763    0.327164
     13          7           0       -2.407671   -1.940492   -0.387804
     14          1           0       -2.615641   -2.440187   -1.229383
     15          1           0       -1.448608   -1.903717   -0.106744
     16          1           0       -8.743970   -1.114496    0.994980
     17          1           0       -7.942331    0.149752    1.645470
     18          1           0       -8.543807    0.256477    0.132540
     19          7           0       -3.230340    2.071606   -1.077671
     20          6           0       -1.896261    2.144817   -0.756866
     21          6           0       -4.289619    2.941048   -0.527515
     22          7           0        0.691947    3.623498    1.025395
     23          1           0        1.680873    3.511868    1.119254
     24          1           0        0.263198    4.345443    1.569171
     25          7           0       -1.333476    3.016306    0.107908
     26          6           0       -0.027758    2.840726    0.207355
     27          7           0        0.674960    1.885340   -0.486147
     28          1           0        1.671931    1.823387   -0.347640
     29          6           0        0.116582    0.978080   -1.381105
     30          8           0        0.840082    0.155172   -1.955644
     31          6           0       -1.285566    1.154436   -1.498481
     32          7           0       -2.217494    0.473170   -2.269370
     33          6           0       -3.354085    1.050303   -1.987774
     34          1           0       -4.316353    0.769330   -2.417153
     35          1           0       -4.967792    2.382398   -0.051285
     36          1           0       -3.884615    3.590794    0.114406
     37          1           0       -4.732558    3.440827   -1.271039
     38          1           0        6.489348    1.610668    1.264790
     39          1           0        6.804126    2.525767   -0.207669
     40          1           0        5.272600    2.726718    0.644046
     41          1           0        6.305319   -1.905399   -2.013923
     42          6           0        5.683211   -1.091600   -1.641158
     43          8           0        3.682992   -1.938169   -2.594877
     44          6           0        4.283340   -1.087868   -1.938095
     45          1           0        2.596882    0.023516   -1.607919
     46          7           0        3.588684   -0.013900   -1.419153
     47          8           0        3.401475    1.926072   -0.253532
     48          6           0        4.097854    1.016926   -0.669672
     49          1           0        7.267409   -0.056364   -0.659126
     50          6           0        6.208997   -0.100020   -0.912517
     51          6           0        6.044222    2.022241    0.371183
     52          7           0        5.455113    0.942596   -0.425720
     53          1           0        4.352936   -0.202063    4.286371
     54          1           0        3.193248    0.796860    3.721240
     55          1           0        4.726776    0.938528    3.180601
     56          1           0        0.814421   -3.389095   -1.404614
     57          1           0        2.474316   -3.633085   -1.095902
     58          7           0        1.628551   -3.145008   -0.877585
     59          6           0        1.589188   -2.210326    0.074253
     60          6           0        2.507707   -0.845744    1.793551
     61          7           0        1.357894   -0.206554    2.065201
     62          1           0       -0.591291   -0.181982    1.432210
     63          6           0        0.380120   -0.649613    1.277445
     64          7           0        0.417543   -1.585672    0.323526
     65          1           0        5.638569   -1.603537    2.068565
     66          6           0        4.588547   -1.537416    1.782185
     67          7           0        4.024665   -2.260111    0.845470
     68          6           0        2.705185   -1.831518    0.842348
     69          6           0        4.023977    0.294541    3.483148
     70          7           0        3.728798   -0.660422    2.397356
 ---------------------------------------------------------------------

 SCF Done:  E(RwB97XD) =  -2048.75131567     A.U. after   15 cycles

 The electronic state is 1-A.
 Alpha  occ. eigenvalues --  -19.25986 -19.22120 -19.20728 -14.52522 -14.51020
 Alpha  occ. eigenvalues --  -14.49804 -14.48636 -14.47849 -14.46996 -14.46735
 Alpha  occ. eigenvalues --  -14.45420 -14.43810 -14.42614 -14.42506 -14.42487
 Alpha  occ. eigenvalues --  -14.42282 -14.42058 -14.41771 -14.40906 -14.40823
 Alpha  occ. eigenvalues --  -10.45569 -10.41273 -10.40159 -10.38322 -10.37733
 Alpha  occ. eigenvalues --  -10.37465 -10.36492 -10.36141 -10.35818 -10.35444
 Alpha  occ. eigenvalues --  -10.35134 -10.34369 -10.34351 -10.34088 -10.33853
 Alpha  occ. eigenvalues --  -10.33191 -10.33044 -10.31850 -10.30900 -10.30769
 Alpha  occ. eigenvalues --  -10.30528 -10.29526 -10.28134  -1.19547  -1.13646
 Alpha  occ. eigenvalues --   -1.13286  -1.13089  -1.12395  -1.10575  -1.09409
 Alpha  occ. eigenvalues --   -1.08650  -1.07141  -1.05783  -1.02645  -1.02565
 Alpha  occ. eigenvalues --   -1.01178  -0.99813  -0.99320  -0.98571  -0.97897
 Alpha  occ. eigenvalues --   -0.96499  -0.94805  -0.93369  -0.90919  -0.86055
 Alpha  occ. eigenvalues --   -0.84891  -0.84559  -0.84058  -0.83932  -0.83226
 Alpha  occ. eigenvalues --   -0.82323  -0.78846  -0.75238  -0.74584  -0.73734
 Alpha  occ. eigenvalues --   -0.73691  -0.73384  -0.72973  -0.71902  -0.68566
 Alpha  occ. eigenvalues --   -0.67399  -0.67116  -0.66570  -0.64867  -0.64456
 Alpha  occ. eigenvalues --   -0.63752  -0.63501  -0.62673  -0.62393  -0.61745
 Alpha  occ. eigenvalues --   -0.60918  -0.60406  -0.59523  -0.58797  -0.58410
 Alpha  occ. eigenvalues --   -0.58061  -0.57915  -0.57447  -0.57126  -0.56443
 Alpha  occ. eigenvalues --   -0.56044  -0.55959  -0.54596  -0.54412  -0.53885
 Alpha  occ. eigenvalues --   -0.53640  -0.53539  -0.52898  -0.52712  -0.52697
 Alpha  occ. eigenvalues --   -0.52126  -0.51960  -0.51659  -0.51212  -0.50969
 Alpha  occ. eigenvalues --   -0.50166  -0.49844  -0.49488  -0.48877  -0.48558
 Alpha  occ. eigenvalues --   -0.48293  -0.48209  -0.47864  -0.47834  -0.47738
 Alpha  occ. eigenvalues --   -0.47420  -0.45823  -0.45143  -0.43953  -0.42853
 Alpha  occ. eigenvalues --   -0.41968  -0.39560  -0.39092  -0.38052  -0.37334
 Alpha  occ. eigenvalues --   -0.37227  -0.36525  -0.35882  -0.35533  -0.34537
 Alpha  occ. eigenvalues --   -0.34422  -0.34311  -0.33320  -0.32934  -0.32711
 Alpha  occ. eigenvalues --   -0.32465  -0.32299  -0.31975  -0.31832  -0.31635
 Alpha  occ. eigenvalues --   -0.31095  -0.27814  -0.26502  -0.25474
 Alpha virt. eigenvalues --    0.03016   0.05843   0.07062   0.08090   0.08924
 Alpha virt. eigenvalues --    0.09307   0.09675   0.10306   0.10735   0.12452
 Alpha virt. eigenvalues --    0.13168   0.13366   0.14380   0.14785   0.15251

 Mulliken charges:
               1
     1  N   -0.310383
     2  C    0.180317
     3  C    0.030621
     4  N   -0.253259
     5  C    0.127092
     6  H    0.028979
     7  N   -0.281563
     8  C    0.132635
     9  H    0.017566
    10  N   -0.291505
    11  C    0.237068
    12  C    0.093416
    13  N   -0.033126
    14  H    0.108831
    15  H    0.089879
    16  H    0.028654
    17  H    0.036314
    18  H    0.024461
    19  N   -0.304595
    20  C    0.257038
    21  C    0.182945
    22  N   -0.121366
    23  H    0.113937
    24  H    0.118483
    25  N   -0.307511
    26  C    0.243705
    27  N   -0.135623
    28  H    0.117695
    29  C    0.172987
    30  O   -0.326483
    31  C   -0.009665
    32  N   -0.230163
    33  C    0.123776
    34  H    0.028179
    35  H    0.027940
    36  H    0.028432
    37  H    0.021591
    38  H    0.052718
    39  H    0.064440
    40  H    0.075448
    41  H    0.027710
    42  C   -0.067105
    43  O   -0.277556
    44  C    0.181651
    45  H    0.134908
    46  N   -0.127651
    47  O   -0.350236
    48  C    0.344734
    49  H    0.042076
    50  C    0.152369
    51  C    0.038039
    52  N   -0.286802
    53  H    0.031480
    54  H    0.039603
    55  H    0.012517
    56  H    0.115998
    57  H    0.119944
    58  N   -0.037101
    59  C    0.116940
    60  C    0.236222
    61  N   -0.277508
    62  H    0.031344
    63  C    0.158802
    64  N   -0.305615
    65  H    0.023409
    66  C    0.120052
    67  N   -0.247417
    68  C    0.009767
    69  C    0.182848
    70  N   -0.303325
 Sum of Mulliken charges =  -0.00000

 Dipole moment (field-independent basis, Debye):
    X=              4.6704    Y=              5.1229    Z=              4.8916  Tot=              8.4844
 Quadrupole moment (field-independent basis, Debye-Ang):
   XX=           -141.0655   YY=           -227.8795   ZZ=           -253.2121
   XY=              8.5598   XZ=             24.4869   YZ=              6.1071

 Normal termination of Gaussian 16 at Thu Jan 18 04:41:23 2018.
