 Gaussian 16, Revision A.03,
 Gaussian 16:  EM64L-G16RevA.03 25-Dec-2016

 ---------------------------------------
 #p wb97xd/cc-pvdz sp scf=(maxcycles=20)
 ---------------------------------------

 ------------------
 Base pair stacking
 ------------------
 Symbolic Z-matrix:
 Charge =  0 Multiplicity = 1

                         Standard orientation:
 ---------------------------------------------------------------------
 Center     Atomic      Atomic             Coordinates (Angstroms)
 Number     Number       Type             X           Y           Z
 ---------------------------------------------------------------------
      1          7           0       -6.012257   -1.298126    0.588932
      2          6           0       -7.286568   -0.809185    1.150243
      3          6           0       -3.875903   -1.685132    0.237441
      4          7           0       -4.562793   -2.371120   -0.753696
      5          6           0       -5.822375   -2.110505   -0.502257
      6          1           0       -6.662198   -2.488319   -1.086114
      7          7           0       -2.154775   -0.799771    1.585328
      8          6           0       -3.120575   -0.215518    2.301874
      9          1           0       -2.777094    0.382488    3.144882
     10          7           0       -4.440772   -0.258845    2.134200
     11          6           0       -4.755967   -1.019058    1.072525
     12          6           0       -2.504398   -1.558111    0.523355
     13          7           0       -1.541740   -2.142145   -0.193151
     14          1           0       -1.754487   -2.712281   -0.987441
     15          1           0       -0.575617   -2.029764    0.039460
     16          1           0       -7.851960   -1.587236    1.424379
     17          1           0       -7.102046   -0.235176    1.947475
     18          1           0       -7.772863   -0.272564    0.460634
     19          7           0       -4.182703    1.734667   -0.902008
     20          6           0       -2.845893    1.891066   -0.625382
     21          6           0       -5.283729    2.449738   -0.225910
     22          7           0       -0.309409    3.403852    1.202026
     23          1           0        0.688621    3.369686    1.246890
     24          1           0       -0.770831    4.028077    1.833023
     25          7           0       -2.317823    2.717608    0.303061
     26          6           0       -0.998882    2.646977    0.335036
     27          7           0       -0.252314    1.830059   -0.479082
     28          1           0        0.751671    1.841379   -0.385025
     29          6           0       -0.774445    0.971449   -1.441385
     30          8           0       -0.012647    0.275799   -2.124375
     31          6           0       -2.190261    1.036254   -1.487512
     32          7           0       -3.097221    0.356883   -2.289238
     33          6           0       -4.263425    0.802251   -1.907351
     34          1           0       -5.217937    0.483011   -2.327208
     35          1           0       -5.890868    1.789678    0.215130
     36          1           0       -4.904670    3.064995    0.464050
     37          1           0       -5.800122    2.980774   -0.896846
     38          1           0        5.639220    1.887985    1.015859
     39          1           0        5.809365    2.969087   -0.365054
     40          1           0        4.307258    2.950492    0.559436
     41          1           0        5.595553   -1.286562   -2.598953
     42          6           0        4.926186   -0.571040   -2.121255
     43          8           0        2.960963   -1.488772   -3.081868
     44          6           0        3.518620   -0.659247   -2.363741
     45          1           0        1.763134    0.263123   -1.857931
     46          7           0        2.762272    0.293319   -1.711188
     47          8           0        2.469334    2.083896   -0.345470
     48          6           0        3.218518    1.284616   -0.878896
     49          1           0        6.462976    0.494783   -1.097490
     50          6           0        5.401256    0.384889   -1.314340
     51          6           0        5.121034    2.346355    0.186726
     52          7           0        4.587059    1.304432   -0.694760
     53          1           0        5.293128    0.316632    4.027594
     54          1           0        4.051549    1.203470    3.449583
     55          1           0        5.549116    1.394474    2.829187
     56          1           0        1.716546   -3.471056   -1.257000
     57          1           0        3.399896   -3.595666   -1.010220
     58          7           0        2.535961   -3.142951   -0.786851
     59          6           0        2.480187   -2.146086    0.098767
     60          6           0        3.386090   -0.610476    1.674511
     61          7           0        2.212004   -0.021073    1.954806
     62          1           0        0.239755   -0.155036    1.413626
     63          6           0        1.230428   -0.575530    1.246293
     64          7           0        1.284264   -1.574033    0.358784
     65          1           0        6.566270   -1.163890    1.854402
     66          6           0        5.502908   -1.179477    1.613619
     67          7           0        4.944819   -1.999121    0.756653
     68          6           0        3.602695   -1.649017    0.785665
     69          6           0        4.900506    0.734297    3.208204
     70          7           0        4.618199   -0.311784    2.206182
 ---------------------------------------------------------------------

 SCF Done:  E(RwB97XD) =  -2048.75066460     A.U. after   15 cycles

 The electronic state is 1-A.
 Alpha  occ. eigenvalues --  -19.25487 -19.21745 -19.20643 -14.52304 -14.51916
 Alpha  occ. eigenvalues --  -14.49575 -14.48710 -14.47510 -14.46874 -14.46634
 Alpha  occ. eigenvalues --  -14.46588 -14.44720 -14.43539 -14.43341 -14.42700
 Alpha  occ. eigenvalues --  -14.42049 -14.41914 -14.41533 -14.40792 -14.40744
 Alpha  occ. eigenvalues --  -10.45181 -10.41153 -10.39788 -10.38858 -10.38227
 Alpha  occ. eigenvalues --  -10.37306 -10.37303 -10.36523 -10.36021 -10.35495
 Alpha  occ. eigenvalues --  -10.35087 -10.34751 -10.34259 -10.34074 -10.33794
 Alpha  occ. eigenvalues --  -10.33665 -10.33237 -10.31894 -10.31851 -10.30759
 Alpha  occ. eigenvalues --  -10.30519 -10.29168 -10.28039  -1.19146  -1.14581
 Alpha  occ. eigenvalues --   -1.13161  -1.12797  -1.12098  -1.10524  -1.09113
 Alpha  occ. eigenvalues --   -1.08515  -1.08258  -1.05617  -1.03764  -1.02270
 Alpha  occ. eigenvalues --   -1.01015  -1.00282  -0.99667  -0.98455  -0.97666
 Alpha  occ. eigenvalues --   -0.96487  -0.95899  -0.93249  -0.90644  -0.87035
 Alpha  occ. eigenvalues --   -0.85509  -0.84679  -0.84012  -0.83681  -0.83073
 Alpha  occ. eigenvalues --   -0.82391  -0.78573  -0.76220  -0.74554  -0.74024
 Alpha  occ. eigenvalues --   -0.73559  -0.73531  -0.73101  -0.71676  -0.69589
 Alpha  occ. eigenvalues --   -0.67297  -0.66945  -0.66289  -0.65908  -0.64303
 Alpha  occ. eigenvalues --   -0.63683  -0.63491  -0.63224  -0.62545  -0.61665
 Alpha  occ. eigenvalues --   -0.61440  -0.60843  -0.59756  -0.59224  -0.58776
 Alpha  occ. eigenvalues --   -0.58298  -0.57935  -0.57799  -0.57159  -0.56205
 Alpha  occ. eigenvalues --   -0.55930  -0.55715  -0.55276  -0.54739  -0.54173
 Alpha  occ. eigenvalues --   -0.53638  -0.53512  -0.53023  -0.52836  -0.52518
 Alpha  occ. eigenvalues --   -0.52430  -0.52143  -0.51704  -0.51444  -0.50869
 Alpha  occ. eigenvalues --   -0.50078  -0.49811  -0.49382  -0.49201  -0.49119
 Alpha  occ. eigenvalues --   -0.48675  -0.48317  -0.48098  -0.47612  -0.47427
 Alpha  occ. eigenvalues --   -0.47322  -0.45916  -0.45411  -0.43559  -0.42954
 Alpha  occ. eigenvalues --   -0.41753  -0.39984  -0.39167  -0.37741  -0.37352
 Alpha  occ. eigenvalues --   -0.37148  -0.37088  -0.36789  -0.35942  -0.34337
 Alpha  occ. eigenvalues --   -0.34282  -0.33990  -0.33789  -0.33480  -0.33036
 Alpha  occ. eigenvalues --   -0.32601  -0.32313  -0.31823  -0.31541  -0.31144
 Alpha  occ. eigenvalues --   -0.30980  -0.28776  -0.26426  -0.25364
 Alpha virt. eigenvalues --    0.03235   0.04777   0.07278   0.07445   0.08978
 Alpha virt. eigenvalues --    0.09223   0.09835   0.10436   0.10960   0.12116
 Alpha virt. eigenvalues --    0.13347   0.13650   0.13899   0.14673   0.14850

 Mulliken charges:
               1
     1  N   -0.308939
     2  C    0.177351
     3  C    0.048519
     4  N   -0.241558
     5  C    0.117910
     6  H    0.026899
     7  N   -0.286331
     8  C    0.139071
     9  H    0.013032
    10  N   -0.288291
    11  C    0.231208
    12  C    0.087041
    13  N   -0.040096
    14  H    0.112439
    15  H    0.091895
    16  H    0.030651
    17  H    0.036730
    18  H    0.023470
    19  N   -0.297838
    20  C    0.251719
    21  C    0.188017
    22  N   -0.120617
    23  H    0.117043
    24  H    0.118092
    25  N   -0.306460
    26  C    0.237913
    27  N   -0.144774
    28  H    0.121774
    29  C    0.181131
    30  O   -0.325458
    31  C   -0.020626
    32  N   -0.218685
    33  C    0.128793
    34  H    0.020777
    35  H    0.011940
    36  H    0.031914
    37  H    0.022085
    38  H    0.036649
    39  H    0.062927
    40  H    0.077284
    41  H    0.023267
    42  C   -0.070113
    43  O   -0.274764
    44  C    0.154237
    45  H    0.134615
    46  N   -0.118997
    47  O   -0.343182
    48  C    0.338606
    49  H    0.040390
    50  C    0.164197
    51  C    0.045693
    52  N   -0.278205
    53  H    0.034903
    54  H    0.042437
    55  H    0.011323
    56  H    0.122210
    57  H    0.117299
    58  N   -0.031981
    59  C    0.094688
    60  C    0.226048
    61  N   -0.264121
    62  H    0.031141
    63  C    0.152906
    64  N   -0.300083
    65  H    0.031057
    66  C    0.112696
    67  N   -0.243678
    68  C    0.021334
    69  C    0.181879
    70  N   -0.300400
 Sum of Mulliken charges =  -0.00000

 Dipole moment (field-independent basis, Debye):
    X=              4.6146    Y=              4.6919    Z=              5.7335  Tot=              8.7282
 Quadrupole moment (field-independent basis, Debye-Ang):
   XX=           -145.1716   YY=           -226.1038   ZZ=           -258.7415
   XY=              9.4044   XZ=             14.6448   YZ=              7.6731

 Normal termination of Gaussian 16 at Thu Jan 18 11:23:42 2018.
