 Gaussian 16, Revision A.03,
 Gaussian 16:  EM64L-G16RevA.03 25-Dec-2016

 ---------------------------------------
 #p wb97xd/cc-pvdz sp scf=(maxcycles=20)
 ---------------------------------------

 ------------------
 Base pair stacking
 ------------------
 Symbolic Z-matrix:
 Charge =  0 Multiplicity = 1

                         Standard orientation:
 ---------------------------------------------------------------------
 Center     Atomic      Atomic             Coordinates (Angstroms)
 Number     Number       Type             X           Y           Z
 ---------------------------------------------------------------------
      1          7           0        5.715491   -1.352902   -0.780879
      2          6           0        6.990702   -0.830646   -1.309161
      3          6           0        3.577376   -1.735584   -0.435431
      4          7           0        4.265310   -2.535671    0.465301
      5          6           0        5.525918   -2.273102    0.221131
      6          1           0        6.366758   -2.726327    0.746973
      7          7           0        1.854100   -0.680212   -1.651760
      8          6           0        2.820456   -0.040984   -2.318942
      9          1           0        2.476293    0.649553   -3.087688
     10          7           0        4.141907   -0.126290   -2.179726
     11          6           0        4.457854   -1.000814   -1.210289
     12          6           0        2.204506   -1.553549   -0.682447
     13          7           0        1.241301   -2.192609   -0.015337
     14          1           0        1.454592   -2.847843    0.710190
     15          1           0        0.274203   -2.038292   -0.217933
     16          1           0        7.535999   -1.585423   -1.674034
     17          1           0        6.805657   -0.171771   -2.037709
     18          1           0        7.498212   -0.379498   -0.575061
     19          7           0        4.499416    1.511605    0.906825
     20          6           0        3.162731    1.712289    0.659733
     21          6           0        5.607849    2.208297    0.223677
     22          7           0        0.637327    3.335177   -1.086773
     23          1           0       -0.361951    3.330838   -1.112663
     24          1           0        1.104749    3.958657   -1.714062
     25          7           0        2.641527    2.572720   -0.241396
     26          6           0        1.320714    2.540956   -0.248848
     27          7           0        0.566166    1.729383    0.563257
     28          1           0       -0.438670    1.771683    0.489201
     29          6           0        1.081141    0.836371    1.497705
     30          8           0        0.312441    0.149124    2.181464
     31          6           0        2.498882    0.859217    1.517274
     32          7           0        3.400642    0.137508    2.287239
     33          6           0        4.571913    0.556718    1.891499
     34          1           0        5.524477    0.201411    2.286014
     35          1           0        6.186846    1.540180   -0.242356
     36          1           0        5.233910    2.848352   -0.446228
     37          1           0        6.152293    2.710220    0.894837
     38          1           0       -5.348568    1.988562   -0.814083
     39          1           0       -5.460569    3.045447    0.591300
     40          1           0       -3.977551    3.002450   -0.362736
     41          1           0       -5.329111   -1.259752    2.734807
     42          6           0       -4.648276   -0.554198    2.258474
     43          8           0       -2.692847   -1.548013    3.161673
     44          6           0       -3.239525   -0.688079    2.471425
     45          1           0       -1.467716    0.193331    1.949781
     46          7           0       -2.468149    0.255444    1.823346
     47          8           0       -2.148915    2.064560    0.488297
     48          6           0       -2.910910    1.276479    1.020231
     49          1           0       -6.172387    0.576525    1.286692
     50          6           0       -5.110407    0.431502    1.480380
     51          6           0       -4.801444    2.414560    0.013710
     52          7           0       -4.281545    1.339677    0.863472
     53          1           0       -5.606158    0.827042   -3.832364
     54          1           0       -4.338226    1.624268   -3.185168
     55          1           0       -5.821977    1.775820   -2.522156
     56          1           0       -2.026543   -3.566749    0.957882
     57          1           0       -3.715645   -3.633278    0.728495
     58          7           0       -2.846252   -3.175405    0.539465
     59          6           0       -2.783880   -2.091185   -0.236266
     60          6           0       -3.682527   -0.380195   -1.624304
     61          7           0       -2.501187    0.213887   -1.860813
     62          1           0       -0.524012   -0.013285   -1.371165
     63          6           0       -1.520306   -0.430826   -1.232227
     64          7           0       -1.580754   -1.516911   -0.454829
     65          1           0       -6.875613   -0.852498   -1.806723
     66          6           0       -5.809238   -0.913242   -1.587426
     67          7           0       -5.254800   -1.829569   -0.832029
     68          6           0       -3.906470   -1.503213   -0.847007
     69          6           0       -5.192710    1.147839   -2.980227
     70          7           0       -4.916330   -0.003928   -2.099864
 ---------------------------------------------------------------------

 SCF Done:  E(RwB97XD) =  -2048.74880154     A.U. after   15 cycles

 The electronic state is 1-A.
 Alpha  occ. eigenvalues --  -19.25308 -19.21584 -19.20574 -14.52248 -14.52147
 Alpha  occ. eigenvalues --  -14.49470 -14.48797 -14.47418 -14.47134 -14.46796
 Alpha  occ. eigenvalues --  -14.46573 -14.45029 -14.43864 -14.43727 -14.42797
 Alpha  occ. eigenvalues --  -14.41896 -14.41887 -14.41465 -14.40826 -14.40820
 Alpha  occ. eigenvalues --  -10.45004 -10.41115 -10.39700 -10.39244 -10.38203
 Alpha  occ. eigenvalues --  -10.37677 -10.37230 -10.36862 -10.36041 -10.35399
 Alpha  occ. eigenvalues --  -10.35109 -10.34600 -10.34289 -10.34108 -10.33994
 Alpha  occ. eigenvalues --  -10.33668 -10.33339 -10.32176 -10.31956 -10.30933
 Alpha  occ. eigenvalues --  -10.30486 -10.29081 -10.28070  -1.19001  -1.14947
 Alpha  occ. eigenvalues --   -1.13135  -1.12632  -1.11992  -1.10557  -1.08967
 Alpha  occ. eigenvalues --   -1.08660  -1.08478  -1.05622  -1.04165  -1.02135
 Alpha  occ. eigenvalues --   -1.01009  -1.00661  -0.99639  -0.98442  -0.97615
 Alpha  occ. eigenvalues --   -0.96544  -0.96290  -0.93269  -0.90557  -0.87389
 Alpha  occ. eigenvalues --   -0.85884  -0.84667  -0.84056  -0.83479  -0.83103
 Alpha  occ. eigenvalues --   -0.82455  -0.78457  -0.76579  -0.74596  -0.74365
 Alpha  occ. eigenvalues --   -0.73527  -0.73518  -0.72980  -0.71637  -0.69953
 Alpha  occ. eigenvalues --   -0.67310  -0.66925  -0.66330  -0.66143  -0.64299
 Alpha  occ. eigenvalues --   -0.63793  -0.63677  -0.63296  -0.62531  -0.61887
 Alpha  occ. eigenvalues --   -0.61670  -0.60884  -0.60089  -0.59162  -0.59104
 Alpha  occ. eigenvalues --   -0.58339  -0.58195  -0.58118  -0.57171  -0.56068
 Alpha  occ. eigenvalues --   -0.55864  -0.55609  -0.55170  -0.54971  -0.54081
 Alpha  occ. eigenvalues --   -0.53778  -0.53510  -0.53352  -0.52860  -0.52571
 Alpha  occ. eigenvalues --   -0.52497  -0.52313  -0.51671  -0.51348  -0.50865
 Alpha  occ. eigenvalues --   -0.50063  -0.49908  -0.49323  -0.49251  -0.49094
 Alpha  occ. eigenvalues --   -0.48678  -0.48329  -0.48182  -0.47627  -0.47352
 Alpha  occ. eigenvalues --   -0.47242  -0.46106  -0.45312  -0.43918  -0.42920
 Alpha  occ. eigenvalues --   -0.41672  -0.40310  -0.39030  -0.37672  -0.37550
 Alpha  occ. eigenvalues --   -0.37133  -0.37100  -0.36922  -0.36008  -0.34499
 Alpha  occ. eigenvalues --   -0.34353  -0.34101  -0.33712  -0.33631  -0.32916
 Alpha  occ. eigenvalues --   -0.32541  -0.32211  -0.31822  -0.31533  -0.31280
 Alpha  occ. eigenvalues --   -0.30964  -0.29224  -0.26659  -0.25123
 Alpha virt. eigenvalues --    0.03473   0.04356   0.07266   0.07526   0.08739
 Alpha virt. eigenvalues --    0.09229   0.09801   0.10361   0.10686   0.12373
 Alpha virt. eigenvalues --    0.13154   0.13730   0.14170   0.14491   0.14896

 Mulliken charges:
               1
     1  N   -0.306324
     2  C    0.178590
     3  C    0.055947
     4  N   -0.239941
     5  C    0.118608
     6  H    0.025844
     7  N   -0.287163
     8  C    0.139079
     9  H    0.010996
    10  N   -0.282947
    11  C    0.226355
    12  C    0.083032
    13  N   -0.041843
    14  H    0.112499
    15  H    0.088563
    16  H    0.029236
    17  H    0.038249
    18  H    0.025832
    19  N   -0.293842
    20  C    0.245510
    21  C    0.196249
    22  N   -0.120657
    23  H    0.117847
    24  H    0.117898
    25  N   -0.302810
    26  C    0.237684
    27  N   -0.140271
    28  H    0.116754
    29  C    0.182109
    30  O   -0.325082
    31  C   -0.015726
    32  N   -0.214428
    33  C    0.122873
    34  H    0.018010
    35  H   -0.008865
    36  H    0.034436
    37  H    0.023913
    38  H    0.027694
    39  H    0.060306
    40  H    0.078652
    41  H    0.023642
    42  C   -0.083338
    43  O   -0.273212
    44  C    0.155553
    45  H    0.132194
    46  N   -0.110901
    47  O   -0.343021
    48  C    0.334904
    49  H    0.040635
    50  C    0.166563
    51  C    0.048724
    52  N   -0.273987
    53  H    0.033487
    54  H    0.042409
    55  H    0.021999
    56  H    0.123729
    57  H    0.118166
    58  N   -0.039979
    59  C    0.086733
    60  C    0.218852
    61  N   -0.260152
    62  H    0.027331
    63  C    0.155514
    64  N   -0.294617
    65  H    0.034005
    66  C    0.114778
    67  N   -0.245891
    68  C    0.036322
    69  C    0.181227
    70  N   -0.304531
 Sum of Mulliken charges =  -0.00000

 Dipole moment (field-independent basis, Debye):
    X=             -4.6604    Y=              4.9019    Z=             -5.8445  Tot=              8.9390
 Quadrupole moment (field-independent basis, Debye-Ang):
   XX=           -145.8888   YY=           -224.9610   ZZ=           -261.4821
   XY=            -10.5919   XZ=             10.4360   YZ=             -5.6511

 Normal termination of Gaussian 16 at Wed Jan 17 18:29:36 2018.
