 Gaussian 16, Revision A.03,
 Gaussian 16:  EM64L-G16RevA.03 25-Dec-2016

 ---------------------------------------
 #p wb97xd/cc-pvdz sp scf=(maxcycles=20)
 ---------------------------------------

 ------------------
 Base pair stacking
 ------------------
 Symbolic Z-matrix:
 Charge =  0 Multiplicity = 1

                         Standard orientation:
 ---------------------------------------------------------------------
 Center     Atomic      Atomic             Coordinates (Angstroms)
 Number     Number       Type             X           Y           Z
 ---------------------------------------------------------------------
      1          7           0        6.268470   -0.892209   -0.649394
      2          6           0        7.530976   -0.175051   -0.913559
      3          6           0        4.144512   -1.456931   -0.564536
      4          7           0        4.841309   -2.469540    0.078741
      5          6           0        6.093030   -2.088785    0.001878
      6          1           0        6.937080   -2.647705    0.407018
      7          7           0        2.412819   -0.147824   -1.486738
      8          6           0        3.366005    0.710583   -1.863759
      9          1           0        3.013191    1.592661   -2.396414
     10          7           0        4.683396    0.643290   -1.682457
     11          6           0        5.010782   -0.477724   -1.018713
     12          6           0        2.774511   -1.266175   -0.820748
     13          7           0        1.824471   -2.124268   -0.443555
     14          1           0        2.046426   -2.964954    0.051635
     15          1           0        0.859011   -1.956158   -0.642985
     16          1           0        8.134588   -0.751782   -1.464207
     17          1           0        7.337096    0.671254   -1.408839
     18          1           0        7.980336    0.043176   -0.047275
     19          7           0        3.907144    1.369343    1.272744
     20          6           0        2.574992    1.564915    0.998547
     21          6           0        5.016284    2.191263    0.748391
     22          7           0        0.064590    3.352517   -0.602738
     23          1           0       -0.932094    3.322722   -0.673279
     24          1           0        0.534022    4.075020   -1.111009
     25          7           0        2.059606    2.533015    0.210374
     26          6           0        0.742083    2.463961    0.139815
     27          7           0       -0.014695    1.519848    0.790549
     28          1           0       -1.016683    1.543095    0.678985
     29          6           0        0.494312    0.514465    1.606624
     30          8           0       -0.275933   -0.288242    2.148025
     31          6           0        1.908464    0.575763    1.692165
     32          7           0        2.804136   -0.224704    2.387814
     33          6           0        3.974506    0.282399    2.109804
     34          1           0        4.922737   -0.099036    2.490112
     35          1           0        5.636631    1.616328    0.216002
     36          1           0        4.646640    2.911736    0.163119
     37          1           0        5.515578    2.604633    1.509076
     38          1           0       -5.875777    1.805386   -0.795151
     39          1           0       -6.080763    2.640035    0.743027
     40          1           0       -4.560580    2.781537   -0.140363
     41          1           0       -5.881335   -1.928155    2.239186
     42          6           0       -5.207688   -1.140482    1.901553
     43          8           0       -3.255453   -2.198660    2.735906
     44          6           0       -3.804599   -1.262866    2.154948
     45          1           0       -2.045970   -0.262643    1.846567
     46          7           0       -3.042198   -0.211971    1.686314
     47          8           0       -2.734875    1.782609    0.644978
     48          6           0       -3.488834    0.902766    1.021918
     49          1           0       -6.731368    0.075817    1.038520
     50          6           0       -5.673400   -0.064924    1.255876
     51          6           0       -5.377306    2.120701    0.109384
     52          7           0       -4.853577    0.948119    0.815438
     53          1           0       -5.028285    1.644227   -3.511752
     54          1           0       -3.837476    2.251011   -2.575879
     55          1           0       -5.353491    2.121042   -1.985220
     56          1           0       -1.393095   -3.875983   -0.138600
     57          1           0       -3.064464   -3.940171   -0.474024
     58          7           0       -2.216788   -3.408700   -0.460038
     59          6           0       -2.187218   -2.133530   -0.852786
     60          6           0       -3.128322   -0.112897   -1.685283
     61          7           0       -1.975658    0.576253   -1.655760
     62          1           0       -0.010166    0.292470   -1.148880
     63          6           0       -0.984770   -0.190502   -1.205052
     64          7           0       -1.012380   -1.467871   -0.811187
     65          1           0       -6.277587   -0.641991   -2.189602
     66          6           0       -5.219357   -0.722351   -1.939355
     67          7           0       -4.642861   -1.805118   -1.477894
     68          6           0       -3.316809   -1.432367   -1.312478
     69          6           0       -4.669822    1.697572   -2.579732
     70          7           0       -4.361798    0.340098   -2.089422
 ---------------------------------------------------------------------

 SCF Done:  E(RwB97XD) =  -2048.71755174     A.U. after   15 cycles

 The electronic state is 1-A.
 Alpha  occ. eigenvalues --  -19.25445 -19.21743 -19.20571 -14.52328 -14.51992
 Alpha  occ. eigenvalues --  -14.50039 -14.48400 -14.47518 -14.47129 -14.46675
 Alpha  occ. eigenvalues --  -14.46431 -14.44846 -14.43617 -14.43518 -14.43124
 Alpha  occ. eigenvalues --  -14.42516 -14.41815 -14.41733 -14.41016 -14.40573
 Alpha  occ. eigenvalues --  -10.45144 -10.40991 -10.39799 -10.39103 -10.38079
 Alpha  occ. eigenvalues --  -10.37460 -10.37417 -10.36541 -10.36394 -10.35487
 Alpha  occ. eigenvalues --  -10.35173 -10.35013 -10.34404 -10.34020 -10.33884
 Alpha  occ. eigenvalues --  -10.33297 -10.33067 -10.32232 -10.32004 -10.30659
 Alpha  occ. eigenvalues --  -10.29907 -10.29583 -10.27827  -1.19239  -1.14694
 Alpha  occ. eigenvalues --   -1.13085  -1.12727  -1.12546  -1.10354  -1.09235
 Alpha  occ. eigenvalues --   -1.08427  -1.08394  -1.05976  -1.03997  -1.02307
 Alpha  occ. eigenvalues --   -1.01471  -1.00467  -0.99523  -0.98332  -0.98104
 Alpha  occ. eigenvalues --   -0.96231  -0.96097  -0.93625  -0.90858  -0.87469
 Alpha  occ. eigenvalues --   -0.86009  -0.85072  -0.83782  -0.83644  -0.83435
 Alpha  occ. eigenvalues --   -0.81945  -0.78686  -0.76409  -0.74460  -0.74150
 Alpha  occ. eigenvalues --   -0.73932  -0.73446  -0.73238  -0.72069  -0.69867
 Alpha  occ. eigenvalues --   -0.67358  -0.67145  -0.66657  -0.66022  -0.64726
 Alpha  occ. eigenvalues --   -0.63818  -0.63720  -0.63477  -0.62749  -0.62431
 Alpha  occ. eigenvalues --   -0.61509  -0.61214  -0.60094  -0.59352  -0.59069
 Alpha  occ. eigenvalues --   -0.58431  -0.58091  -0.57552  -0.57393  -0.56495
 Alpha  occ. eigenvalues --   -0.56096  -0.55827  -0.55542  -0.54810  -0.54241
 Alpha  occ. eigenvalues --   -0.54025  -0.53352  -0.53158  -0.52949  -0.52586
 Alpha  occ. eigenvalues --   -0.52492  -0.52022  -0.51396  -0.51165  -0.50409
 Alpha  occ. eigenvalues --   -0.50056  -0.49795  -0.49332  -0.49239  -0.49059
 Alpha  occ. eigenvalues --   -0.48496  -0.48418  -0.48043  -0.47952  -0.47377
 Alpha  occ. eigenvalues --   -0.47215  -0.45985  -0.45307  -0.43818  -0.42718
 Alpha  occ. eigenvalues --   -0.41949  -0.40129  -0.39203  -0.38168  -0.37319
 Alpha  occ. eigenvalues --   -0.37113  -0.37046  -0.36969  -0.35908  -0.34610
 Alpha  occ. eigenvalues --   -0.34518  -0.34153  -0.33698  -0.33580  -0.32951
 Alpha  occ. eigenvalues --   -0.32510  -0.32289  -0.31695  -0.31440  -0.31384
 Alpha  occ. eigenvalues --   -0.31246  -0.28879  -0.26807  -0.25249
 Alpha virt. eigenvalues --    0.02785   0.05102   0.06852   0.07039   0.09033
 Alpha virt. eigenvalues --    0.09209   0.09736   0.10354   0.11124   0.12060
 Alpha virt. eigenvalues --    0.13090   0.13191   0.14353   0.14584   0.15001

 Mulliken charges:
               1
     1  N   -0.310832
     2  C    0.178589
     3  C    0.057004
     4  N   -0.246883
     5  C    0.122639
     6  H    0.029035
     7  N   -0.275253
     8  C    0.139272
     9  H    0.012735
    10  N   -0.287381
    11  C    0.223231
    12  C    0.082671
    13  N   -0.040279
    14  H    0.109762
    15  H    0.090241
    16  H    0.031619
    17  H    0.041157
    18  H    0.024395
    19  N   -0.289384
    20  C    0.232290
    21  C    0.205323
    22  N   -0.109941
    23  H    0.115080
    24  H    0.116243
    25  N   -0.295498
    26  C    0.215107
    27  N   -0.142120
    28  H    0.130397
    29  C    0.164803
    30  O   -0.323667
    31  C   -0.000356
    32  N   -0.221922
    33  C    0.125611
    34  H    0.021513
    35  H   -0.002508
    36  H    0.029321
    37  H    0.016661
    38  H    0.043710
    39  H    0.060201
    40  H    0.072685
    41  H    0.027161
    42  C   -0.080586
    43  O   -0.267722
    44  C    0.170275
    45  H    0.133679
    46  N   -0.123137
    47  O   -0.333714
    48  C    0.326699
    49  H    0.041555
    50  C    0.158497
    51  C    0.050355
    52  N   -0.275371
    53  H    0.028616
    54  H    0.039267
    55  H    0.002442
    56  H    0.120728
    57  H    0.120541
    58  N   -0.056566
    59  C    0.122703
    60  C    0.203933
    61  N   -0.259039
    62  H    0.039914
    63  C    0.143780
    64  N   -0.305001
    65  H    0.031743
    66  C    0.115948
    67  N   -0.242380
    68  C    0.029113
    69  C    0.185868
    70  N   -0.294571
 Sum of Mulliken charges =  -0.00000

 Dipole moment (field-independent basis, Debye):
    X=             -4.3022    Y=              5.3200    Z=             -5.4322  Tot=              8.7361
 Quadrupole moment (field-independent basis, Debye-Ang):
   XX=           -144.6847   YY=           -224.7653   ZZ=           -263.3991
   XY=            -14.6296   XZ=             14.1561   YZ=              2.1554

 Normal termination of Gaussian 16 at Wed Jan 17 22:02:10 2018.
