 Gaussian 16, Revision A.03,
 Gaussian 16:  EM64L-G16RevA.03 25-Dec-2016

 ---------------------------------------
 #p wb97xd/cc-pvdz sp scf=(maxcycles=20)
 ---------------------------------------

 ------------------
 Base pair stacking
 ------------------
 Symbolic Z-matrix:
 Charge =  0 Multiplicity = 1

                         Standard orientation:
 ---------------------------------------------------------------------
 Center     Atomic      Atomic             Coordinates (Angstroms)
 Number     Number       Type             X           Y           Z
 ---------------------------------------------------------------------
      1          7           0        5.708529   -1.093995   -0.952714
      2          6           0        6.981983   -0.428339   -1.289172
      3          6           0        3.572183   -1.579975   -0.759943
      4          7           0        4.261755   -2.603691   -0.126516
      5          6           0        5.521227   -2.269935   -0.268010
      6          1           0        6.362815   -2.850506    0.110955
      7          7           0        1.847074   -0.228445   -1.631894
      8          6           0        2.811520    0.587195   -2.070257
      9          1           0        2.465846    1.470360   -2.605791
     10          7           0        4.132647    0.476206   -1.946980
     11          6           0        4.450556   -0.642097   -1.274100
     12          6           0        2.199427   -1.345270   -0.958379
     13          7           0        1.238141   -2.160699   -0.520000
     14          1           0        1.452907   -2.998537   -0.016900
     15          1           0        0.271055   -1.962023   -0.679435
     16          1           0        7.539181   -1.037548   -1.853588
     17          1           0        6.795445    0.414122   -1.793757
     18          1           0        7.477897   -0.208793   -0.449014
     19          7           0        4.508274    1.215887    1.107929
     20          6           0        3.172658    1.453695    0.889727
     21          6           0        5.620394    1.986445    0.516205
     22          7           0        0.655826    3.297504   -0.635958
     23          1           0       -0.343474    3.302202   -0.660900
     24          1           0        1.126552    3.992105   -1.180627
     25          7           0        2.655997    2.423439    0.104411
     26          6           0        1.335015    2.400464    0.094748
     27          7           0        0.576169    1.497717    0.799529
     28          1           0       -0.428432    1.554759    0.732679
     29          6           0        1.086422    0.491513    1.613815
     30          8           0        0.314085   -0.271696    2.206891
     31          6           0        2.504285    0.503557    1.634255
     32          7           0        3.402231   -0.314275    2.306358
     33          6           0        4.575715    0.144545    1.964860
     34          1           0        5.526407   -0.262958    2.310405
     35          1           0        6.195187    1.378791   -0.030760
     36          1           0        5.249844    2.707668   -0.067569
     37          1           0        6.168160    2.396996    1.244364
     38          1           0       -5.337714    1.961792   -0.526698
     39          1           0       -5.442708    2.834514    1.000385
     40          1           0       -3.960515    2.903092    0.046574
     41          1           0       -5.335323   -1.706396    2.586332
     42          6           0       -4.650628   -0.950561    2.201452
     43          8           0       -2.700562   -2.061137    2.970205
     44          6           0       -3.242567   -1.118223    2.394074
     45          1           0       -1.465905   -0.188504    1.984907
     46          7           0       -2.466032   -0.105264    1.868565
     47          8           0       -2.136934    1.855273    0.770764
     48          6           0       -2.903242    1.011043    1.200546
     49          1           0       -6.168619    0.301961    1.381272
     50          6           0       -5.107399    0.127663    1.553843
     51          6           0       -4.787625    2.277339    0.347314
     52          7           0       -4.273573    1.101310    1.054745
     53          1           0       -5.611495    1.788811   -3.358973
     54          1           0       -4.358556    2.371289   -2.491228
     55          1           0       -5.849578    2.308100   -1.830214
     56          1           0       -2.021541   -3.788759   -0.032026
     57          1           0       -3.707729   -3.799534   -0.290404
     58          7           0       -2.842189   -3.298765   -0.326285
     59          6           0       -2.785928   -2.033772   -0.747964
     60          6           0       -3.692714    0.002036   -1.581594
     61          7           0       -2.516452    0.649670   -1.619164
     62          1           0       -0.540995    0.305674   -1.195116
     63          6           0       -1.533473   -0.142916   -1.196717
     64          7           0       -1.587800   -1.410168   -0.773962
     65          1           0       -6.878380   -0.423437   -1.931885
     66          6           0       -5.813267   -0.536743   -1.727807
     67          7           0       -5.254577   -1.629936   -1.269023
     68          6           0       -3.910091   -1.301901   -1.171690
     69          6           0       -5.209108    1.848224   -2.445431
     70          7           0       -4.926749    0.490837   -1.939686
 ---------------------------------------------------------------------

 SCF Done:  E(RwB97XD) =  -2048.72191610     A.U. after   15 cycles

 The electronic state is 1-A.
 Alpha  occ. eigenvalues --  -19.25003 -19.21453 -19.20534 -14.52497 -14.51914
 Alpha  occ. eigenvalues --  -14.49603 -14.48699 -14.47529 -14.47296 -14.46697
 Alpha  occ. eigenvalues --  -14.46587 -14.45304 -14.44034 -14.44030 -14.43045
 Alpha  occ. eigenvalues --  -14.42040 -14.41769 -14.41433 -14.40864 -14.40808
 Alpha  occ. eigenvalues --  -10.44744 -10.41026 -10.39560 -10.39535 -10.38155
 Alpha  occ. eigenvalues --  -10.37955 -10.37140 -10.37108 -10.36213 -10.35607
 Alpha  occ. eigenvalues --  -10.34709 -10.34383 -10.34348 -10.34180 -10.34091
 Alpha  occ. eigenvalues --  -10.33770 -10.33319 -10.32441 -10.32159 -10.30646
 Alpha  occ. eigenvalues --  -10.30427 -10.29152 -10.28045  -1.18843  -1.15301
 Alpha  occ. eigenvalues --   -1.13110  -1.12462  -1.12133  -1.10491  -1.09030
 Alpha  occ. eigenvalues --   -1.08725  -1.08440  -1.05764  -1.04476  -1.02005
 Alpha  occ. eigenvalues --   -1.01185  -1.01093  -0.99612  -0.98387  -0.97819
 Alpha  occ. eigenvalues --   -0.96606  -0.96467  -0.93416  -0.90459  -0.87914
 Alpha  occ. eigenvalues --   -0.86471  -0.84906  -0.83970  -0.83365  -0.83171
 Alpha  occ. eigenvalues --   -0.82281  -0.78326  -0.76892  -0.74740  -0.74475
 Alpha  occ. eigenvalues --   -0.73677  -0.73486  -0.72885  -0.71777  -0.70309
 Alpha  occ. eigenvalues --   -0.67306  -0.67070  -0.66705  -0.66176  -0.64412
 Alpha  occ. eigenvalues --   -0.64190  -0.63931  -0.63477  -0.62753  -0.62487
 Alpha  occ. eigenvalues --   -0.61641  -0.61121  -0.60441  -0.59463  -0.59145
 Alpha  occ. eigenvalues --   -0.58941  -0.58291  -0.58136  -0.57351  -0.56328
 Alpha  occ. eigenvalues --   -0.55692  -0.55628  -0.55361  -0.54744  -0.54007
 Alpha  occ. eigenvalues --   -0.53897  -0.53721  -0.53374  -0.52900  -0.52762
 Alpha  occ. eigenvalues --   -0.52551  -0.52135  -0.51436  -0.50984  -0.50668
 Alpha  occ. eigenvalues --   -0.50064  -0.49867  -0.49507  -0.49090  -0.48916
 Alpha  occ. eigenvalues --   -0.48598  -0.48500  -0.48094  -0.47826  -0.47120
 Alpha  occ. eigenvalues --   -0.47092  -0.46032  -0.45527  -0.43984  -0.42569
 Alpha  occ. eigenvalues --   -0.41788  -0.40587  -0.38864  -0.37800  -0.37716
 Alpha  occ. eigenvalues --   -0.37367  -0.37043  -0.36694  -0.36036  -0.34685
 Alpha  occ. eigenvalues --   -0.34574  -0.34357  -0.33816  -0.33606  -0.32818
 Alpha  occ. eigenvalues --   -0.32433  -0.32103  -0.31744  -0.31601  -0.31223
 Alpha  occ. eigenvalues --   -0.31048  -0.29340  -0.26894  -0.24985
 Alpha virt. eigenvalues --    0.03611   0.04119   0.07166   0.07354   0.08804
 Alpha virt. eigenvalues --    0.09164   0.09693   0.10293   0.10510   0.12600
 Alpha virt. eigenvalues --    0.13093   0.13606   0.14302   0.14521   0.14788

 Mulliken charges:
               1
     1  N   -0.306859
     2  C    0.192557
     3  C    0.066022
     4  N   -0.242605
     5  C    0.120001
     6  H    0.026179
     7  N   -0.282575
     8  C    0.143275
     9  H    0.007081
    10  N   -0.277206
    11  C    0.214684
    12  C    0.075708
    13  N   -0.043185
    14  H    0.111125
    15  H    0.087635
    16  H    0.026213
    17  H    0.042462
    18  H    0.026146
    19  N   -0.285294
    20  C    0.227015
    21  C    0.216334
    22  N   -0.113272
    23  H    0.117853
    24  H    0.117485
    25  N   -0.291582
    26  C    0.221108
    27  N   -0.132432
    28  H    0.115219
    29  C    0.175693
    30  O   -0.323030
    31  C   -0.001565
    32  N   -0.214790
    33  C    0.119917
    34  H    0.017167
    35  H   -0.047902
    36  H    0.036606
    37  H    0.023821
    38  H    0.037214
    39  H    0.054470
    40  H    0.076020
    41  H    0.024955
    42  C   -0.089011
    43  O   -0.269698
    44  C    0.161364
    45  H    0.131246
    46  N   -0.111738
    47  O   -0.336413
    48  C    0.327276
    49  H    0.040138
    50  C    0.164604
    51  C    0.041235
    52  N   -0.270153
    53  H    0.028768
    54  H    0.041992
    55  H    0.015663
    56  H    0.123007
    57  H    0.120022
    58  N   -0.053095
    59  C    0.103450
    60  C    0.204942
    61  N   -0.252107
    62  H    0.025083
    63  C    0.155111
    64  N   -0.295487
    65  H    0.035240
    66  C    0.116613
    67  N   -0.244991
    68  C    0.041433
    69  C    0.197056
    70  N   -0.309219
 Sum of Mulliken charges =  -0.00000

 Dipole moment (field-independent basis, Debye):
    X=             -4.6144    Y=              5.5424    Z=             -5.6491  Tot=              9.1610
 Quadrupole moment (field-independent basis, Debye-Ang):
   XX=           -146.3874   YY=           -224.2376   ZZ=           -264.6441
   XY=            -12.4854   XZ=              8.2805   YZ=              1.9446

 Normal termination of Gaussian 16 at Wed Jan 17 20:46:09 2018.
