 Gaussian 16, Revision A.03,
 Gaussian 16:  EM64L-G16RevA.03 25-Dec-2016

 ---------------------------------------
 #p wb97xd/cc-pvdz sp scf=(maxcycles=20)
 ---------------------------------------

 ------------------
 Base pair stacking
 ------------------
 Symbolic Z-matrix:
 Charge =  0 Multiplicity = 1

                         Standard orientation:
 ---------------------------------------------------------------------
 Center     Atomic      Atomic             Coordinates (Angstroms)
 Number     Number       Type             X           Y           Z
 ---------------------------------------------------------------------
      1          7           0       -6.296466   -1.115844    0.517320
      2          6           0       -7.567606   -0.563606    1.024502
      3          6           0       -4.164758   -1.574565    0.229706
      4          7           0       -4.851396   -2.301906   -0.731669
      5          6           0       -6.108188   -1.996424   -0.519913
      6          1           0       -6.947004   -2.388165   -1.095989
      7          7           0       -2.445524   -0.651837    1.554737
      8          6           0       -3.408590   -0.002625    2.217008
      9          1           0       -3.064837    0.636317    3.029316
     10          7           0       -4.726353   -0.024092    2.027402
     11          6           0       -5.042124   -0.838675    1.007022
     12          6           0       -2.795655   -1.463743    0.533323
     13          7           0       -1.835724   -2.112649   -0.128975
     14          1           0       -2.048949   -2.724020   -0.891847
     15          1           0       -0.871257   -2.009859    0.114685
     16          1           0       -8.157080   -1.310008    1.333691
     17          1           0       -7.382548    0.052480    1.789558
     18          1           0       -8.028203   -0.057674    0.295207
     19          7           0       -3.870886    1.778424   -1.046648
     20          6           0       -2.535563    1.918836   -0.754704
     21          6           0       -4.965122    2.559011   -0.435069
     22          7           0        0.006135    3.476742    1.027006
     23          1           0        1.002060    3.421280    1.092577
     24          1           0       -0.450309    4.148558    1.610990
     25          7           0       -2.003033    2.786518    0.132765
     26          6           0       -0.687042    2.686160    0.193700
     27          7           0        0.052730    1.804218   -0.556249
     28          1           0        1.054910    1.796955   -0.444164
     29          6           0       -0.474072    0.902376   -1.475497
     30          8           0        0.281689    0.148921   -2.101488
     31          6           0       -1.886804    0.998405   -1.552025
     32          7           0       -2.796541    0.294302   -2.328896
     33          6           0       -3.957610    0.789706   -1.996158
     34          1           0       -4.912420    0.468998   -2.414177
     35          1           0       -5.596245    1.941360    0.032909
     36          1           0       -4.582720    3.205141    0.224128
     37          1           0       -5.456267    3.061211   -1.145976
     38          1           0        5.917039    1.809551    1.043192
     39          1           0        6.138274    2.801624   -0.396076
     40          1           0        4.620367    2.874616    0.499462
     41          1           0        5.856165   -1.573732   -2.376794
     42          6           0        5.196842   -0.814966   -1.955129
     43          8           0        3.226093   -1.740934   -2.896323
     44          6           0        3.791917   -0.883592   -2.218380
     45          1           0        2.051702    0.109438   -1.801390
     46          7           0        3.048595    0.124269   -1.637932
     47          8           0        2.777179    1.999939   -0.386767
     48          6           0        3.515141    1.152337   -0.857583
     49          1           0        6.741999    0.272882   -0.967759
     50          6           0        5.681770    0.175820   -1.197636
     51          6           0        5.425017    2.229812    0.178694
     52          7           0        4.880349    1.150165   -0.649225
     53          1           0        4.984645    0.428974    4.066068
     54          1           0        3.776000    1.309281    3.413124
     55          1           0        5.288436    1.426655    2.810772
     56          1           0        1.406032   -3.581001   -1.050492
     57          1           0        3.081179   -3.731135   -0.765107
     58          7           0        2.225181   -3.245175   -0.585328
     59          6           0        2.179160   -2.196025    0.238287
     60          6           0        3.095970   -0.591117    1.736771
     61          7           0        1.932411    0.042130    1.959408
     62          1           0       -0.032900   -0.076418    1.390122
     63          6           0        0.949623   -0.529932    1.266747
     64          7           0        0.993699   -1.580782    0.441306
     65          1           0        6.257611   -1.209242    2.009033
     66          6           0        5.198539   -1.213589    1.749637
     67          7           0        4.634939   -2.069377    0.932537
     68          6           0        3.301744   -1.685922    0.915436
     69          6           0        4.616933    0.806170    3.216061
     70          7           0        4.325813   -0.290906    2.272835
 ---------------------------------------------------------------------

 SCF Done:  E(RwB97XD) =  -2048.75112150     A.U. after   15 cycles

 The electronic state is 1-A.
 Alpha  occ. eigenvalues --  -19.25653 -19.21933 -19.20632 -14.52380 -14.51670
 Alpha  occ. eigenvalues --  -14.49742 -14.48593 -14.47595 -14.46847 -14.46546
 Alpha  occ. eigenvalues --  -14.46429 -14.44476 -14.43283 -14.43092 -14.42765
 Alpha  occ. eigenvalues --  -14.42284 -14.41882 -14.41709 -14.40904 -14.40689
 Alpha  occ. eigenvalues --  -10.45315 -10.41111 -10.39903 -10.38607 -10.38177
 Alpha  occ. eigenvalues --  -10.37365 -10.37031 -10.36194 -10.36136 -10.35718
 Alpha  occ. eigenvalues --  -10.34966 -10.34828 -10.34229 -10.34201 -10.33782
 Alpha  occ. eigenvalues --  -10.33569 -10.33180 -10.31935 -10.31573 -10.30632
 Alpha  occ. eigenvalues --  -10.30518 -10.29364 -10.27974  -1.19285  -1.14308
 Alpha  occ. eigenvalues --   -1.13140  -1.12917  -1.12285  -1.10468  -1.09226
 Alpha  occ. eigenvalues --   -1.08490  -1.07992  -1.05743  -1.03499  -1.02381
 Alpha  occ. eigenvalues --   -1.01152  -1.00026  -0.99634  -0.98422  -0.97824
 Alpha  occ. eigenvalues --   -0.96400  -0.95635  -0.93367  -0.90745  -0.86779
 Alpha  occ. eigenvalues --   -0.85269  -0.84816  -0.83943  -0.83812  -0.83188
 Alpha  occ. eigenvalues --   -0.82253  -0.78680  -0.75968  -0.74488  -0.73783
 Alpha  occ. eigenvalues --   -0.73682  -0.73502  -0.73205  -0.71827  -0.69344
 Alpha  occ. eigenvalues --   -0.67252  -0.67079  -0.66390  -0.65658  -0.64335
 Alpha  occ. eigenvalues --   -0.63658  -0.63513  -0.63098  -0.62529  -0.61615
 Alpha  occ. eigenvalues --   -0.61297  -0.60935  -0.59567  -0.59298  -0.58581
 Alpha  occ. eigenvalues --   -0.58253  -0.57745  -0.57711  -0.57252  -0.56289
 Alpha  occ. eigenvalues --   -0.56009  -0.55796  -0.55299  -0.54511  -0.54244
 Alpha  occ. eigenvalues --   -0.53597  -0.53486  -0.52861  -0.52776  -0.52613
 Alpha  occ. eigenvalues --   -0.52447  -0.51926  -0.51669  -0.51541  -0.50973
 Alpha  occ. eigenvalues --   -0.50031  -0.49863  -0.49353  -0.49103  -0.48923
 Alpha  occ. eigenvalues --   -0.48645  -0.48304  -0.48061  -0.47715  -0.47554
 Alpha  occ. eigenvalues --   -0.47342  -0.45804  -0.45407  -0.43654  -0.43044
 Alpha  occ. eigenvalues --   -0.41892  -0.39760  -0.39280  -0.37926  -0.37143
 Alpha  occ. eigenvalues --   -0.37121  -0.37076  -0.36606  -0.35917  -0.34393
 Alpha  occ. eigenvalues --   -0.34311  -0.34000  -0.33753  -0.33256  -0.33139
 Alpha  occ. eigenvalues --   -0.32611  -0.32227  -0.31785  -0.31669  -0.31247
 Alpha  occ. eigenvalues --   -0.31093  -0.28522  -0.26549  -0.25315
 Alpha virt. eigenvalues --    0.02895   0.05282   0.07128   0.07467   0.09041
 Alpha virt. eigenvalues --    0.09413   0.09875   0.10329   0.11082   0.12034
 Alpha virt. eigenvalues --    0.13261   0.13481   0.14015   0.14793   0.14917

 Mulliken charges:
               1
     1  N   -0.310495
     2  C    0.178294
     3  C    0.043865
     4  N   -0.245255
     5  C    0.121076
     6  H    0.028108
     7  N   -0.282810
     8  C    0.136925
     9  H    0.014662
    10  N   -0.289463
    11  C    0.232467
    12  C    0.091752
    13  N   -0.039332
    14  H    0.111323
    15  H    0.091800
    16  H    0.030499
    17  H    0.036412
    18  H    0.023593
    19  N   -0.299654
    20  C    0.253468
    21  C    0.187067
    22  N   -0.119648
    23  H    0.116046
    24  H    0.117818
    25  N   -0.305342
    26  C    0.235175
    27  N   -0.143646
    28  H    0.124184
    29  C    0.172060
    30  O   -0.325229
    31  C   -0.013035
    32  N   -0.224733
    33  C    0.130047
    34  H    0.023108
    35  H    0.016463
    36  H    0.030404
    37  H    0.020722
    38  H    0.044448
    39  H    0.064183
    40  H    0.076367
    41  H    0.024690
    42  C   -0.064470
    43  O   -0.272612
    44  C    0.161231
    45  H    0.134962
    46  N   -0.124024
    47  O   -0.342979
    48  C    0.338544
    49  H    0.040987
    50  C    0.157537
    51  C    0.041896
    52  N   -0.279182
    53  H    0.034690
    54  H    0.041409
    55  H    0.002412
    56  H    0.120305
    57  H    0.118239
    58  N   -0.036779
    59  C    0.107583
    60  C    0.221767
    61  N   -0.267635
    62  H    0.033727
    63  C    0.151574
    64  N   -0.303438
    65  H    0.028687
    66  C    0.116517
    67  N   -0.243040
    68  C    0.015677
    69  C    0.185683
    70  N   -0.297653
 Sum of Mulliken charges =  -0.00000

 Dipole moment (field-independent basis, Debye):
    X=              4.5220    Y=              4.8579    Z=              5.4086  Tot=              8.5616
 Quadrupole moment (field-independent basis, Debye-Ang):
   XX=           -144.2322   YY=           -225.8312   ZZ=           -258.4897
   XY=             10.2503   XZ=             17.4372   YZ=              5.8190

 Normal termination of Gaussian 16 at Thu Jan 18 12:13:54 2018.
