 Gaussian 16, Revision A.03,
 Gaussian 16:  EM64L-G16RevA.03 25-Dec-2016

 ---------------------------------------
 #p wb97xd/cc-pvdz sp scf=(maxcycles=20)
 ---------------------------------------

 ------------------
 Base pair stacking
 ------------------
 Symbolic Z-matrix:
 Charge =  0 Multiplicity = 1

                         Standard orientation:
 ---------------------------------------------------------------------
 Center     Atomic      Atomic             Coordinates (Angstroms)
 Number     Number       Type             X           Y           Z
 ---------------------------------------------------------------------
      1          7           0       -6.782428    0.635930   -0.380666
      2          6           0       -8.024310   -0.154035   -0.488797
      3          6           0       -4.680698    1.278696   -0.463561
      4          7           0       -5.393469    2.348648    0.057870
      5          6           0       -6.631158    1.918586    0.086938
      6          1           0       -7.481587    2.500718    0.443070
      7          7           0       -2.932763   -0.089297   -1.261218
      8          6           0       -3.864221   -1.024626   -1.473630
      9          1           0       -3.496145   -1.961310   -1.890044
     10          7           0       -5.175932   -0.976833   -1.249941
     11          6           0       -5.523350    0.215804   -0.738736
     12          6           0       -3.314254    1.099868   -0.746006
     13          7           0       -2.385910    2.034789   -0.533262
     14          1           0       -2.623019    2.929615   -0.153394
     15          1           0       -1.422304    1.872748   -0.746214
     16          1           0       -8.669431    0.317226   -1.090380
     17          1           0       -7.815024   -1.055392   -0.866808
     18          1           0       -8.433548   -0.261290    0.417302
     19          7           0       -3.335272   -1.327387    1.412416
     20          6           0       -2.009007   -1.507435    1.101569
     21          6           0       -4.441006   -2.203328    0.975625
     22          7           0        0.488203   -3.324999   -0.486580
     23          1           0        1.480750   -3.276237   -0.594752
     24          1           0        0.019644   -4.085998   -0.936087
     25          7           0       -1.497225   -2.506774    0.350919
     26          6           0       -0.185120   -2.411406    0.228894
     27          7           0        0.569914   -1.414441    0.797678
     28          1           0        1.567663   -1.420842    0.651356
     29          6           0        0.064550   -0.376149    1.573830
     30          8           0        0.832783    0.473748    2.040981
     31          6           0       -1.343766   -0.465148    1.713863
     32          7           0       -2.234482    0.352785    2.395402
     33          6           0       -3.400722   -0.196282    2.188929
     34          1           0       -4.344412    0.184206    2.581292
     35          1           0       -5.093797   -1.674219    0.434588
     36          1           0       -4.073990   -2.947296    0.418791
     37          1           0       -4.902930   -2.584031    1.775949
     38          1           0        6.377473   -1.654436   -0.980775
     39          1           0        6.656880   -2.394943    0.593455
     40          1           0        5.110856   -2.621766   -0.224917
     41          1           0        6.394956    2.245359    1.836646
     42          6           0        5.729958    1.424331    1.568463
     43          8           0        3.782012    2.482998    2.412181
     44          6           0        4.333923    1.528508    1.865239
     45          1           0        2.591315    0.471914    1.677513
     46          7           0        3.582311    0.435229    1.484372
     47          8           0        3.289114   -1.622119    0.568643
     48          6           0        4.033394   -0.704989    0.867950
     49          1           0        7.252720    0.196316    0.720539
     50          6           0        6.199769    0.324730    0.967829
     51          6           0        5.918930   -1.929034   -0.042486
     52          7           0        5.390815   -0.730492    0.615036
     53          1           0        4.496234   -1.898980   -3.314842
     54          1           0        3.364383   -2.405786   -2.254571
     55          1           0        4.894200   -2.141348   -1.750772
     56          1           0        0.768965    3.920242   -0.611196
     57          1           0        2.423484    3.992475   -1.020413
     58          7           0        1.598444    3.440010   -0.896677
     59          6           0        1.605145    2.121535   -1.103426
     60          6           0        2.594851    0.035738   -1.679316
     61          7           0        1.472024   -0.680809   -1.505415
     62          1           0       -0.483791   -0.394319   -0.963836
     63          6           0        0.468398    0.108437   -1.127628
     64          7           0        0.459679    1.429193   -0.920009
     65          1           0        5.700848    0.593816   -2.381836
     66          6           0        4.649867    0.673184   -2.102414
     67          7           0        4.047973    1.790619   -1.775678
     68          6           0        2.744374    1.400574   -1.505055
     69          6           0        4.173620   -1.830664   -2.370778
     70          7           0        3.830023   -0.428289   -2.065370
 ---------------------------------------------------------------------

 SCF Done:  E(RwB97XD) =  -2048.69183846     A.U. after   15 cycles

 The electronic state is 1-A.
 Alpha  occ. eigenvalues --  -19.26089 -19.22022 -19.20464 -14.52866 -14.51329
 Alpha  occ. eigenvalues --  -14.50405 -14.48000 -14.47953 -14.46822 -14.46149
 Alpha  occ. eigenvalues --  -14.46077 -14.44236 -14.43402 -14.43140 -14.42989
 Alpha  occ. eigenvalues --  -14.42859 -14.42218 -14.41719 -14.41405 -14.40424
 Alpha  occ. eigenvalues --  -10.45736 -10.40664 -10.40109 -10.38673 -10.37897
 Alpha  occ. eigenvalues --  -10.37835 -10.36930 -10.36762 -10.36322 -10.35998
 Alpha  occ. eigenvalues --  -10.35630 -10.34865 -10.34859 -10.34252 -10.33886
 Alpha  occ. eigenvalues --  -10.32892 -10.32740 -10.32341 -10.31297 -10.31178
 Alpha  occ. eigenvalues --  -10.30163 -10.28425 -10.27745  -1.19850  -1.14083
 Alpha  occ. eigenvalues --   -1.13065  -1.13044  -1.12944  -1.10198  -1.09730
 Alpha  occ. eigenvalues --   -1.08287  -1.07995  -1.06488  -1.03628  -1.02722
 Alpha  occ. eigenvalues --   -1.02063  -0.99848  -0.99282  -0.98487  -0.98197
 Alpha  occ. eigenvalues --   -0.95963  -0.95639  -0.94165  -0.91357  -0.86863
 Alpha  occ. eigenvalues --   -0.85644  -0.85512  -0.83999  -0.83806  -0.83504
 Alpha  occ. eigenvalues --   -0.81408  -0.79141  -0.76014  -0.74419  -0.74122
 Alpha  occ. eigenvalues --   -0.73831  -0.73663  -0.73255  -0.72593  -0.69431
 Alpha  occ. eigenvalues --   -0.67784  -0.67052  -0.66718  -0.65870  -0.64950
 Alpha  occ. eigenvalues --   -0.64190  -0.63382  -0.63216  -0.62635  -0.62020
 Alpha  occ. eigenvalues --   -0.61537  -0.61280  -0.59952  -0.59624  -0.58816
 Alpha  occ. eigenvalues --   -0.58550  -0.57886  -0.57865  -0.57181  -0.56811
 Alpha  occ. eigenvalues --   -0.56563  -0.56158  -0.55961  -0.54782  -0.54467
 Alpha  occ. eigenvalues --   -0.54211  -0.53473  -0.53367  -0.53033  -0.52360
 Alpha  occ. eigenvalues --   -0.52211  -0.51723  -0.51592  -0.51146  -0.50900
 Alpha  occ. eigenvalues --   -0.50433  -0.49806  -0.49525  -0.48791  -0.48595
 Alpha  occ. eigenvalues --   -0.48483  -0.48213  -0.48102  -0.47867  -0.47408
 Alpha  occ. eigenvalues --   -0.47155  -0.45913  -0.45446  -0.44289  -0.42985
 Alpha  occ. eigenvalues --   -0.41115  -0.40003  -0.39672  -0.38706  -0.37185
 Alpha  occ. eigenvalues --   -0.36957  -0.36764  -0.36409  -0.35633  -0.35131
 Alpha  occ. eigenvalues --   -0.34832  -0.34050  -0.33519  -0.33323  -0.33147
 Alpha  occ. eigenvalues --   -0.32543  -0.32461  -0.31807  -0.31772  -0.31635
 Alpha  occ. eigenvalues --   -0.31319  -0.28172  -0.26816  -0.25092
 Alpha virt. eigenvalues --    0.02808   0.05105   0.06218   0.08003   0.08463
 Alpha virt. eigenvalues --    0.08862   0.09694   0.10361   0.11217   0.11878
 Alpha virt. eigenvalues --    0.12303   0.13059   0.14605   0.14779   0.14937

 Mulliken charges:
               1
     1  N   -0.312331
     2  C    0.179534
     3  C    0.051371
     4  N   -0.253081
     5  C    0.131588
     6  H    0.031228
     7  N   -0.256847
     8  C    0.109806
     9  H    0.021518
    10  N   -0.293534
    11  C    0.232124
    12  C    0.084538
    13  N   -0.037766
    14  H    0.107417
    15  H    0.088196
    16  H    0.030874
    17  H    0.037113
    18  H    0.027199
    19  N   -0.293115
    20  C    0.236403
    21  C    0.207851
    22  N   -0.093902
    23  H    0.111713
    24  H    0.112500
    25  N   -0.284878
    26  C    0.196557
    27  N   -0.124902
    28  H    0.131716
    29  C    0.140575
    30  O   -0.324719
    31  C    0.017551
    32  N   -0.224970
    33  C    0.114841
    34  H    0.022737
    35  H    0.018382
    36  H    0.020584
    37  H    0.008835
    38  H    0.045633
    39  H    0.061667
    40  H    0.079286
    41  H    0.031781
    42  C   -0.086025
    43  O   -0.263129
    44  C    0.182834
    45  H    0.132373
    46  N   -0.121037
    47  O   -0.342531
    48  C    0.334649
    49  H    0.043902
    50  C    0.155590
    51  C    0.065313
    52  N   -0.282354
    53  H    0.028629
    54  H    0.029537
    55  H   -0.030774
    56  H    0.117471
    57  H    0.121335
    58  N   -0.066525
    59  C    0.136407
    60  C    0.210934
    61  N   -0.291959
    62  H    0.029475
    63  C    0.181706
    64  N   -0.309000
    65  H    0.025836
    66  C    0.114012
    67  N   -0.249169
    68  C    0.029866
    69  C    0.200404
    70  N   -0.288841
 Sum of Mulliken charges =  -0.00000

 Dipole moment (field-independent basis, Debye):
    X=              4.0006    Y=             -5.3245    Z=             -5.1984  Tot=              8.4485
 Quadrupole moment (field-independent basis, Debye-Ang):
   XX=           -139.6987   YY=           -226.9863   ZZ=           -261.9519
   XY=            -18.7623   XZ=            -17.6645   YZ=             -4.6459

 Normal termination of Gaussian 16 at Thu Jan 18 04:16:45 2018.
