 Gaussian 16, Revision A.03,
 Gaussian 16:  EM64L-G16RevA.03 25-Dec-2016

 ---------------------------------------
 #p wb97xd/cc-pvdz sp scf=(maxcycles=20)
 ---------------------------------------

 ------------------
 Base pair stacking
 ------------------
 Symbolic Z-matrix:
 Charge =  0 Multiplicity = 1

                         Standard orientation:
 ---------------------------------------------------------------------
 Center     Atomic      Atomic             Coordinates (Angstroms)
 Number     Number       Type             X           Y           Z
 ---------------------------------------------------------------------
      1          7           0       -5.718936   -1.479442    0.653336
      2          6           0       -6.994330   -1.055433    1.262935
      3          6           0       -3.580518   -1.789558    0.243064
      4          7           0       -4.268566   -2.440355   -0.770742
      5          6           0       -5.529346   -2.227469   -0.482987
      6          1           0       -6.370305   -2.596328   -1.070920
      7          7           0       -1.856993   -0.930759    1.605001
      8          6           0       -2.823486   -0.411520    2.369111
      9          1           0       -2.479269    0.150039    3.236531
     10          7           0       -4.145122   -0.481482    2.223275
     11          6           0       -4.461121   -1.192611    1.128345
     12          6           0       -2.207457   -1.640938    0.510503
     13          7           0       -1.244119   -2.160044   -0.253497
     14          1           0       -1.457445   -2.692840   -1.073151
     15          1           0       -0.276886   -2.034141   -0.032724
     16          1           0       -7.533876   -1.861868    1.505265
     17          1           0       -6.809249   -0.519696    2.086252
     18          1           0       -7.507731   -0.496346    0.611908
     19          7           0       -4.494530    1.656740   -0.758833
     20          6           0       -3.157091    1.834243   -0.498481
     21          6           0       -5.600361    2.305064   -0.025667
     22          7           0       -0.625574    3.315939    1.361021
     23          1           0        0.373691    3.306357    1.385919
     24          1           0       -1.090660    3.893206    2.032716
     25          7           0       -2.632647    2.624385    0.463131
     26          6           0       -1.311944    2.587737    0.467421
     27          7           0       -0.560442    1.835503   -0.402577
     28          1           0        0.444555    1.868883   -0.326225
     29          6           0       -1.078777    1.015310   -1.399811
     30          8           0       -0.312646    0.377582   -2.132680
     31          6           0       -2.496428    1.044282   -1.416789
     32          7           0       -3.400912    0.384120   -2.237157
     33          6           0       -4.570614    0.777042   -1.810974
     34          1           0       -5.524523    0.454875   -2.229949
     35          1           0       -6.181442    1.606445    0.390350
     36          1           0       -5.224009    2.892900    0.689222
     37          1           0       -6.143337    2.856769   -0.657811
     38          1           0        5.355632    1.972956    0.986500
     39          1           0        5.470704    3.129862   -0.337500
     40          1           0        3.987888    3.021858    0.611700
     41          1           0        5.323894   -1.005722   -2.791472
     42          6           0        4.645626   -0.334792   -2.264176
     43          8           0        2.686526   -1.252996   -3.236772
     44          6           0        3.236360   -0.447953   -2.485529
     45          1           0        1.467724    0.398680   -1.899461
     46          7           0        2.468413    0.447981   -1.769410
     47          8           0        2.155790    2.155173   -0.304838
     48          6           0        2.914920    1.405750   -0.893711
     49          1           0        6.173906    0.716342   -1.212855
     50          6           0        5.111369    0.589510   -1.416030
     51          6           0        4.809657    2.460455    0.192574
     52          7           0        4.285817    1.452674   -0.733557
     53          1           0        5.605630    0.255069    3.968334
     54          1           0        4.330420    1.137488    3.461114
     55          1           0        5.810143    1.401371    2.824836
     56          1           0        2.026195   -3.342446   -1.445625
     57          1           0        3.716705   -3.434527   -1.236357
     58          7           0        2.845831   -3.017728   -0.973514
     59          6           0        2.781482   -2.071033   -0.035007
     60          6           0        3.677778   -0.597176    1.603934
     61          7           0        2.494480   -0.055306    1.936530
     62          1           0        0.516185   -0.213527    1.424727
     63          6           0        1.513996   -0.597715    1.217260
     64          7           0        1.576413   -1.545997    0.276811
     65          1           0        6.874153   -1.073428    1.696434
     66          6           0        5.807062   -1.104883    1.474436
     67          7           0        5.253828   -1.892741    0.585106
     68          6           0        3.903882   -1.580966    0.657066
     69          6           0        5.186400    0.704811    3.179681
     70          7           0        4.911854   -0.293953    2.128444
 ---------------------------------------------------------------------

 SCF Done:  E(RwB97XD) =  -2048.74961176     A.U. after   15 cycles

 The electronic state is 1-A.
 Alpha  occ. eigenvalues --  -19.25437 -19.21621 -19.20622 -14.52239 -14.52127
 Alpha  occ. eigenvalues --  -14.49380 -14.48845 -14.47489 -14.46863 -14.46861
 Alpha  occ. eigenvalues --  -14.46615 -14.44907 -14.43749 -14.43563 -14.42659
 Alpha  occ. eigenvalues --  -14.41951 -14.41802 -14.41399 -14.40846 -14.40740
 Alpha  occ. eigenvalues --  -10.45111 -10.41174 -10.39758 -10.39064 -10.38250
 Alpha  occ. eigenvalues --  -10.37558 -10.37268 -10.36741 -10.35935 -10.35287
 Alpha  occ. eigenvalues --  -10.35282 -10.34515 -10.34346 -10.33968 -10.33914
 Alpha  occ. eigenvalues --  -10.33587 -10.33359 -10.32041 -10.31842 -10.31010
 Alpha  occ. eigenvalues --  -10.30509 -10.29003 -10.28109  -1.19089  -1.14805
 Alpha  occ. eigenvalues --   -1.13181  -1.12734  -1.11902  -1.10601  -1.09041
 Alpha  occ. eigenvalues --   -1.08536  -1.08498  -1.05528  -1.04000  -1.02214
 Alpha  occ. eigenvalues --   -1.00905  -1.00494  -0.99690  -0.98493  -0.97507
 Alpha  occ. eigenvalues --   -0.96591  -0.96129  -0.93170  -0.90609  -0.87221
 Alpha  occ. eigenvalues --   -0.85682  -0.84562  -0.84105  -0.83562  -0.82989
 Alpha  occ. eigenvalues --   -0.82520  -0.78523  -0.76429  -0.74629  -0.74233
 Alpha  occ. eigenvalues --   -0.73577  -0.73423  -0.73043  -0.71549  -0.69786
 Alpha  occ. eigenvalues --   -0.67353  -0.66826  -0.66245  -0.66110  -0.64339
 Alpha  occ. eigenvalues --   -0.63697  -0.63613  -0.63185  -0.62579  -0.61722
 Alpha  occ. eigenvalues --   -0.61440  -0.60768  -0.59922  -0.59192  -0.58946
 Alpha  occ. eigenvalues --   -0.58341  -0.58210  -0.57947  -0.57067  -0.56077
 Alpha  occ. eigenvalues --   -0.55870  -0.55705  -0.55114  -0.54915  -0.54150
 Alpha  occ. eigenvalues --   -0.53727  -0.53571  -0.53221  -0.52920  -0.52464
 Alpha  occ. eigenvalues --   -0.52392  -0.52301  -0.51932  -0.51316  -0.50777
 Alpha  occ. eigenvalues --   -0.50145  -0.49811  -0.49413  -0.49206  -0.49172
 Alpha  occ. eigenvalues --   -0.48745  -0.48306  -0.48054  -0.47576  -0.47396
 Alpha  occ. eigenvalues --   -0.47309  -0.46106  -0.45237  -0.43715  -0.43026
 Alpha  occ. eigenvalues --   -0.41586  -0.40186  -0.39121  -0.37596  -0.37526
 Alpha  occ. eigenvalues --   -0.37176  -0.37076  -0.36919  -0.35988  -0.34461
 Alpha  occ. eigenvalues --   -0.34232  -0.33978  -0.33618  -0.33604  -0.32982
 Alpha  occ. eigenvalues --   -0.32600  -0.32289  -0.31864  -0.31432  -0.31287
 Alpha  occ. eigenvalues --   -0.30877  -0.29035  -0.26546  -0.25173
 Alpha virt. eigenvalues --    0.03363   0.04463   0.07324   0.07660   0.08708
 Alpha virt. eigenvalues --    0.09218   0.09764   0.10463   0.10800   0.12142
 Alpha virt. eigenvalues --    0.13163   0.13767   0.14059   0.14502   0.14891

 Mulliken charges:
               1
     1  N   -0.306965
     2  C    0.177554
     3  C    0.051576
     4  N   -0.238609
     5  C    0.117672
     6  H    0.025457
     7  N   -0.289410
     8  C    0.139353
     9  H    0.011691
    10  N   -0.286238
    11  C    0.230917
    12  C    0.085700
    13  N   -0.041232
    14  H    0.113124
    15  H    0.089091
    16  H    0.029565
    17  H    0.036414
    18  H    0.024063
    19  N   -0.297580
    20  C    0.250402
    21  C    0.190027
    22  N   -0.122451
    23  H    0.117748
    24  H    0.118302
    25  N   -0.306023
    26  C    0.242188
    27  N   -0.142967
    28  H    0.117757
    29  C    0.185217
    30  O   -0.326112
    31  C   -0.019730
    32  N   -0.214137
    33  C    0.124389
    34  H    0.018388
    35  H    0.004638
    36  H    0.033489
    37  H    0.023856
    38  H    0.030368
    39  H    0.061334
    40  H    0.078685
    41  H    0.022823
    42  C   -0.080178
    43  O   -0.275954
    44  C    0.152455
    45  H    0.132568
    46  N   -0.109875
    47  O   -0.345132
    48  C    0.337122
    49  H    0.040779
    50  C    0.168708
    51  C    0.048903
    52  N   -0.275521
    53  H    0.034196
    54  H    0.042091
    55  H    0.022070
    56  H    0.124126
    57  H    0.116769
    58  N   -0.032238
    59  C    0.077404
    60  C    0.225467
    61  N   -0.263785
    62  H    0.027564
    63  C    0.156383
    64  N   -0.294466
    65  H    0.033458
    66  C    0.114307
    67  N   -0.246425
    68  C    0.034027
    69  C    0.179063
    70  N   -0.304219
 Sum of Mulliken charges =  -0.00000

 Dipole moment (field-independent basis, Debye):
    X=              4.7062    Y=              4.5918    Z=              5.9853  Tot=              8.8914
 Quadrupole moment (field-independent basis, Debye-Ang):
   XX=           -145.6516   YY=           -226.6743   ZZ=           -258.7587
   XY=              9.2469   XZ=             11.4878   YZ=              9.2297

 Normal termination of Gaussian 16 at Thu Jan 18 10:44:57 2018.
