 Gaussian 16, Revision A.03,
 Gaussian 16:  EM64L-G16RevA.03 25-Dec-2016

 ---------------------------------------
 #p wb97xd/cc-pvdz sp scf=(maxcycles=20)
 ---------------------------------------

 ------------------
 Base pair stacking
 ------------------
 Symbolic Z-matrix:
 Charge =  0 Multiplicity = 1

                         Standard orientation:
 ---------------------------------------------------------------------
 Center     Atomic      Atomic             Coordinates (Angstroms)
 Number     Number       Type             X           Y           Z
 ---------------------------------------------------------------------
      1          7           0        4.502284   -1.837194   -1.209137
      2          6           0        5.759847   -1.505043   -1.906421
      3          6           0        2.383549   -1.966504   -0.633318
      4          7           0        3.084361   -2.725719    0.292516
      5          6           0        4.332773   -2.617439   -0.091449
      6          1           0        5.178487   -3.090265    0.408689
      7          7           0        0.647652   -0.887744   -1.810565
      8          6           0        1.595599   -0.424854   -2.631972
      9          1           0        1.238985    0.206745   -3.444475
     10          7           0        2.911741   -0.624085   -2.600549
     11          6           0        3.244092   -1.412607   -1.565077
     12          6           0        1.014261   -1.678494   -0.778388
     13          7           0        0.069458   -2.141539    0.042649
     14          1           0        0.295173   -2.730119    0.819732
     15          1           0       -0.895658   -1.916038   -0.090931
     16          1           0        6.198016   -2.345696   -2.224984
     17          1           0        5.562156   -0.915981   -2.689400
     18          1           0        6.375116   -1.027547   -1.279178
     19          7           0        5.682035    1.056523    0.463863
     20          6           0        4.351451    1.369601    0.323999
     21          6           0        6.783136    1.633387   -0.333320
     22          7           0        1.834265    3.166499   -1.256101
     23          1           0        0.839952    3.250941   -1.197347
     24          1           0        2.297728    3.729275   -1.941086
     25          7           0        3.830555    2.249739   -0.558077
     26          6           0        2.516368    2.336149   -0.452876
     27          7           0        1.767703    1.616548    0.446669
     28          1           0        0.767730    1.746688    0.456390
     29          6           0        2.282477    0.705385    1.363548
     30          8           0        1.519401    0.107541    2.132325
     31          6           0        3.693129    0.601751    1.262521
     32          7           0        4.592334   -0.177712    1.977207
     33          6           0        5.756693    0.124653    1.470193
     34          1           0        6.705471   -0.304206    1.794475
     35          1           0        7.259052    0.904336   -0.824044
     36          1           0        6.409363    2.286870   -0.990211
     37          1           0        7.425539    2.101682    0.272349
     38          1           0       -4.199477    2.368520   -0.434053
     39          1           0       -4.096335    3.467019    0.939741
     40          1           0       -2.711414    3.266913   -0.134182
     41          1           0       -4.153585   -0.776022    3.206876
     42          6           0       -3.458054   -0.146738    2.651473
     43          8           0       -1.525265   -1.287992    3.418922
     44          6           0       -2.053117   -0.400646    2.749023
     45          1           0       -0.263545    0.304919    2.050489
     46          7           0       -1.261998    0.453048    2.007007
     47          8           0       -0.904124    2.191356    0.590168
     48          6           0       -1.682536    1.488583    1.210547
     49          1           0       -4.956878    1.090453    1.774729
     50          6           0       -3.898722    0.856004    1.882754
     51          6           0       -3.547380    2.765008    0.329918
     52          7           0       -3.050908    1.670156    1.168091
     53          1           0       -6.830582    1.096726   -3.489882
     54          1           0       -5.439797    1.831858   -3.056990
     55          1           0       -6.831624    2.201544   -2.288715
     56          1           0       -3.193968   -3.070331    1.457462
     57          1           0       -4.896757   -2.994993    1.387425
     58          7           0       -4.013535   -2.648884    1.069097
     59          6           0       -3.933331   -1.668819    0.166762
     60          6           0       -4.811291   -0.042031   -1.331405
     61          7           0       -3.611612    0.402762   -1.740469
     62          1           0       -1.623278    0.037416   -1.403313
     63          6           0       -2.633722   -0.261854   -1.128159
     64          7           0       -2.712008   -1.243768   -0.224117
     65          1           0       -8.035828   -0.214473   -1.173901
     66          6           0       -6.962452   -0.355381   -1.043736
     67          7           0       -6.418542   -1.232495   -0.235943
     68          6           0       -5.054898   -1.044363   -0.408628
     69          6           0       -6.308296    1.467676   -2.722019
     70          7           0       -6.048303    0.399008   -1.737969
 ---------------------------------------------------------------------

 SCF Done:  E(RwB97XD) =  -2048.75170442     A.U. after   15 cycles

 The electronic state is 1-A.
 Alpha  occ. eigenvalues --  -19.25226 -19.21612 -19.20793 -14.52602 -14.51705
 Alpha  occ. eigenvalues --  -14.49515 -14.48876 -14.48083 -14.47189 -14.46986
 Alpha  occ. eigenvalues --  -14.46781 -14.45410 -14.44593 -14.44478 -14.42746
 Alpha  occ. eigenvalues --  -14.42181 -14.41576 -14.41372 -14.41145 -14.40844
 Alpha  occ. eigenvalues --  -10.44799 -10.41422 -10.40036 -10.39615 -10.38484
 Alpha  occ. eigenvalues --  -10.38002 -10.37386 -10.36887 -10.36121 -10.35880
 Alpha  occ. eigenvalues --  -10.34840 -10.34162 -10.34065 -10.34048 -10.33978
 Alpha  occ. eigenvalues --  -10.33642 -10.33533 -10.32784 -10.31789 -10.31304
 Alpha  occ. eigenvalues --  -10.30239 -10.28791 -10.28573  -1.18779  -1.15328
 Alpha  occ. eigenvalues --   -1.13475  -1.12564  -1.11452  -1.11115  -1.09504
 Alpha  occ. eigenvalues --   -1.08771  -1.08518  -1.05495  -1.04959  -1.01847
 Alpha  occ. eigenvalues --   -1.01026  -1.00838  -0.99887  -0.98857  -0.97236
 Alpha  occ. eigenvalues --   -0.97122  -0.96922  -0.93170  -0.90281  -0.87765
 Alpha  occ. eigenvalues --   -0.86026  -0.84736  -0.84120  -0.83205  -0.82764
 Alpha  occ. eigenvalues --   -0.82576  -0.78167  -0.77128  -0.75047  -0.75024
 Alpha  occ. eigenvalues --   -0.73836  -0.73179  -0.72685  -0.71385  -0.70482
 Alpha  occ. eigenvalues --   -0.67655  -0.66897  -0.66604  -0.65889  -0.64702
 Alpha  occ. eigenvalues --   -0.64292  -0.63412  -0.63037  -0.62811  -0.62021
 Alpha  occ. eigenvalues --   -0.60739  -0.60690  -0.60382  -0.59658  -0.58940
 Alpha  occ. eigenvalues --   -0.58833  -0.58524  -0.58440  -0.56867  -0.55870
 Alpha  occ. eigenvalues --   -0.55762  -0.55595  -0.55369  -0.54478  -0.54255
 Alpha  occ. eigenvalues --   -0.54220  -0.53748  -0.53433  -0.53182  -0.52944
 Alpha  occ. eigenvalues --   -0.52795  -0.51974  -0.51628  -0.50739  -0.50624
 Alpha  occ. eigenvalues --   -0.50473  -0.50163  -0.49531  -0.49268  -0.49179
 Alpha  occ. eigenvalues --   -0.48865  -0.48594  -0.48327  -0.47487  -0.47263
 Alpha  occ. eigenvalues --   -0.47247  -0.45961  -0.45185  -0.45070  -0.42858
 Alpha  occ. eigenvalues --   -0.41392  -0.40808  -0.39004  -0.37921  -0.37771
 Alpha  occ. eigenvalues --   -0.37632  -0.37462  -0.37263  -0.35634  -0.34819
 Alpha  occ. eigenvalues --   -0.34506  -0.34195  -0.33710  -0.33658  -0.33167
 Alpha  occ. eigenvalues --   -0.32944  -0.32678  -0.32077  -0.31331  -0.31178
 Alpha  occ. eigenvalues --   -0.30771  -0.29977  -0.26778  -0.25226
 Alpha virt. eigenvalues --    0.03444   0.04311   0.06602   0.07607   0.08564
 Alpha virt. eigenvalues --    0.09114   0.09554   0.10294   0.10629   0.12339
 Alpha virt. eigenvalues --    0.13324   0.13413   0.14102   0.14548   0.14762

 Mulliken charges:
               1
     1  N   -0.300994
     2  C    0.192171
     3  C    0.040471
     4  N   -0.239689
     5  C    0.146119
     6  H    0.025560
     7  N   -0.291554
     8  C    0.124928
     9  H    0.007760
    10  N   -0.278899
    11  C    0.237013
    12  C    0.079840
    13  N   -0.052150
    14  H    0.117715
    15  H    0.088163
    16  H    0.027080
    17  H    0.035090
    18  H   -0.000056
    19  N   -0.302651
    20  C    0.248323
    21  C    0.183018
    22  N   -0.119859
    23  H    0.118874
    24  H    0.119725
    25  N   -0.303566
    26  C    0.243732
    27  N   -0.137783
    28  H    0.120115
    29  C    0.184535
    30  O   -0.318611
    31  C   -0.010313
    32  N   -0.211248
    33  C    0.100844
    34  H    0.022416
    35  H    0.010544
    36  H    0.035182
    37  H    0.028585
    38  H    0.051809
    39  H    0.052084
    40  H    0.073719
    41  H    0.015888
    42  C   -0.098559
    43  O   -0.278489
    44  C    0.177391
    45  H    0.129957
    46  N   -0.118475
    47  O   -0.349077
    48  C    0.329898
    49  H    0.045540
    50  C    0.156448
    51  C    0.048494
    52  N   -0.269634
    53  H    0.037094
    54  H    0.042426
    55  H    0.029048
    56  H    0.126578
    57  H    0.118861
    58  N   -0.054011
    59  C    0.090550
    60  C    0.224394
    61  N   -0.269164
    62  H    0.034359
    63  C    0.162595
    64  N   -0.305502
    65  H    0.039158
    66  C    0.137697
    67  N   -0.257434
    68  C    0.040649
    69  C    0.177484
    70  N   -0.312207
 Sum of Mulliken charges =  -0.00000

 Dipole moment (field-independent basis, Debye):
    X=             -5.0253    Y=              5.5204    Z=             -5.6558  Tot=              9.3657
 Quadrupole moment (field-independent basis, Debye-Ang):
   XX=           -146.0188   YY=           -225.3608   ZZ=           -261.0576
   XY=            -10.5435   XZ=             -4.8307   YZ=             -5.9033

 Normal termination of Gaussian 16 at Thu Jan 18 14:04:57 2018.
