 Gaussian 16, Revision A.03,
 Gaussian 16:  EM64L-G16RevA.03 25-Dec-2016

 ---------------------------------------
 #p wb97xd/cc-pvdz sp scf=(maxcycles=20)
 ---------------------------------------

 ------------------
 Base pair stacking
 ------------------
 Symbolic Z-matrix:
 Charge =  0 Multiplicity = 1

                         Standard orientation:
 ---------------------------------------------------------------------
 Center     Atomic      Atomic             Coordinates (Angstroms)
 Number     Number       Type             X           Y           Z
 ---------------------------------------------------------------------
      1          7           0       -5.976773    0.850446   -0.819387
      2          6           0       -7.240075    0.101048   -0.962447
      3          6           0       -3.850549    1.412957   -0.810332
      4          7           0       -4.549779    2.531650   -0.380990
      5          6           0       -5.802763    2.147984   -0.403631
      6          1           0       -6.648812    2.776663   -0.124531
      7          7           0       -2.114519   -0.053570   -1.441562
      8          6           0       -3.067867   -0.964198   -1.663960
      9          1           0       -2.713294   -1.932479   -2.014642
     10          7           0       -4.387241   -0.858821   -1.518877
     11          6           0       -4.716677    0.368789   -1.084288
     12          6           0       -2.478310    1.171979   -1.004789
     13          7           0       -1.528110    2.082345   -0.782217
     14          1           0       -1.751574    3.002374   -0.458469
     15          1           0       -0.561025    1.875869   -0.931414
     16          1           0       -7.831900    0.565423   -1.621440
     17          1           0       -7.044726   -0.824427   -1.285647
     18          1           0       -7.703249    0.052414   -0.077519
     19          7           0       -4.224921   -1.093210    1.230544
     20          6           0       -2.891636   -1.326017    0.993479
     21          6           0       -5.340704   -1.897485    0.693074
     22          7           0       -0.387284   -3.203003   -0.512156
     23          1           0        0.611265   -3.198673   -0.558094
     24          1           0       -0.861698   -3.923113   -1.019190
     25          7           0       -2.380963   -2.320611    0.235824
     26          6           0       -1.060788   -2.284814    0.197234
     27          7           0       -0.297271   -1.347552    0.849990
     28          1           0        0.706295   -1.397123    0.764108
     29          6           0       -0.801330   -0.315330    1.635038
     30          8           0       -0.025117    0.478261    2.181344
     31          6           0       -2.218239   -0.340753    1.686021
     32          7           0       -3.110812    0.493806    2.344593
     33          6           0       -4.286110    0.010207    2.046240
     34          1           0       -5.233758    0.421422    2.395730
     35          1           0       -5.933315   -1.317538    0.135134
     36          1           0       -4.974597   -2.637317    0.130163
     37          1           0       -5.868715   -2.284609    1.448159
     38          1           0        5.592406   -1.804108   -0.582343
     39          1           0        5.738619   -2.615127    0.975067
     40          1           0        4.237710   -2.735915    0.056331
     41          1           0        5.615090    1.983219    2.384515
     42          6           0        4.930752    1.206047    2.044050
     43          8           0        2.985198    2.326357    2.810096
     44          6           0        3.525283    1.367033    2.259829
     45          1           0        1.750655    0.404246    1.925054
     46          7           0        2.748991    0.326509    1.790843
     47          8           0        2.418365   -1.678797    0.777620
     48          6           0        3.184268   -0.810723    1.157777
     49          1           0        6.444826   -0.062443    1.241339
     50          6           0        5.385607    0.107855    1.429464
     51          6           0        5.064093   -2.090607    0.314804
     52          7           0        4.552158   -0.892923    0.986555
     53          1           0        5.342837   -2.224676   -2.976626
     54          1           0        4.134731   -2.638862   -1.961238
     55          1           0        5.642946   -2.405197   -1.382643
     56          1           0        1.696286    3.847903   -0.764841
     57          1           0        3.372682    3.841122   -1.080676
     58          7           0        2.521394    3.325113   -0.979400
     59          6           0        2.489001    1.998785   -1.124230
     60          6           0        3.428554   -0.146449   -1.544912
     61          7           0        2.271042   -0.813180   -1.403230
     62          1           0        0.300406   -0.431152   -0.989383
     63          6           0        1.278892    0.028766   -1.120951
     64          7           0        1.309306    1.357481   -0.975480
     65          1           0        6.588168    0.265694   -2.091848
     66          6           0        5.527006    0.395976   -1.877590
     67          7           0        4.951139    1.548692   -1.638191
     68          6           0        3.620398    1.219015   -1.425595
     69          6           0        4.970695   -2.099309   -2.056953
     70          7           0        4.664668   -0.672413   -1.837082
 ---------------------------------------------------------------------

 SCF Done:  E(RwB97XD) =  -2048.59624399     A.U. after   15 cycles

 The electronic state is 1-A.
 Alpha  occ. eigenvalues --  -19.24854 -19.21370 -19.20712 -14.52590 -14.51777
 Alpha  occ. eigenvalues --  -14.49916 -14.48454 -14.47602 -14.47244 -14.46876
 Alpha  occ. eigenvalues --  -14.46849 -14.45543 -14.44100 -14.44080 -14.43179
 Alpha  occ. eigenvalues --  -14.42313 -14.41802 -14.41152 -14.40658 -14.40556
 Alpha  occ. eigenvalues --  -10.44535 -10.41211 -10.39557 -10.39478 -10.38263
 Alpha  occ. eigenvalues --  -10.38181 -10.37196 -10.37173 -10.36303 -10.35316
 Alpha  occ. eigenvalues --  -10.34906 -10.34208 -10.34044 -10.33828 -10.33696
 Alpha  occ. eigenvalues --  -10.33547 -10.33119 -10.32669 -10.32382 -10.30389
 Alpha  occ. eigenvalues --  -10.29754 -10.29212 -10.28001  -1.18988  -1.15593
 Alpha  occ. eigenvalues --   -1.13338  -1.12424  -1.12402  -1.10467  -1.09291
 Alpha  occ. eigenvalues --   -1.08679  -1.08566  -1.05849  -1.04611  -1.02316
 Alpha  occ. eigenvalues --   -1.01462  -1.01428  -0.99851  -0.98589  -0.98067
 Alpha  occ. eigenvalues --   -0.96797  -0.96408  -0.93451  -0.91292  -0.89427
 Alpha  occ. eigenvalues --   -0.87063  -0.85118  -0.83934  -0.83518  -0.82714
 Alpha  occ. eigenvalues --   -0.81985  -0.78372  -0.77067  -0.75043  -0.74474
 Alpha  occ. eigenvalues --   -0.73903  -0.73690  -0.73317  -0.71949  -0.70655
 Alpha  occ. eigenvalues --   -0.68115  -0.67436  -0.67258  -0.66545  -0.65387
 Alpha  occ. eigenvalues --   -0.64561  -0.64038  -0.63655  -0.62967  -0.62669
 Alpha  occ. eigenvalues --   -0.61761  -0.61334  -0.60755  -0.59873  -0.59377
 Alpha  occ. eigenvalues --   -0.59261  -0.58485  -0.58368  -0.57559  -0.56824
 Alpha  occ. eigenvalues --   -0.56356  -0.55953  -0.55370  -0.54768  -0.54440
 Alpha  occ. eigenvalues --   -0.53938  -0.53846  -0.53383  -0.53099  -0.52882
 Alpha  occ. eigenvalues --   -0.52577  -0.51487  -0.51304  -0.51040  -0.50109
 Alpha  occ. eigenvalues --   -0.49684  -0.49659  -0.49507  -0.49035  -0.48884
 Alpha  occ. eigenvalues --   -0.48310  -0.48188  -0.48030  -0.47670  -0.46968
 Alpha  occ. eigenvalues --   -0.46619  -0.46240  -0.45429  -0.43000  -0.41953
 Alpha  occ. eigenvalues --   -0.41411  -0.40412  -0.39050  -0.38121  -0.37872
 Alpha  occ. eigenvalues --   -0.37585  -0.37116  -0.36789  -0.36127  -0.34963
 Alpha  occ. eigenvalues --   -0.34401  -0.34252  -0.33765  -0.33375  -0.32828
 Alpha  occ. eigenvalues --   -0.32745  -0.32339  -0.31759  -0.31225  -0.31089
 Alpha  occ. eigenvalues --   -0.30430  -0.28758  -0.26769  -0.25323
 Alpha virt. eigenvalues --    0.03162   0.04494   0.06582   0.06972   0.08805
 Alpha virt. eigenvalues --    0.09039   0.09298   0.10474   0.11106   0.12048
 Alpha virt. eigenvalues --    0.13157   0.13560   0.14128   0.14497   0.14773

 Mulliken charges:
               1
     1  N   -0.312582
     2  C    0.202997
     3  C    0.069164
     4  N   -0.245997
     5  C    0.119535
     6  H    0.027222
     7  N   -0.278668
     8  C    0.162370
     9  H    0.003670
    10  N   -0.295744
    11  C    0.215814
    12  C    0.069291
    13  N   -0.044051
    14  H    0.109031
    15  H    0.088474
    16  H    0.024662
    17  H    0.049254
    18  H    0.021793
    19  N   -0.281204
    20  C    0.203636
    21  C    0.260343
    22  N   -0.101686
    23  H    0.116484
    24  H    0.117721
    25  N   -0.299459
    26  C    0.218267
    27  N   -0.136678
    28  H    0.122006
    29  C    0.171525
    30  O   -0.320134
    31  C    0.011228
    32  N   -0.217285
    33  C    0.123183
    34  H    0.018135
    35  H   -0.073367
    36  H    0.032765
    37  H    0.015026
    38  H    0.065112
    39  H    0.045328
    40  H    0.062408
    41  H    0.026195
    42  C   -0.092469
    43  O   -0.268676
    44  C    0.171754
    45  H    0.131020
    46  N   -0.118936
    47  O   -0.323007
    48  C    0.314828
    49  H    0.039182
    50  C    0.163702
    51  C    0.026281
    52  N   -0.265582
    53  H    0.015525
    54  H    0.039584
    55  H    0.006151
    56  H    0.121435
    57  H    0.120910
    58  N   -0.063713
    59  C    0.122266
    60  C    0.194974
    61  N   -0.241642
    62  H    0.036402
    63  C    0.139455
    64  N   -0.299543
    65  H    0.036570
    66  C    0.119796
    67  N   -0.241494
    68  C    0.043075
    69  C    0.219663
    70  N   -0.313297
 Sum of Mulliken charges =  -0.00000

 Dipole moment (field-independent basis, Debye):
    X=              4.4642    Y=             -5.8656    Z=             -5.8304  Tot=              9.3983
 Quadrupole moment (field-independent basis, Debye-Ang):
   XX=           -147.0898   YY=           -225.3681   ZZ=           -266.3293
   XY=            -14.1246   XZ=            -10.1934   YZ=             -6.4798

 Normal termination of Gaussian 16 at Thu Jan 18 06:21:16 2018.
