 Gaussian 16, Revision A.03,
 Gaussian 16:  EM64L-G16RevA.03 25-Dec-2016

 ---------------------------------------
 #p wb97xd/cc-pvdz sp scf=(maxcycles=20)
 ---------------------------------------

 ------------------
 Base pair stacking
 ------------------
 Symbolic Z-matrix:
 Charge =  0 Multiplicity = 1

                         Standard orientation:
 ---------------------------------------------------------------------
 Center     Atomic      Atomic             Coordinates (Angstroms)
 Number     Number       Type             X           Y           Z
 ---------------------------------------------------------------------
      1          7           0       -6.287965   -1.036512    0.580326
      2          6           0       -7.556530   -0.414935    1.007420
      3          6           0       -4.158609   -1.541174    0.360243
      4          7           0       -4.848238   -2.385432   -0.497866
      5          6           0       -6.103497   -2.047607   -0.330929
      6          1           0       -6.943845   -2.507411   -0.851823
      7          7           0       -2.435713   -0.460892    1.555065
      8          6           0       -3.395839    0.275590    2.123681
      9          1           0       -3.049410    1.014451    2.845022
     10          7           0       -4.713462    0.236607    1.935909
     11          6           0       -5.032665   -0.704020    1.031612
     12          6           0       -2.789258   -1.398815    0.649318
     13          7           0       -1.832285   -2.134992    0.080617
     14          1           0       -2.048091   -2.840711   -0.595106
     15          1           0       -0.867538   -2.006276    0.310491
     16          1           0       -8.150712   -1.110560    1.411425
     17          1           0       -7.368863    0.295901    1.684629
     18          1           0       -8.013241   -0.007346    0.216667
     19          7           0       -3.882505    1.632004   -1.153641
     20          6           0       -2.548400    1.794520   -0.867619
     21          6           0       -4.982333    2.433314   -0.580064
     22          7           0       -0.018548    3.450429    0.841055
     23          1           0        0.977646    3.404507    0.909872
     24          1           0       -0.479881    4.145901    1.392617
     25          7           0       -2.022333    2.706193   -0.021352
     26          6           0       -0.705793    2.617266    0.045171
     27          7           0        0.040371    1.705960   -0.662140
     28          1           0        1.042444    1.710393   -0.549096
     29          6           0       -0.479729    0.758704   -1.538536
     30          8           0        0.281489   -0.018337   -2.128021
     31          6           0       -1.892956    0.841963   -1.620498
     32          7           0       -2.797377    0.096434   -2.364224
     33          6           0       -3.961932    0.599390   -2.055886
     34          1           0       -4.914246    0.253336   -2.459132
     35          1           0       -5.609979    1.834196   -0.084152
     36          1           0       -4.604745    3.112042    0.048434
     37          1           0       -5.475945    2.898511   -1.314055
     38          1           0        5.902868    1.823876    0.939569
     39          1           0        6.119240    2.748896   -0.544404
     40          1           0        4.599981    2.853952    0.345630
     41          1           0        5.867138   -1.716105   -2.318316
     42          6           0        5.202543   -0.942697   -1.933120
     43          8           0        3.238713   -1.924360   -2.831370
     44          6           0        3.798360   -1.032596   -2.193899
     45          1           0        2.051406   -0.032352   -1.825114
     46          7           0        3.048010   -0.003474   -1.661805
     47          8           0        2.763335    1.926920   -0.500016
     48          6           0        3.507171    1.062977   -0.930100
     49          1           0        6.739692    0.200102   -0.996642
     50          6           0        5.680345    0.085570   -1.222490
     51          6           0        5.409066    2.200032    0.055984
     52          7           0        4.872152    1.079338   -0.720874
     53          1           0        4.997409    0.901048    3.916441
     54          1           0        3.794733    1.693983    3.150342
     55          1           0        5.308593    1.722184    2.540831
     56          1           0        1.402050   -3.730458   -0.631976
     57          1           0        3.075934   -3.850890   -0.325842
     58          7           0        2.222539   -3.340635   -0.213670
     59          6           0        2.181580   -2.191518    0.463833
     60          6           0        3.105796   -0.407632    1.738714
     61          7           0        1.945664    0.255993    1.873265
     62          1           0       -0.019588    0.074176    1.320680
     63          6           0        0.960448   -0.397161    1.260369
     64          7           0        0.999452   -1.548200    0.581277
     65          1           0        6.263444   -1.001989    2.096771
     66          6           0        5.204685   -1.034685    1.838077
     67          7           0        4.637158   -1.987880    1.140215
     68          6           0        3.306244   -1.602596    1.069841
     69          6           0        4.632975    1.164536    3.023268
     70          7           0        4.336680   -0.046038    2.232863
 ---------------------------------------------------------------------

 SCF Done:  E(RwB97XD) =  -2048.74868536     A.U. after   15 cycles

 The electronic state is 1-A.
 Alpha  occ. eigenvalues --  -19.25590 -19.21860 -19.20595 -14.52368 -14.51785
 Alpha  occ. eigenvalues --  -14.49839 -14.48530 -14.47561 -14.46780 -14.46702
 Alpha  occ. eigenvalues --  -14.46489 -14.44599 -14.43415 -14.43255 -14.42898
 Alpha  occ. eigenvalues --  -14.42364 -14.41829 -14.41789 -14.40974 -14.40644
 Alpha  occ. eigenvalues --  -10.45266 -10.41058 -10.39870 -10.38798 -10.38131
 Alpha  occ. eigenvalues --  -10.37405 -10.37161 -10.36320 -10.36236 -10.35698
 Alpha  occ. eigenvalues --  -10.35041 -10.34927 -10.34304 -10.34139 -10.33847
 Alpha  occ. eigenvalues --  -10.33594 -10.33138 -10.32027 -10.31723 -10.30640
 Alpha  occ. eigenvalues --  -10.30360 -10.29448 -10.27919  -1.19257  -1.14437
 Alpha  occ. eigenvalues --   -1.13100  -1.12834  -1.12374  -1.10418  -1.09216
 Alpha  occ. eigenvalues --   -1.08441  -1.08158  -1.05833  -1.03679  -1.02340
 Alpha  occ. eigenvalues --   -1.01262  -1.00170  -0.99578  -0.98373  -0.97919
 Alpha  occ. eigenvalues --   -0.96334  -0.95802  -0.93466  -0.90764  -0.86948
 Alpha  occ. eigenvalues --   -0.85452  -0.84903  -0.83892  -0.83793  -0.83275
 Alpha  occ. eigenvalues --   -0.82155  -0.78678  -0.76122  -0.74445  -0.73920
 Alpha  occ. eigenvalues --   -0.73771  -0.73465  -0.73191  -0.71914  -0.69517
 Alpha  occ. eigenvalues --   -0.67206  -0.67171  -0.66402  -0.65816  -0.64347
 Alpha  occ. eigenvalues --   -0.63650  -0.63607  -0.63250  -0.62492  -0.61743
 Alpha  occ. eigenvalues --   -0.61561  -0.61034  -0.59736  -0.59308  -0.58755
 Alpha  occ. eigenvalues --   -0.58205  -0.57889  -0.57532  -0.57355  -0.56300
 Alpha  occ. eigenvalues --   -0.56063  -0.55767  -0.55477  -0.54625  -0.54219
 Alpha  occ. eigenvalues --   -0.53697  -0.53427  -0.52938  -0.52787  -0.52616
 Alpha  occ. eigenvalues --   -0.52472  -0.52038  -0.51536  -0.51422  -0.51058
 Alpha  occ. eigenvalues --   -0.49955  -0.49943  -0.49314  -0.49145  -0.48966
 Alpha  occ. eigenvalues --   -0.48577  -0.48354  -0.48084  -0.47794  -0.47510
 Alpha  occ. eigenvalues --   -0.47292  -0.45858  -0.45379  -0.43810  -0.42996
 Alpha  occ. eigenvalues --   -0.41954  -0.39881  -0.39239  -0.38014  -0.37136
 Alpha  occ. eigenvalues --   -0.37098  -0.37076  -0.36741  -0.35907  -0.34460
 Alpha  occ. eigenvalues --   -0.34401  -0.34004  -0.33807  -0.33391  -0.33056
 Alpha  occ. eigenvalues --   -0.32562  -0.32235  -0.31736  -0.31647  -0.31329
 Alpha  occ. eigenvalues --   -0.31191  -0.28704  -0.26648  -0.25278
 Alpha virt. eigenvalues --    0.02861   0.05231   0.07031   0.07345   0.09073
 Alpha virt. eigenvalues --    0.09326   0.09862   0.10302   0.11120   0.12069
 Alpha virt. eigenvalues --    0.13173   0.13400   0.14143   0.14822   0.14964

 Mulliken charges:
               1
     1  N   -0.310354
     2  C    0.177793
     3  C    0.047870
     4  N   -0.245758
     5  C    0.121715
     6  H    0.028469
     7  N   -0.280283
     8  C    0.136974
     9  H    0.014238
    10  N   -0.288084
    11  C    0.229174
    12  C    0.089276
    13  N   -0.039532
    14  H    0.110870
    15  H    0.091229
    16  H    0.031230
    17  H    0.037288
    18  H    0.024026
    19  N   -0.295809
    20  C    0.248059
    21  C    0.189898
    22  N   -0.117159
    23  H    0.115814
    24  H    0.117323
    25  N   -0.302451
    26  C    0.228845
    27  N   -0.142538
    28  H    0.126073
    29  C    0.169009
    30  O   -0.324625
    31  C   -0.009448
    32  N   -0.223690
    33  C    0.128420
    34  H    0.022578
    35  H    0.011628
    36  H    0.030484
    37  H    0.019955
    38  H    0.045318
    39  H    0.063941
    40  H    0.076172
    41  H    0.025643
    42  C   -0.070265
    43  O   -0.270644
    44  C    0.163853
    45  H    0.134514
    46  N   -0.123646
    47  O   -0.340545
    48  C    0.335101
    49  H    0.041235
    50  C    0.157828
    51  C    0.041856
    52  N   -0.277743
    53  H    0.034413
    54  H    0.041114
    55  H   -0.000639
    56  H    0.120654
    57  H    0.119235
    58  N   -0.044594
    59  C    0.113861
    60  C    0.215632
    61  N   -0.264791
    62  H    0.035728
    63  C    0.149058
    64  N   -0.303851
    65  H    0.029531
    66  C    0.115874
    67  N   -0.242576
    68  C    0.019841
    69  C    0.186083
    70  N   -0.295698
 Sum of Mulliken charges =  -0.00000

 Dipole moment (field-independent basis, Debye):
    X=              4.4426    Y=              5.0331    Z=              5.3751  Tot=              8.6000
 Quadrupole moment (field-independent basis, Debye-Ang):
   XX=           -144.3846   YY=           -224.9759   ZZ=           -260.4850
   XY=             12.0420   XZ=             16.4228   YZ=              3.0273

 Normal termination of Gaussian 16 at Wed Jan 17 19:07:08 2018.
