 Gaussian 16, Revision A.03,
 Gaussian 16:  EM64L-G16RevA.03 25-Dec-2016

 ---------------------------------------
 #p wb97xd/cc-pvdz sp scf=(maxcycles=20)
 ---------------------------------------

 ------------------
 Base pair stacking
 ------------------
 Symbolic Z-matrix:
 Charge =  0 Multiplicity = 1

                         Standard orientation:
 ---------------------------------------------------------------------
 Center     Atomic      Atomic             Coordinates (Angstroms)
 Number     Number       Type             X           Y           Z
 ---------------------------------------------------------------------
      1          7           0       -6.587096   -1.065365    0.312452
      2          6           0       -7.859794   -0.610107    0.904888
      3          6           0       -4.456367   -1.485667   -0.034884
      4          7           0       -5.135982   -1.992796   -1.132912
      5          6           0       -6.392477   -1.719283   -0.879707
      6          1           0       -7.226530   -1.974051   -1.534218
      7          7           0       -2.747812   -0.875517    1.472271
      8          6           0       -3.713831   -0.361131    2.240243
      9          1           0       -3.375694    0.094537    3.169918
     10          7           0       -5.028647   -0.325280    2.033217
     11          6           0       -5.337512   -0.910994    0.864468
     12          6           0       -3.090982   -1.457928    0.302607
     13          7           0       -2.128107   -1.971974   -0.465389
     14          1           0       -2.336203   -2.412504   -1.339364
     15          1           0       -1.166448   -1.934278   -0.193468
     16          1           0       -8.462149   -1.395492    1.048132
     17          1           0       -7.679833   -0.165006    1.781604
     18          1           0       -8.303440    0.039854    0.287871
     19          7           0       -3.536641    2.083068   -0.922049
     20          6           0       -2.200359    2.162700   -0.612102
     21          6           0       -4.607339    2.884947   -0.296499
     22          7           0        0.378191    3.563793    1.245243
     23          1           0        1.370470    3.468104    1.319109
     24          1           0       -0.059031    4.233466    1.846156
     25          7           0       -1.645412    2.980284    0.308564
     26          6           0       -0.334967    2.827623    0.379584
     27          7           0        0.379268    1.942575   -0.391173
     28          1           0        1.379099    1.893275   -0.269186
     29          6           0       -0.170900    1.091669   -1.344651
     30          8           0        0.562791    0.330342   -1.987168
     31          6           0       -1.577989    1.244222   -1.432382
     32          7           0       -2.504902    0.600908   -2.241022
     33          6           0       -3.650022    1.129496   -1.904137
     34          1           0       -4.611506    0.859278   -2.342096
     35          1           0       -5.266774    2.277196    0.144631
     36          1           0       -4.208204    3.494376    0.387277
     37          1           0       -5.070894    3.428253   -0.995608
     38          1           0        6.220902    1.671499    1.267195
     39          1           0        6.496093    2.700192   -0.136627
     40          1           0        4.971926    2.802463    0.745329
     41          1           0        6.070555   -1.595062   -2.261766
     42          6           0        5.435774   -0.825553   -1.822313
     43          8           0        3.442135   -1.644467   -2.813208
     44          6           0        4.032347   -0.831732   -2.101945
     45          1           0        2.326480    0.213357   -1.670527
     46          7           0        3.321283    0.184678   -1.496524
     47          8           0        3.107073    2.028111   -0.187673
     48          6           0        3.817620    1.168436   -0.678350
     49          1           0        7.009768    0.169885   -0.784310
     50          6           0        5.949316    0.121000   -1.028009
     51          6           0        5.755107    2.137938    0.411899
     52          7           0        5.179297    1.107200   -0.456296
     53          1           0        4.654010   -0.431179    4.246797
     54          1           0        3.465364    0.580192    3.771010
     55          1           0        4.988157    0.796489    3.224736
     56          1           0        1.111198   -3.267340   -1.624339
     57          1           0        2.779969   -3.495631   -1.353837
     58          7           0        1.926674   -3.044496   -1.090046
     59          6           0        1.879457   -2.184107   -0.070895
     60          6           0        2.790529   -0.930178    1.734462
     61          7           0        1.630696   -0.339268    2.066197
     62          1           0       -0.326754   -0.312288    1.459349
     63          6           0        0.652528   -0.744881    1.258999
     64          7           0        0.697819   -1.606537    0.237693
     65          1           0        5.940587   -1.634674    1.916147
     66          6           0        4.885668   -1.571457    1.647621
     67          7           0        4.325418   -2.235383    0.666294
     68          6           0        2.996948   -1.837945    0.710329
     69          6           0        4.303668    0.115985    3.486614
     70          7           0        4.015146   -0.762332    2.336254
 ---------------------------------------------------------------------

 SCF Done:  E(RwB97XD) =  -2048.74776648     A.U. after   15 cycles

 The electronic state is 1-A.
 Alpha  occ. eigenvalues --  -19.25884 -19.22223 -19.20731 -14.52434 -14.51199
 Alpha  occ. eigenvalues --  -14.49692 -14.48656 -14.47801 -14.46991 -14.46698
 Alpha  occ. eigenvalues --  -14.45545 -14.44007 -14.42688 -14.42535 -14.42463
 Alpha  occ. eigenvalues --  -14.42335 -14.42025 -14.41640 -14.40804 -14.40800
 Alpha  occ. eigenvalues --  -10.45489 -10.41247 -10.40119 -10.38289 -10.37894
 Alpha  occ. eigenvalues --  -10.37315 -10.36606 -10.36019 -10.35749 -10.35611
 Alpha  occ. eigenvalues --  -10.34989 -10.34338 -10.34277 -10.34203 -10.33725
 Alpha  occ. eigenvalues --  -10.33231 -10.33184 -10.31810 -10.30979 -10.30765
 Alpha  occ. eigenvalues --  -10.30617 -10.29362 -10.28099  -1.19460  -1.13825
 Alpha  occ. eigenvalues --   -1.13262  -1.13207  -1.12263  -1.10569  -1.09335
 Alpha  occ. eigenvalues --   -1.08624  -1.07339  -1.05657  -1.02833  -1.02579
 Alpha  occ. eigenvalues --   -1.01048  -0.99783  -0.99503  -0.98550  -0.97775
 Alpha  occ. eigenvalues --   -0.96505  -0.94991  -0.93254  -0.90807  -0.86233
 Alpha  occ. eigenvalues --   -0.84792  -0.84717  -0.84050  -0.83874  -0.83122
 Alpha  occ. eigenvalues --   -0.82356  -0.78774  -0.75407  -0.74581  -0.73676
 Alpha  occ. eigenvalues --   -0.73612  -0.73357  -0.73160  -0.71770  -0.68745
 Alpha  occ. eigenvalues --   -0.67375  -0.66999  -0.66510  -0.65062  -0.64423
 Alpha  occ. eigenvalues --   -0.63740  -0.63390  -0.62648  -0.62548  -0.61726
 Alpha  occ. eigenvalues --   -0.60823  -0.60543  -0.59452  -0.58957  -0.58382
 Alpha  occ. eigenvalues --   -0.58056  -0.57993  -0.57427  -0.57090  -0.56423
 Alpha  occ. eigenvalues --   -0.55981  -0.55862  -0.54825  -0.54371  -0.54038
 Alpha  occ. eigenvalues --   -0.53646  -0.53504  -0.52890  -0.52662  -0.52620
 Alpha  occ. eigenvalues --   -0.52225  -0.51910  -0.51568  -0.51377  -0.50884
 Alpha  occ. eigenvalues --   -0.50191  -0.49750  -0.49488  -0.48963  -0.48740
 Alpha  occ. eigenvalues --   -0.48441  -0.48296  -0.47870  -0.47756  -0.47628
 Alpha  occ. eigenvalues --   -0.47456  -0.45721  -0.45357  -0.43701  -0.42824
 Alpha  occ. eigenvalues --   -0.41843  -0.39478  -0.39297  -0.37905  -0.37297
 Alpha  occ. eigenvalues --   -0.37208  -0.36846  -0.36139  -0.35744  -0.34416
 Alpha  occ. eigenvalues --   -0.34280  -0.34196  -0.33412  -0.33177  -0.32741
 Alpha  occ. eigenvalues --   -0.32660  -0.32207  -0.31918  -0.31709  -0.31286
 Alpha  occ. eigenvalues --   -0.30980  -0.27803  -0.26450  -0.25403
 Alpha virt. eigenvalues --    0.02895   0.05765   0.07208   0.07824   0.08988
 Alpha virt. eigenvalues --    0.09537   0.09756   0.10347   0.10791   0.12335
 Alpha virt. eigenvalues --    0.13298   0.13501   0.14146   0.14738   0.15007

 Mulliken charges:
               1
     1  N   -0.310754
     2  C    0.180046
     3  C    0.034002
     4  N   -0.249075
     5  C    0.123639
     6  H    0.028149
     7  N   -0.284601
     8  C    0.134920
     9  H    0.016283
    10  N   -0.292018
    11  C    0.237184
    12  C    0.097740
    13  N   -0.036695
    14  H    0.110411
    15  H    0.090359
    16  H    0.028759
    17  H    0.036057
    18  H    0.023498
    19  N   -0.305465
    20  C    0.258473
    21  C    0.183420
    22  N   -0.121863
    23  H    0.115299
    24  H    0.118521
    25  N   -0.308366
    26  C    0.243792
    27  N   -0.142485
    28  H    0.119630
    29  C    0.176526
    30  O   -0.326644
    31  C   -0.010925
    32  N   -0.230832
    33  C    0.129756
    34  H    0.025607
    35  H    0.025913
    36  H    0.029210
    37  H    0.021478
    38  H    0.050487
    39  H    0.063903
    40  H    0.075557
    41  H    0.024682
    42  C   -0.055418
    43  O   -0.277659
    44  C    0.168808
    45  H    0.135687
    46  N   -0.126547
    47  O   -0.348378
    48  C    0.345387
    49  H    0.040712
    50  C    0.152933
    51  C    0.039429
    52  N   -0.284178
    53  H    0.032518
    54  H    0.040537
    55  H    0.010440
    56  H    0.117146
    57  H    0.117771
    58  N   -0.025189
    59  C    0.103024
    60  C    0.229938
    61  N   -0.275661
    62  H    0.030411
    63  C    0.157064
    64  N   -0.304459
    65  H    0.025293
    66  C    0.121448
    67  N   -0.245811
    68  C    0.009183
    69  C    0.183785
    70  N   -0.301790
 Sum of Mulliken charges =  -0.00000

 Dipole moment (field-independent basis, Debye):
    X=              4.6766    Y=              4.8149    Z=              5.1851  Tot=              8.4817
 Quadrupole moment (field-independent basis, Debye-Ang):
   XX=           -142.6675   YY=           -228.2837   ZZ=           -253.3931
   XY=              7.0105   XZ=             21.7074   YZ=              8.3498

 Normal termination of Gaussian 16 at Thu Jan 18 03:51:48 2018.
