 Gaussian 16, Revision A.03,
 Gaussian 16:  EM64L-G16RevA.03 25-Dec-2016

 ---------------------------------------
 #p wb97xd/cc-pvdz sp scf=(maxcycles=20)
 ---------------------------------------

 ------------------
 Base pair stacking
 ------------------
 Symbolic Z-matrix:
 Charge =  0 Multiplicity = 1

                         Standard orientation:
 ---------------------------------------------------------------------
 Center     Atomic      Atomic             Coordinates (Angstroms)
 Number     Number       Type             X           Y           Z
 ---------------------------------------------------------------------
      1          7           0        4.232469    0.341217    2.098136
      2          6           0        5.494547   -0.402511    2.277095
      3          6           0        2.110951    0.857725    1.834146
      4          7           0        2.803723    2.059592    1.851527
      5          6           0        4.054139    1.700317    2.009881
      6          1           0        4.895105    2.391807    2.069516
      7          7           0        0.386022   -0.746898    1.721156
      8          6           0        1.339736   -1.671257    1.874593
      9          1           0        0.989954   -2.702649    1.887133
     10          7           0        2.654486   -1.513614    2.014198
     11          6           0        2.978235   -0.210243    1.985087
     12          6           0        0.744025    0.555520    1.695939
     13          7           0       -0.206559    1.479714    1.542870
     14          1           0        0.012711    2.455699    1.518466
     15          1           0       -1.169769    1.228192    1.447415
     16          1           0        5.928571   -0.123945    3.133945
     17          1           0        5.303312   -1.383221    2.304880
     18          1           0        6.110582   -0.206246    1.514220
     19          7           0        5.940355   -0.366328   -0.841701
     20          6           0        4.609480   -0.681814   -0.973240
     21          6           0        7.028227   -1.336331   -0.604385
     22          7           0        2.072382   -3.052634   -1.036966
     23          1           0        1.080259   -3.068217   -1.158227
     24          1           0        2.525127   -3.932141   -0.887897
     25          7           0        4.076273   -1.920982   -0.908314
     26          6           0        2.765403   -1.904435   -1.072477
     27          7           0        2.031001   -0.762788   -1.284142
     28          1           0        1.032515   -0.845049   -1.399158
     29          6           0        2.558610    0.522711   -1.354660
     30          8           0        1.807875    1.486639   -1.549566
     31          6           0        3.965881    0.521005   -1.180127
     32          7           0        4.874418    1.570510   -1.178512
     33          6           0        6.029740    0.997837   -0.974833
     34          1           0        6.982029    1.525602   -0.912639
     35          1           0        7.487693   -1.120372    0.256456
     36          1           0        6.645269   -2.257795   -0.554431
     37          1           0        7.687268   -1.290639   -1.354322
     38          1           0       -3.947981   -1.857790   -1.251893
     39          1           0       -3.806464   -1.769554   -3.005981
     40          1           0       -2.446862   -2.344132   -2.040219
     41          1           0       -3.846974    2.909868   -1.888892
     42          6           0       -3.158883    2.064537   -1.875904
     43          8           0       -1.218677    3.410789   -1.651647
     44          6           0       -1.754157    2.307021   -1.750369
     45          1           0        0.025145    1.300151   -1.657465
     46          7           0       -0.972839    1.169146   -1.744570
     47          8           0       -0.632560   -1.074538   -1.829980
     48          6           0       -1.402652   -0.130388   -1.844622
     49          1           0       -4.666889    0.570213   -2.072736
     50          6           0       -3.608459    0.808111   -1.975372
     51          6           0       -3.276359   -1.653466   -2.072402
     52          7           0       -2.770183   -0.282523   -1.962603
     53          1           0       -7.073671   -3.347273    1.198319
     54          1           0       -5.679846   -3.458462    0.357492
     55          1           0       -7.072019   -3.098105   -0.414554
     56          1           0       -3.480713    3.143047    1.376953
     57          1           0       -5.182748    3.029961    1.357207
     58          7           0       -4.296252    2.571137    1.287775
     59          6           0       -4.206726    1.255023    1.085261
     60          6           0       -5.069187   -0.936600    0.746628
     61          7           0       -3.865300   -1.525799    0.657559
     62          1           0       -1.880496   -1.021117    0.737992
     63          6           0       -2.893762   -0.626104    0.797418
     64          7           0       -2.981384    0.692500    1.000329
     65          1           0       -8.295275   -0.727426    0.774402
     66          6           0       -7.223262   -0.530632    0.806173
     67          7           0       -6.687715    0.651518    0.988924
     68          6           0       -5.322319    0.408280    0.953352
     69          6           0       -6.551788   -2.975260    0.430696
     70          7           0       -6.301963   -1.537742    0.652374
 ---------------------------------------------------------------------

 SCF Done:  E(RwB97XD) =  -2048.74384732     A.U. after   15 cycles

 The electronic state is 1-A.
 Alpha  occ. eigenvalues --  -19.25014 -19.21286 -19.20744 -14.52767 -14.51413
 Alpha  occ. eigenvalues --  -14.49712 -14.48926 -14.48447 -14.47040 -14.46926
 Alpha  occ. eigenvalues --  -14.46681 -14.45531 -14.44837 -14.44763 -14.43189
 Alpha  occ. eigenvalues --  -14.42193 -14.41835 -14.41609 -14.41371 -14.41176
 Alpha  occ. eigenvalues --  -10.44576 -10.41402 -10.40319 -10.39347 -10.38489
 Alpha  occ. eigenvalues --  -10.38118 -10.37633 -10.36710 -10.36409 -10.36220
 Alpha  occ. eigenvalues --  -10.34981 -10.34205 -10.34204 -10.34186 -10.33835
 Alpha  occ. eigenvalues --  -10.33810 -10.33024 -10.32883 -10.32015 -10.31033
 Alpha  occ. eigenvalues --  -10.30135 -10.29060 -10.28689  -1.18558  -1.15517
 Alpha  occ. eigenvalues --   -1.13545  -1.12272  -1.11581  -1.11281  -1.09805
 Alpha  occ. eigenvalues --   -1.08730  -1.08264  -1.05799  -1.05335  -1.01611
 Alpha  occ. eigenvalues --   -1.01206  -1.01161  -0.99844  -0.98954  -0.97489
 Alpha  occ. eigenvalues --   -0.97349  -0.97130  -0.93489  -0.90014  -0.88003
 Alpha  occ. eigenvalues --   -0.86196  -0.84906  -0.84269  -0.83358  -0.82651
 Alpha  occ. eigenvalues --   -0.82226  -0.77954  -0.77353  -0.75343  -0.75143
 Alpha  occ. eigenvalues --   -0.73830  -0.73417  -0.72431  -0.71649  -0.70751
 Alpha  occ. eigenvalues --   -0.67664  -0.67175  -0.66842  -0.65672  -0.64830
 Alpha  occ. eigenvalues --   -0.64544  -0.63301  -0.63159  -0.62817  -0.62011
 Alpha  occ. eigenvalues --   -0.60996  -0.60910  -0.60509  -0.59941  -0.59238
 Alpha  occ. eigenvalues --   -0.58931  -0.58734  -0.58382  -0.57085  -0.56176
 Alpha  occ. eigenvalues --   -0.55733  -0.55575  -0.55371  -0.54647  -0.54392
 Alpha  occ. eigenvalues --   -0.54270  -0.53912  -0.53355  -0.53200  -0.52960
 Alpha  occ. eigenvalues --   -0.52384  -0.52029  -0.51198  -0.50767  -0.50673
 Alpha  occ. eigenvalues --   -0.50558  -0.50331  -0.49601  -0.49440  -0.49341
 Alpha  occ. eigenvalues --   -0.48749  -0.48711  -0.48079  -0.47430  -0.47320
 Alpha  occ. eigenvalues --   -0.47095  -0.45914  -0.45532  -0.44721  -0.43002
 Alpha  occ. eigenvalues --   -0.41483  -0.40847  -0.38874  -0.38046  -0.37964
 Alpha  occ. eigenvalues --   -0.37890  -0.37530  -0.37380  -0.35341  -0.35087
 Alpha  occ. eigenvalues --   -0.34700  -0.34135  -0.33953  -0.33783  -0.33233
 Alpha  occ. eigenvalues --   -0.33173  -0.32491  -0.32063  -0.31456  -0.31218
 Alpha  occ. eigenvalues --   -0.30938  -0.30121  -0.26767  -0.25595
 Alpha virt. eigenvalues --    0.03066   0.04683   0.06473   0.07420   0.08529
 Alpha virt. eigenvalues --    0.09121   0.09366   0.10083   0.10219   0.12665
 Alpha virt. eigenvalues --    0.13285   0.13607   0.13932   0.14288   0.14801

 Mulliken charges:
               1
     1  N   -0.296428
     2  C    0.198363
     3  C    0.045750
     4  N   -0.242977
     5  C    0.147949
     6  H    0.027761
     7  N   -0.284549
     8  C    0.117061
     9  H    0.003140
    10  N   -0.270691
    11  C    0.225605
    12  C    0.078110
    13  N   -0.057212
    14  H    0.116715
    15  H    0.087615
    16  H    0.026370
    17  H    0.034751
    18  H   -0.004894
    19  N   -0.299560
    20  C    0.222680
    21  C    0.178152
    22  N   -0.109751
    23  H    0.119036
    24  H    0.118915
    25  N   -0.292724
    26  C    0.231673
    27  N   -0.126822
    28  H    0.118993
    29  C    0.178760
    30  O   -0.316851
    31  C    0.001970
    32  N   -0.212715
    33  C    0.098114
    34  H    0.023823
    35  H    0.015505
    36  H    0.036106
    37  H    0.029604
    38  H    0.065931
    39  H    0.043830
    40  H    0.069637
    41  H    0.018869
    42  C   -0.093859
    43  O   -0.274359
    44  C    0.174968
    45  H    0.131228
    46  N   -0.123804
    47  O   -0.345459
    48  C    0.331686
    49  H    0.044918
    50  C    0.149604
    51  C    0.041042
    52  N   -0.268789
    53  H    0.036770
    54  H    0.043495
    55  H    0.030182
    56  H    0.124330
    57  H    0.120395
    58  N   -0.060832
    59  C    0.101764
    60  C    0.236059
    61  N   -0.284728
    62  H    0.039945
    63  C    0.158762
    64  N   -0.304560
    65  H    0.040134
    66  C    0.140884
    67  N   -0.257435
    68  C    0.039117
    69  C    0.177911
    70  N   -0.314981
 Sum of Mulliken charges =  -0.00000

 Dipole moment (field-independent basis, Debye):
    X=             -5.2174    Y=             -7.9156    Z=              0.8347  Tot=              9.5171
 Quadrupole moment (field-independent basis, Debye-Ang):
   XX=           -145.6873   YY=           -238.8777   ZZ=           -249.7765
   XY=              0.3868   XZ=             13.4180   YZ=             18.8311

 Normal termination of Gaussian 16 at Thu Jan 18 14:29:26 2018.
