 Gaussian 16, Revision A.03,
 Gaussian 16:  EM64L-G16RevA.03 25-Dec-2016

 ---------------------------------------
 #p wb97xd/cc-pvdz sp scf=(maxcycles=20)
 ---------------------------------------

 ------------------
 Base pair stacking
 ------------------
 Symbolic Z-matrix:
 Charge =  0 Multiplicity = 1

                         Standard orientation:
 ---------------------------------------------------------------------
 Center     Atomic      Atomic             Coordinates (Angstroms)
 Number     Number       Type             X           Y           Z
 ---------------------------------------------------------------------
      1          7           0        6.537148   -0.777106   -0.514196
      2          6           0        7.792134   -0.032029   -0.733035
      3          6           0        4.421857   -1.378874   -0.487278
      4          7           0        5.123252   -2.397828    0.140832
      5          6           0        6.369567   -1.994499    0.099476
      6          1           0        7.215021   -2.550784    0.505294
      7          7           0        2.686267   -0.072669   -1.406224
      8          6           0        3.631799    0.811717   -1.739986
      9          1           0        3.274370    1.702709   -2.254417
     10          7           0        4.946401    0.760969   -1.534654
     11          6           0        5.279948   -0.373001   -0.896454
     12          6           0        3.054007   -1.203466   -0.765025
     13          7           0        2.111602   -2.087486   -0.431027
     14          1           0        2.338231   -2.938185    0.044536
     15          1           0        1.147447   -1.929661   -0.644672
     16          1           0        8.415981   -0.582798   -1.287690
     17          1           0        7.593475    0.824757   -1.207982
     18          1           0        8.220931    0.168756    0.147768
     19          7           0        3.608570    1.403795    1.350721
     20          6           0        2.278821    1.585167    1.055884
     21          6           0        4.713478    2.258471    0.871767
     22          7           0       -0.230277    3.376182   -0.543631
     23          1           0       -1.224764    3.332011   -0.634655
     24          1           0        0.236513    4.120518   -1.021948
     25          7           0        1.762338    2.566749    0.285301
     26          6           0        0.447786    2.478063    0.186798
     27          7           0       -0.305234    1.503451    0.795574
     28          1           0       -1.305133    1.513377    0.664929
     29          6           0        0.204969    0.483699    1.592859
     30          8           0       -0.561811   -0.346686    2.096089
     31          6           0        1.615960    0.565796    1.708024
     32          7           0        2.511535   -0.239349    2.398380
     33          6           0        3.678255    0.294667    2.157960
     34          1           0        4.625327   -0.081810    2.546018
     35          1           0        5.353662    1.709250    0.335741
     36          1           0        4.342987    2.989177    0.299866
     37          1           0        5.190909    2.658129    1.653523
     38          1           0       -6.138659    1.737646   -0.896927
     39          1           0       -6.387430    2.524584    0.659830
     40          1           0       -4.853123    2.716224   -0.189012
     41          1           0       -6.139228   -2.080534    2.030199
     42          6           0       -5.472690   -1.272571    1.728291
     43          8           0       -3.519190   -2.321867    2.570867
     44          6           0       -4.072867   -1.379041    2.005797
     45          1           0       -2.325885   -0.341628    1.760568
     46          7           0       -3.319555   -0.302801    1.582143
     47          8           0       -3.026176    1.725469    0.603759
     48          6           0       -3.772192    0.822945    0.940765
     49          1           0       -6.999909   -0.057384    0.869965
     50          6           0       -5.944089   -0.186837    1.104131
     51          6           0       -5.663155    2.035177    0.025805
     52          7           0       -5.133273    0.851711    0.708724
     53          1           0       -4.743817    1.653758   -3.526505
     54          1           0       -3.581766    2.253103   -2.550547
     55          1           0       -5.106459    2.081410   -1.993855
     56          1           0       -1.080992   -3.899881   -0.239220
     57          1           0       -2.744248   -3.981970   -0.609284
     58          7           0       -1.906161   -3.437233   -0.563561
     59          6           0       -1.890713   -2.151069   -0.919534
     60          6           0       -2.849819   -0.123257   -1.713148
     61          7           0       -1.709824    0.583634   -1.641425
     62          1           0        0.250070    0.317887   -1.104011
     63          6           0       -0.714915   -0.179255   -1.193026
     64          7           0       -0.728376   -1.467627   -0.835974
     65          1           0       -5.979320   -0.689489   -2.294309
     66          6           0       -4.924899   -0.759534   -2.025570
     67          7           0       -4.339075   -1.845402   -1.583525
     68          6           0       -3.022981   -1.455754   -1.381495
     69          6           0       -4.404352    1.686387   -2.586458
     70          7           0       -4.082800    0.320736   -2.128632
 ---------------------------------------------------------------------

 SCF Done:  E(RwB97XD) =  -2048.72266081     A.U. after   15 cycles

 The electronic state is 1-A.
 Alpha  occ. eigenvalues --  -19.25818 -19.21926 -19.20526 -14.52592 -14.51644
 Alpha  occ. eigenvalues --  -14.50180 -14.48252 -14.47768 -14.46878 -14.46490
 Alpha  occ. eigenvalues --  -14.46287 -14.44494 -14.43260 -14.43221 -14.43188
 Alpha  occ. eigenvalues --  -14.42722 -14.42037 -14.41731 -14.41159 -14.40528
 Alpha  occ. eigenvalues --  -10.45464 -10.40869 -10.39980 -10.38810 -10.37996
 Alpha  occ. eigenvalues --  -10.37633 -10.37106 -10.36518 -10.36197 -10.36023
 Alpha  occ. eigenvalues --  -10.35368 -10.34848 -10.34578 -10.34030 -10.33991
 Alpha  occ. eigenvalues --  -10.33031 -10.33028 -10.32236 -10.31580 -10.30916
 Alpha  occ. eigenvalues --  -10.29831 -10.29440 -10.27787  -1.19540  -1.14323
 Alpha  occ. eigenvalues --   -1.13044  -1.12917  -1.12718  -1.10297  -1.09478
 Alpha  occ. eigenvalues --   -1.08328  -1.08148  -1.06140  -1.03713  -1.02527
 Alpha  occ. eigenvalues --   -1.01655  -1.00083  -0.99419  -0.98284  -0.98230
 Alpha  occ. eigenvalues --   -0.96115  -0.95794  -0.93799  -0.91084  -0.87012
 Alpha  occ. eigenvalues --   -0.85639  -0.85216  -0.83927  -0.83701  -0.83513
 Alpha  occ. eigenvalues --   -0.81743  -0.78915  -0.76121  -0.74315  -0.74062
 Alpha  occ. eigenvalues --   -0.73913  -0.73508  -0.73306  -0.72259  -0.69542
 Alpha  occ. eigenvalues --   -0.67501  -0.67082  -0.66631  -0.65862  -0.64734
 Alpha  occ. eigenvalues --   -0.63910  -0.63521  -0.63278  -0.62568  -0.62206
 Alpha  occ. eigenvalues --   -0.61425  -0.61298  -0.59903  -0.59479  -0.58840
 Alpha  occ. eigenvalues --   -0.58309  -0.57988  -0.57641  -0.56984  -0.56580
 Alpha  occ. eigenvalues --   -0.56261  -0.56090  -0.55755  -0.54558  -0.54331
 Alpha  occ. eigenvalues --   -0.54180  -0.53347  -0.53149  -0.53047  -0.52479
 Alpha  occ. eigenvalues --   -0.52357  -0.51865  -0.51410  -0.51160  -0.51006
 Alpha  occ. eigenvalues --   -0.50201  -0.49791  -0.49434  -0.48997  -0.48747
 Alpha  occ. eigenvalues --   -0.48491  -0.48291  -0.48066  -0.47919  -0.47557
 Alpha  occ. eigenvalues --   -0.47227  -0.45952  -0.45292  -0.44056  -0.43038
 Alpha  occ. eigenvalues --   -0.41760  -0.39916  -0.39452  -0.38393  -0.37173
 Alpha  occ. eigenvalues --   -0.36999  -0.36927  -0.36707  -0.35842  -0.34836
 Alpha  occ. eigenvalues --   -0.34649  -0.33976  -0.33615  -0.33385  -0.33078
 Alpha  occ. eigenvalues --   -0.32520  -0.31954  -0.31920  -0.31660  -0.31526
 Alpha  occ. eigenvalues --   -0.31389  -0.28626  -0.26912  -0.25143
 Alpha virt. eigenvalues --    0.02706   0.05234   0.06699   0.07574   0.08945
 Alpha virt. eigenvalues --    0.09237   0.09559   0.10230   0.11257   0.11851
 Alpha virt. eigenvalues --    0.12749   0.13084   0.14595   0.14703   0.15010

 Mulliken charges:
               1
     1  N   -0.310904
     2  C    0.178423
     3  C    0.053436
     4  N   -0.250128
     5  C    0.126692
     6  H    0.029974
     7  N   -0.269375
     8  C    0.129882
     9  H    0.016373
    10  N   -0.290170
    11  C    0.224678
    12  C    0.087744
    13  N   -0.038997
    14  H    0.108514
    15  H    0.088757
    16  H    0.031496
    17  H    0.038079
    18  H    0.025601
    19  N   -0.292227
    20  C    0.239018
    21  C    0.197406
    22  N   -0.106428
    23  H    0.113573
    24  H    0.115064
    25  N   -0.292804
    26  C    0.209292
    27  N   -0.137771
    28  H    0.132810
    29  C    0.153761
    30  O   -0.324567
    31  C    0.007465
    32  N   -0.225074
    33  C    0.121729
    34  H    0.022899
    35  H    0.013407
    36  H    0.026754
    37  H    0.014799
    38  H    0.046242
    39  H    0.062500
    40  H    0.075104
    41  H    0.029224
    42  C   -0.079642
    43  O   -0.265781
    44  C    0.175773
    45  H    0.133671
    46  N   -0.122593
    47  O   -0.337692
    48  C    0.330226
    49  H    0.042312
    50  C    0.155290
    51  C    0.054029
    52  N   -0.278066
    53  H    0.028389
    54  H    0.036794
    55  H   -0.009332
    56  H    0.119156
    57  H    0.120904
    58  N   -0.060702
    59  C    0.129485
    60  C    0.206656
    61  N   -0.275417
    62  H    0.031445
    63  C    0.164261
    64  N   -0.307625
    65  H    0.029295
    66  C    0.117239
    67  N   -0.245428
    68  C    0.027468
    69  C    0.188508
    70  N   -0.290872
 Sum of Mulliken charges =  -0.00000

 Dipole moment (field-independent basis, Debye):
    X=             -4.1990    Y=              5.3212    Z=             -5.1805  Tot=              8.5314
 Quadrupole moment (field-independent basis, Debye-Ang):
   XX=           -142.5180   YY=           -225.5735   ZZ=           -262.2102
   XY=            -16.1927   XZ=             16.4915   YZ=              2.7393

 Normal termination of Gaussian 16 at Wed Jan 17 22:52:06 2018.
