 Gaussian 16, Revision A.03,
 Gaussian 16:  EM64L-G16RevA.03 25-Dec-2016

 ---------------------------------------
 #p wb97xd/cc-pvdz sp scf=(maxcycles=20)
 ---------------------------------------

 ------------------
 Base pair stacking
 ------------------
 Symbolic Z-matrix:
 Charge =  0 Multiplicity = 1

                         Standard orientation:
 ---------------------------------------------------------------------
 Center     Atomic      Atomic             Coordinates (Angstroms)
 Number     Number       Type             X           Y           Z
 ---------------------------------------------------------------------
      1          7           0        4.268605    0.138989    1.967008
      2          6           0        5.540059   -0.610183    1.979444
      3          6           0        2.137691    0.670329    1.847944
      4          7           0        2.821648    1.856725    2.070198
      5          6           0        4.078071    1.489126    2.133040
      6          1           0        4.914993    2.167780    2.300154
      7          7           0        0.422664   -0.906516    1.480235
      8          6           0        1.386617   -1.832184    1.441150
      9          1           0        1.044966   -2.852461    1.272130
     10          7           0        2.703047   -1.687430    1.578863
     11          6           0        3.016246   -0.397057    1.781975
     12          6           0        0.770209    0.382607    1.686262
     13          7           0       -0.190592    1.308074    1.725599
     14          1           0        0.020732    2.274534    1.875640
     15          1           0       -1.153850    1.067046    1.606505
     16          1           0        5.991869   -0.488024    2.863250
     17          1           0        5.356886   -1.581577    1.831256
     18          1           0        6.136617   -0.270505    1.252305
     19          7           0        5.915371   -0.279842   -0.803055
     20          6           0        4.581223   -0.582415   -0.931722
     21          6           0        6.996015   -1.261796   -0.582415
     22          7           0        2.023593   -2.930609   -1.010640
     23          1           0        1.030803   -2.936310   -1.127201
     24          1           0        2.469482   -3.815621   -0.874076
     25          7           0        4.037721   -1.817662   -0.878642
     26          6           0        2.726265   -1.788019   -1.036152
     27          7           0        2.000678   -0.637751   -1.230879
     28          1           0        1.000977   -0.710141   -1.341933
     29          6           0        2.538954    0.643941   -1.288989
     30          8           0        1.795599    1.616450   -1.468945
     31          6           0        3.946985    0.628196   -1.121403
     32          7           0        4.864491    1.669821   -1.111995
     33          6           0        6.015819    1.084977   -0.920692
     34          1           0        6.972896    1.603842   -0.857026
     35          1           0        7.461452   -1.059853    0.278625
     36          1           0        6.605398   -2.180485   -0.541336
     37          1           0        7.651797   -1.212955   -1.334992
     38          1           0       -3.987261   -1.682049   -1.182037
     39          1           0       -3.853436   -1.574491   -2.935655
     40          1           0       -2.494176   -2.171911   -1.983350
     41          1           0       -3.848405    3.091708   -1.763854
     42          6           0       -3.167538    2.240445   -1.764103
     43          8           0       -1.214799    3.567400   -1.533694
     44          6           0       -1.760195    2.469461   -1.642650
     45          1           0        0.010824    1.446444   -1.570244
     46          7           0       -0.988654    1.324980   -1.653972
     47          8           0       -0.668058   -0.920370   -1.767223
     48          6           0       -1.430080    0.030413   -1.767054
     49          1           0       -4.689246    0.761442   -1.970945
     50          6           0       -3.628357    0.989153   -1.876017
     51          6           0       -3.317865   -1.473860   -2.003390
     52          7           0       -2.799419   -0.108667   -1.880092
     53          1           0       -7.027485   -3.454072    0.651121
     54          1           0       -5.652881   -3.393338   -0.225736
     55          1           0       -7.065378   -2.914065   -0.888480
     56          1           0       -3.480099    2.935437    1.937855
     57          1           0       -5.181237    2.808055    1.934464
     58          7           0       -4.293188    2.380030    1.763060
     59          6           0       -4.198555    1.124315    1.321032
     60          6           0       -5.052228   -0.978278    0.605431
     61          7           0       -3.846367   -1.527171    0.383993
     62          1           0       -1.864072   -1.022636    0.512639
     63          6           0       -2.878599   -0.656994    0.665268
     64          7           0       -2.971350    0.601133    1.108091
     65          1           0       -8.278270   -0.815303    0.740672
     66          6           0       -7.207316   -0.615163    0.784804
     67          7           0       -6.676519    0.519748    1.169370
     68          6           0       -5.310548    0.303056    1.060384
     69          6           0       -6.526479   -2.941870   -0.046469
     70          7           0       -6.282324   -1.566353    0.429298
 ---------------------------------------------------------------------

 SCF Done:  E(RwB97XD) =  -2048.69189991     A.U. after   15 cycles

 The electronic state is 1-A.
 Alpha  occ. eigenvalues --  -19.24907 -19.21131 -19.20713 -14.53023 -14.51254
 Alpha  occ. eigenvalues --  -14.49683 -14.48990 -14.48510 -14.46955 -14.46798
 Alpha  occ. eigenvalues --  -14.46467 -14.45686 -14.44907 -14.44882 -14.43388
 Alpha  occ. eigenvalues --  -14.42012 -14.41908 -14.41563 -14.41505 -14.41318
 Alpha  occ. eigenvalues --  -10.44434 -10.41290 -10.40398 -10.39214 -10.38447
 Alpha  occ. eigenvalues --  -10.38255 -10.37786 -10.36623 -10.36502 -10.36369
 Alpha  occ. eigenvalues --  -10.34923 -10.34477 -10.34340 -10.34250 -10.33941
 Alpha  occ. eigenvalues --  -10.33827 -10.33174 -10.32122 -10.31378 -10.30721
 Alpha  occ. eigenvalues --  -10.30098 -10.29188 -10.28666  -1.18477  -1.15766
 Alpha  occ. eigenvalues --   -1.13635  -1.12131  -1.11682  -1.11362  -1.10067
 Alpha  occ. eigenvalues --   -1.08764  -1.08147  -1.05939  -1.05714  -1.01492
 Alpha  occ. eigenvalues --   -1.01394  -1.01338  -0.99837  -0.99004  -0.97854
 Alpha  occ. eigenvalues --   -0.97481  -0.97227  -0.93664  -0.89908  -0.88223
 Alpha  occ. eigenvalues --   -0.86417  -0.85105  -0.84358  -0.83528  -0.82664
 Alpha  occ. eigenvalues --   -0.81897  -0.77865  -0.77508  -0.75695  -0.75181
 Alpha  occ. eigenvalues --   -0.73844  -0.73562  -0.72330  -0.71854  -0.70961
 Alpha  occ. eigenvalues --   -0.67646  -0.67426  -0.67056  -0.65593  -0.64893
 Alpha  occ. eigenvalues --   -0.64730  -0.63553  -0.63131  -0.62788  -0.61995
 Alpha  occ. eigenvalues --   -0.61353  -0.61299  -0.60963  -0.60319  -0.60023
 Alpha  occ. eigenvalues --   -0.59277  -0.58665  -0.58332  -0.57405  -0.56362
 Alpha  occ. eigenvalues --   -0.56123  -0.55662  -0.55572  -0.54788  -0.54490
 Alpha  occ. eigenvalues --   -0.54124  -0.53831  -0.53477  -0.53353  -0.52781
 Alpha  occ. eigenvalues --   -0.52521  -0.52108  -0.51090  -0.50790  -0.50685
 Alpha  occ. eigenvalues --   -0.50499  -0.50199  -0.49593  -0.49526  -0.49375
 Alpha  occ. eigenvalues --   -0.48819  -0.48608  -0.47914  -0.47489  -0.47367
 Alpha  occ. eigenvalues --   -0.46954  -0.46064  -0.45549  -0.43964  -0.43450
 Alpha  occ. eigenvalues --   -0.40879  -0.40293  -0.38800  -0.38503  -0.38115
 Alpha  occ. eigenvalues --   -0.37942  -0.37504  -0.37233  -0.35512  -0.35132
 Alpha  occ. eigenvalues --   -0.34443  -0.34210  -0.34061  -0.34002  -0.33217
 Alpha  occ. eigenvalues --   -0.32849  -0.32400  -0.31994  -0.31642  -0.31125
 Alpha  occ. eigenvalues --   -0.30494  -0.30041  -0.26975  -0.25271
 Alpha virt. eigenvalues --    0.02965   0.04682   0.06427   0.07095   0.08427
 Alpha virt. eigenvalues --    0.09147   0.09360   0.10000   0.10131   0.12703
 Alpha virt. eigenvalues --    0.13182   0.13380   0.13946   0.14282   0.14693

 Mulliken charges:
               1
     1  N   -0.291349
     2  C    0.204992
     3  C    0.057338
     4  N   -0.246496
     5  C    0.146431
     6  H    0.027717
     7  N   -0.271926
     8  C    0.112749
     9  H   -0.004580
    10  N   -0.266467
    11  C    0.211669
    12  C    0.073958
    13  N   -0.057375
    14  H    0.114270
    15  H    0.085510
    16  H    0.022146
    17  H    0.031624
    18  H   -0.000234
    19  N   -0.299147
    20  C    0.191678
    21  C    0.173306
    22  N   -0.092405
    23  H    0.120022
    24  H    0.118544
    25  N   -0.263967
    26  C    0.187190
    27  N   -0.106378
    28  H    0.121255
    29  C    0.168665
    30  O   -0.316346
    31  C    0.017407
    32  N   -0.210926
    33  C    0.097417
    34  H    0.023895
    35  H    0.016152
    36  H    0.038113
    37  H    0.029948
    38  H    0.077676
    39  H    0.031466
    40  H    0.064765
    41  H    0.021510
    42  C   -0.093297
    43  O   -0.271679
    44  C    0.176073
    45  H    0.131185
    46  N   -0.122778
    47  O   -0.340033
    48  C    0.324749
    49  H    0.044136
    50  C    0.149439
    51  C    0.041457
    52  N   -0.268549
    53  H    0.037028
    54  H    0.046132
    55  H    0.031198
    56  H    0.122515
    57  H    0.121199
    58  N   -0.064762
    59  C    0.109814
    60  C    0.240833
    61  N   -0.292831
    62  H    0.043369
    63  C    0.154286
    64  N   -0.304420
    65  H    0.040765
    66  C    0.141406
    67  N   -0.256087
    68  C    0.038202
    69  C    0.177877
    70  N   -0.317045
 Sum of Mulliken charges =  -0.00000

 Dipole moment (field-independent basis, Debye):
    X=             -5.3566    Y=             -8.0692    Z=              1.1205  Tot=              9.7499
 Quadrupole moment (field-independent basis, Debye-Ang):
   XX=           -145.4506   YY=           -242.8151   ZZ=           -248.6939
   XY=             -0.9518   XZ=             13.1126   YZ=             20.2445

 Normal termination of Gaussian 16 at Thu Jan 18 05:18:31 2018.
