 Gaussian 16, Revision A.03,
 Gaussian 16:  EM64L-G16RevA.03 25-Dec-2016

 ---------------------------------------
 #p wb97xd/cc-pvdz sp scf=(maxcycles=20)
 ---------------------------------------

 ------------------
 Base pair stacking
 ------------------
 Symbolic Z-matrix:
 Charge =  0 Multiplicity = 1

                         Standard orientation:
 ---------------------------------------------------------------------
 Center     Atomic      Atomic             Coordinates (Angstroms)
 Number     Number       Type             X           Y           Z
 ---------------------------------------------------------------------
      1          7           0       -5.419057   -1.876813    0.398432
      2          6           0       -6.688901   -1.742405    1.138318
      3          6           0       -3.285012   -1.931774   -0.130848
      4          7           0       -3.980881   -2.233171   -1.292592
      5          6           0       -5.238713   -2.187996   -0.927226
      6          1           0       -6.083994   -2.375028   -1.590145
      7          7           0       -1.551366   -1.504727    1.410274
      8          6           0       -2.511220   -1.318738    2.322232
      9          1           0       -2.160185   -1.067634    3.322226
     10          7           0       -3.833385   -1.395985    2.185027
     11          6           0       -4.158046   -1.709658    0.919870
     12          6           0       -1.910475   -1.819235    0.146467
     13          7           0       -0.953777   -2.005294   -0.765284
     14          1           0       -1.173592   -2.239457   -1.712945
     15          1           0        0.014763   -1.916996   -0.532298
     16          1           0       -7.189990   -2.607183    1.102983
     17          1           0       -6.497289   -1.507996    2.090929
     18          1           0       -7.243545   -1.020627    0.724294
     19          7           0       -4.798463    1.751654   -0.318275
     20          6           0       -3.460401    1.917255   -0.053280
     21          6           0       -5.903640    2.236119    0.532943
     22          7           0       -0.926054    3.126119    1.990613
     23          1           0        0.073468    3.138707    1.997174
     24          1           0       -1.390431    3.567919    2.758646
     25          7           0       -2.934676    2.545316    1.020587
     26          6           0       -1.613661    2.543213    0.996976
     27          7           0       -0.863049    1.970414   -0.001024
     28          1           0        0.142262    2.016699    0.063477
     29          6           0       -1.382715    1.318993   -1.115233
     30          8           0       -0.617301    0.835986   -1.958790
     31          6           0       -2.800708    1.313148   -1.103830
     32          7           0       -3.706386    0.779037   -2.010133
     33          6           0       -4.875834    1.062617   -1.503968
     34          1           0       -5.830470    0.791657   -1.956227
     35          1           0       -6.459728    1.461746    0.832802
     36          1           0       -5.526349    2.703094    1.331594
     37          1           0       -6.472142    2.873092    0.013439
     38          1           0        5.075614    2.024446    1.294231
     39          1           0        5.136616    3.392851    0.185910
     40          1           0        3.676567    3.085568    1.126747
     41          1           0        5.034954   -0.265972   -2.936476
     42          6           0        4.352354    0.287109   -2.291198
     43          8           0        2.395391   -0.502939   -3.374348
     44          6           0        2.941816    0.176352   -2.505575
     45          1           0        1.166529    0.863806   -1.754524
     46          7           0        2.168281    0.916497   -1.634332
     47          8           0        1.846501    2.340045    0.105546
     48          6           0        2.610457    1.722268   -0.615137
     49          1           0        5.877257    1.183341   -1.100709
     50          6           0        4.813977    1.065130   -1.305187
     51          6           0        4.502274    2.625690    0.604404
     52          7           0        3.982915    1.777220   -0.471746
     53          1           0        5.934680   -0.844605    3.901370
     54          1           0        4.611811    0.097673    3.745746
     55          1           0        6.059325    0.628433    3.209947
     56          1           0        2.317878   -2.564600   -2.345694
     57          1           0        4.016539   -2.644179   -2.210263
     58          7           0        3.139754   -2.380974   -1.806294
     59          6           0        3.070710   -1.810496   -0.601735
     60          6           0        3.964242   -0.936613    1.423020
     61          7           0        2.773036   -0.593684    1.940551
     62          1           0        0.786441   -0.660576    1.440935
     63          6           0        1.790591   -0.905988    1.097825
     64          7           0        1.857701   -1.477391   -0.109058
     65          1           0        7.177420   -1.268848    1.291545
     66          6           0        6.105615   -1.272510    1.091163
     67          7           0        5.553509   -1.738590   -0.002284
     68          6           0        4.195965   -1.531709    0.195142
     69          6           0        5.473709   -0.174877    3.319162
     70          7           0        5.202550   -0.771836    1.996993
 ---------------------------------------------------------------------

 SCF Done:  E(RwB97XD) =  -2048.73502942     A.U. after   15 cycles

 The electronic state is 1-A.
 Alpha  occ. eigenvalues --  -19.25648 -19.21661 -19.20761 -14.52334 -14.52030
 Alpha  occ. eigenvalues --  -14.49043 -14.49024 -14.47649 -14.47012 -14.46767
 Alpha  occ. eigenvalues --  -14.46540 -14.44835 -14.43699 -14.43501 -14.42337
 Alpha  occ. eigenvalues --  -14.42118 -14.41367 -14.41156 -14.41003 -14.40530
 Alpha  occ. eigenvalues --  -10.45246 -10.41337 -10.39978 -10.38890 -10.38396
 Alpha  occ. eigenvalues --  -10.37495 -10.37361 -10.36586 -10.35648 -10.35284
 Alpha  occ. eigenvalues --  -10.35177 -10.34524 -10.34125 -10.33743 -10.33601
 Alpha  occ. eigenvalues --  -10.33535 -10.33354 -10.31926 -10.31551 -10.31297
 Alpha  occ. eigenvalues --  -10.30602 -10.28700 -10.28271  -1.19247  -1.14703
 Alpha  occ. eigenvalues --   -1.13343  -1.13085  -1.11549  -1.10787  -1.09167
 Alpha  occ. eigenvalues --   -1.08693  -1.08431  -1.05274  -1.03938  -1.02387
 Alpha  occ. eigenvalues --   -1.00611  -1.00370  -0.99852  -0.98667  -0.97163
 Alpha  occ. eigenvalues --   -0.96773  -0.96060  -0.92916  -0.90760  -0.87076
 Alpha  occ. eigenvalues --   -0.85482  -0.84383  -0.84165  -0.83598  -0.82841
 Alpha  occ. eigenvalues --   -0.82584  -0.78682  -0.76333  -0.74812  -0.74192
 Alpha  occ. eigenvalues --   -0.73746  -0.73162  -0.73123  -0.71268  -0.69650
 Alpha  occ. eigenvalues --   -0.67530  -0.66524  -0.66351  -0.66056  -0.64515
 Alpha  occ. eigenvalues --   -0.63856  -0.63431  -0.62896  -0.62743  -0.61896
 Alpha  occ. eigenvalues --   -0.60825  -0.60485  -0.59788  -0.59285  -0.58856
 Alpha  occ. eigenvalues --   -0.58586  -0.58492  -0.57639  -0.56778  -0.56202
 Alpha  occ. eigenvalues --   -0.55911  -0.55599  -0.55104  -0.54800  -0.54301
 Alpha  occ. eigenvalues --   -0.53838  -0.53765  -0.53156  -0.53090  -0.52560
 Alpha  occ. eigenvalues --   -0.52301  -0.52210  -0.52073  -0.51092  -0.50512
 Alpha  occ. eigenvalues --   -0.50372  -0.49873  -0.49597  -0.49343  -0.49000
 Alpha  occ. eigenvalues --   -0.48957  -0.48511  -0.47856  -0.47483  -0.47414
 Alpha  occ. eigenvalues --   -0.47191  -0.46211  -0.44936  -0.43773  -0.43037
 Alpha  occ. eigenvalues --   -0.41271  -0.40129  -0.39297  -0.37828  -0.37444
 Alpha  occ. eigenvalues --   -0.37344  -0.37120  -0.36843  -0.35781  -0.34607
 Alpha  occ. eigenvalues --   -0.33964  -0.33771  -0.33466  -0.33452  -0.33166
 Alpha  occ. eigenvalues --   -0.32798  -0.32303  -0.31917  -0.31659  -0.31062
 Alpha  occ. eigenvalues --   -0.30590  -0.28719  -0.26611  -0.24935
 Alpha virt. eigenvalues --    0.02863   0.04767   0.07260   0.07645   0.08699
 Alpha virt. eigenvalues --    0.09273   0.09646   0.10824   0.10947   0.11685
 Alpha virt. eigenvalues --    0.12834   0.13730   0.14158   0.14314   0.15083

 Mulliken charges:
               1
     1  N   -0.306276
     2  C    0.179092
     3  C    0.044639
     4  N   -0.233297
     5  C    0.120306
     6  H    0.023319
     7  N   -0.293498
     8  C    0.135929
     9  H    0.011422
    10  N   -0.288262
    11  C    0.238687
    12  C    0.086959
    13  N   -0.040974
    14  H    0.115381
    15  H    0.087250
    16  H    0.027971
    17  H    0.034577
    18  H    0.019506
    19  N   -0.305128
    20  C    0.259290
    21  C    0.183523
    22  N   -0.124925
    23  H    0.117683
    24  H    0.119221
    25  N   -0.310580
    26  C    0.249416
    27  N   -0.146411
    28  H    0.119343
    29  C    0.191088
    30  O   -0.327484
    31  C   -0.022052
    32  N   -0.211357
    33  C    0.121961
    34  H    0.018444
    35  H    0.016024
    36  H    0.033003
    37  H    0.025264
    38  H    0.043803
    39  H    0.060087
    40  H    0.077819
    41  H    0.021767
    42  C   -0.091868
    43  O   -0.285013
    44  C    0.154915
    45  H    0.129203
    46  N   -0.101316
    47  O   -0.349733
    48  C    0.340045
    49  H    0.043853
    50  C    0.178576
    51  C    0.046304
    52  N   -0.277716
    53  H    0.035007
    54  H    0.041483
    55  H    0.024683
    56  H    0.127750
    57  H    0.113333
    58  N   -0.018316
    59  C    0.047169
    60  C    0.230631
    61  N   -0.268840
    62  H    0.028556
    63  C    0.157301
    64  N   -0.292224
    65  H    0.034315
    66  C    0.119869
    67  N   -0.250990
    68  C    0.041181
    69  C    0.177153
    70  N   -0.307840
 Sum of Mulliken charges =  -0.00000

 Dipole moment (field-independent basis, Debye):
    X=              4.8088    Y=              4.1111    Z=              6.4092  Tot=              9.0057
 Quadrupole moment (field-independent basis, Debye-Ang):
   XX=           -145.7757   YY=           -232.4235   ZZ=           -251.8003
   XY=              7.7371   XZ=              9.6374   YZ=             14.6956

 Normal termination of Gaussian 16 at Thu Jan 18 02:22:37 2018.
