 Gaussian 16, Revision A.03,
 Gaussian 16:  EM64L-G16RevA.03 25-Dec-2016

 ---------------------------------------
 #p wb97xd/cc-pvdz sp scf=(maxcycles=20)
 ---------------------------------------

 ------------------
 Base pair stacking
 ------------------
 Symbolic Z-matrix:
 Charge =  0 Multiplicity = 1

                         Standard orientation:
 ---------------------------------------------------------------------
 Center     Atomic      Atomic             Coordinates (Angstroms)
 Number     Number       Type             X           Y           Z
 ---------------------------------------------------------------------
      1          7           0       -5.984524    0.920609   -0.814977
      2          6           0       -7.250671    0.195524   -1.036634
      3          6           0       -3.855737    1.468524   -0.741548
      4          7           0       -4.551679    2.542912   -0.206692
      5          6           0       -5.806338    2.169821   -0.272335
      6          1           0       -6.650702    2.772205    0.063996
      7          7           0       -2.123732    0.062597   -1.507370
      8          6           0       -3.080313   -0.816689   -1.822618
      9          1           0       -2.728690   -1.747398   -2.265773
     10          7           0       -4.399837   -0.719365   -1.673319
     11          6           0       -4.725505    0.460996   -1.120936
     12          6           0       -2.483759    1.240863   -0.953156
     13          7           0       -1.530332    2.119883   -0.637780
     14          1           0       -1.750945    3.004573   -0.225641
     15          1           0       -0.563549    1.924176   -0.802621
     16          1           0       -7.837231    0.725766   -1.648974
     17          1           0       -7.058190   -0.694484   -1.448882
     18          1           0       -7.718178    0.062103   -0.162774
     19          7           0       -4.216659   -1.191490    1.221036
     20          6           0       -2.883076   -1.417073    0.978722
     21          6           0       -5.330894   -1.992190    0.675116
     22          7           0       -0.375598   -3.266677   -0.555322
     23          1           0        0.622861   -3.258656   -0.602905
     24          1           0       -0.848669   -3.981642   -1.070824
     25          7           0       -2.370666   -2.400204    0.207399
     26          6           0       -1.050685   -2.359827    0.167028
     27          7           0       -0.288913   -1.428722    0.830547
     28          1           0        0.714649   -1.474065    0.742323
     29          6           0       -0.794778   -0.408291    1.629737
     30          8           0       -0.020055    0.380566    2.184936
     31          6           0       -2.211513   -0.438765    1.682790
     32          7           0       -3.105488    0.384441    2.353635
     33          6           0       -4.279818   -0.098897    2.051041
     34          1           0       -5.228114    0.304826    2.407431
     35          1           0       -5.926250   -1.406925    0.125727
     36          1           0       -4.963489   -2.723553    0.102060
     37          1           0       -5.856398   -2.390682    1.426028
     38          1           0        5.599641   -1.848480   -0.617573
     39          1           0        5.751054   -2.679103    0.928958
     40          1           0        4.248931   -2.792660    0.011296
     41          1           0        5.615847    1.900225    2.397972
     42          6           0        4.933312    1.125405    2.048643
     43          8           0        2.985660    2.229694    2.832415
     44          6           0        3.527724    1.279238    2.268871
     45          1           0        1.755491    0.315367    1.924696
     46          7           0        2.753825    0.242461    1.787798
     47          8           0        2.427606   -1.750589    0.749291
     48          6           0        3.191488   -0.885129    1.139327
     49          1           0        6.449871   -0.127905    1.227024
     50          6           0        5.390459    0.036671    1.419137
     51          6           0        5.073768   -2.148178    0.276681
     52          7           0        4.559329   -0.960879    0.964734
     53          1           0        5.330358   -1.984633   -3.218414
     54          1           0        4.115597   -2.490872   -2.253952
     55          1           0        5.622197   -2.323280   -1.648842
     56          1           0        1.702245    3.858454   -0.432630
     57          1           0        3.380031    3.874266   -0.740628
     58          7           0        2.525864    3.355169   -0.694361
     59          6           0        2.487896    2.049821   -0.969663
     60          6           0        3.419253   -0.048176   -1.596341
     61          7           0        2.257969   -0.719664   -1.526035
     62          1           0        0.287260   -0.370238   -1.084669
     63          6           0        1.268499    0.095375   -1.166088
     64          7           0        1.304502    1.403049   -0.889917
     65          1           0        6.583288    0.399695   -2.086739
     66          6           0        5.521771    0.513645   -1.865060
     67          7           0        4.950241    1.640020   -1.515348
     68          6           0        3.616992    1.297820   -1.341901
     69          6           0        4.954541   -1.948814   -2.292421
     70          7           0        4.654229   -0.549067   -1.933909
 ---------------------------------------------------------------------

 SCF Done:  E(RwB97XD) =  -2048.67385862     A.U. after   15 cycles

 The electronic state is 1-A.
 Alpha  occ. eigenvalues --  -19.24974 -19.21455 -19.20629 -14.52439 -14.51936
 Alpha  occ. eigenvalues --  -14.49894 -14.48496 -14.47485 -14.47293 -14.46781
 Alpha  occ. eigenvalues --  -14.46664 -14.45332 -14.43981 -14.43955 -14.43139
 Alpha  occ. eigenvalues --  -14.42316 -14.41757 -14.41457 -14.40767 -14.40659
 Alpha  occ. eigenvalues --  -10.44708 -10.41106 -10.39552 -10.39467 -10.38190
 Alpha  occ. eigenvalues --  -10.37954 -10.37226 -10.37039 -10.36314 -10.35332
 Alpha  occ. eigenvalues --  -10.34952 -10.34251 -10.34232 -10.34056 -10.33879
 Alpha  occ. eigenvalues --  -10.33763 -10.33127 -10.32491 -10.32303 -10.30431
 Alpha  occ. eigenvalues --  -10.30095 -10.29310 -10.27957  -1.18940  -1.15290
 Alpha  occ. eigenvalues --   -1.13186  -1.12463  -1.12392  -1.10423  -1.09115
 Alpha  occ. eigenvalues --   -1.08656  -1.08501  -1.05857  -1.04432  -1.02100
 Alpha  occ. eigenvalues --   -1.01370  -1.01145  -0.99682  -0.98436  -0.98023
 Alpha  occ. eigenvalues --   -0.96577  -0.96355  -0.93489  -0.90702  -0.88537
 Alpha  occ. eigenvalues --   -0.86727  -0.85026  -0.83889  -0.83441  -0.83092
 Alpha  occ. eigenvalues --   -0.82071  -0.78402  -0.76876  -0.74804  -0.74390
 Alpha  occ. eigenvalues --   -0.73837  -0.73549  -0.73109  -0.71928  -0.70387
 Alpha  occ. eigenvalues --   -0.67349  -0.67280  -0.67175  -0.66240  -0.65139
 Alpha  occ. eigenvalues --   -0.64212  -0.63955  -0.63623  -0.62945  -0.62536
 Alpha  occ. eigenvalues --   -0.61643  -0.61234  -0.60504  -0.59550  -0.59243
 Alpha  occ. eigenvalues --   -0.58949  -0.58298  -0.58086  -0.57500  -0.56556
 Alpha  occ. eigenvalues --   -0.55971  -0.55857  -0.55340  -0.54804  -0.54290
 Alpha  occ. eigenvalues --   -0.53884  -0.53646  -0.53324  -0.52945  -0.52823
 Alpha  occ. eigenvalues --   -0.52531  -0.51853  -0.51374  -0.51134  -0.50099
 Alpha  occ. eigenvalues --   -0.49748  -0.49667  -0.49494  -0.49113  -0.48964
 Alpha  occ. eigenvalues --   -0.48483  -0.48286  -0.48031  -0.47999  -0.47132
 Alpha  occ. eigenvalues --   -0.46898  -0.46094  -0.45518  -0.43467  -0.42072
 Alpha  occ. eigenvalues --   -0.41950  -0.40487  -0.38983  -0.38011  -0.37781
 Alpha  occ. eigenvalues --   -0.37412  -0.37062  -0.36867  -0.36015  -0.34802
 Alpha  occ. eigenvalues --   -0.34353  -0.34334  -0.33828  -0.33540  -0.32822
 Alpha  occ. eigenvalues --   -0.32607  -0.32397  -0.31732  -0.31287  -0.31191
 Alpha  occ. eigenvalues --   -0.30912  -0.28965  -0.26756  -0.25314
 Alpha virt. eigenvalues --    0.03214   0.04564   0.06769   0.07038   0.08988
 Alpha virt. eigenvalues --    0.09070   0.09454   0.10465   0.10914   0.12292
 Alpha virt. eigenvalues --    0.13267   0.13378   0.14281   0.14412   0.14853

 Mulliken charges:
               1
     1  N   -0.309744
     2  C    0.190700
     3  C    0.066439
     4  N   -0.245311
     5  C    0.120170
     6  H    0.027622
     7  N   -0.278772
     8  C    0.151762
     9  H    0.006436
    10  N   -0.286740
    11  C    0.216003
    12  C    0.073271
    13  N   -0.042752
    14  H    0.109870
    15  H    0.089204
    16  H    0.027687
    17  H    0.047484
    18  H    0.023760
    19  N   -0.283290
    20  C    0.215419
    21  C    0.233570
    22  N   -0.106955
    23  H    0.116540
    24  H    0.117064
    25  N   -0.295888
    26  C    0.218676
    27  N   -0.138880
    28  H    0.122242
    29  C    0.173408
    30  O   -0.321659
    31  C    0.001937
    32  N   -0.217176
    33  C    0.123254
    34  H    0.018529
    35  H   -0.050361
    36  H    0.033257
    37  H    0.019017
    38  H    0.056850
    39  H    0.051098
    40  H    0.067488
    41  H    0.025971
    42  C   -0.088865
    43  O   -0.268945
    44  C    0.168774
    45  H    0.131951
    46  N   -0.119224
    47  O   -0.328337
    48  C    0.320695
    49  H    0.039858
    50  C    0.163131
    51  C    0.035217
    52  N   -0.270295
    53  H    0.024483
    54  H    0.040763
    55  H    0.007556
    56  H    0.121822
    57  H    0.120711
    58  N   -0.059205
    59  C    0.118813
    60  C    0.199856
    61  N   -0.245366
    62  H    0.037024
    63  C    0.140696
    64  N   -0.299899
    65  H    0.034931
    66  C    0.117016
    67  N   -0.242094
    68  C    0.038364
    69  C    0.199561
    70  N   -0.306195
 Sum of Mulliken charges =  -0.00000

 Dipole moment (field-independent basis, Debye):
    X=              4.4464    Y=             -5.6189    Z=             -5.7364  Tot=              9.1787
 Quadrupole moment (field-independent basis, Debye-Ang):
   XX=           -146.4109   YY=           -224.7319   ZZ=           -265.2510
   XY=            -13.9315   XZ=            -10.9265   YZ=             -4.2739

 Normal termination of Gaussian 16 at Thu Jan 18 01:45:32 2018.
