 Gaussian 16, Revision A.03,
 Gaussian 16:  EM64L-G16RevA.03 25-Dec-2016

 ---------------------------------------
 #p wb97xd/cc-pvdz sp scf=(maxcycles=20)
 ---------------------------------------

 ------------------
 Base pair stacking
 ------------------
 Symbolic Z-matrix:
 Charge =  0 Multiplicity = 1

                         Standard orientation:
 ---------------------------------------------------------------------
 Center     Atomic      Atomic             Coordinates (Angstroms)
 Number     Number       Type             X           Y           Z
 ---------------------------------------------------------------------
      1          7           0        6.549802   -0.827074   -0.502138
      2          6           0        7.808837   -0.115229   -0.795592
      3          6           0        4.431014   -1.410270   -0.413101
      4          7           0        5.127339   -2.365635    0.312954
      5          6           0        6.375966   -1.976032    0.230251
      6          1           0        7.218754   -2.494126    0.688756
      7          7           0        2.701743   -0.191866   -1.456190
      8          6           0        3.651985    0.648982   -1.877597
      9          1           0        3.299034    1.486282   -2.478102
     10          7           0        4.966591    0.611004   -1.669547
     11          6           0        5.294406   -0.455547   -0.921588
     12          6           0        3.063791   -1.255171   -0.705592
     13          7           0        2.116678   -2.095654   -0.284000
     14          1           0        2.339004   -2.895959    0.273947
     15          1           0        1.153132   -1.954106   -0.511373
     16          1           0        8.428502   -0.722444   -1.293080
     17          1           0        7.614521    0.691009   -1.353567
     18          1           0        8.240251    0.169925    0.060304
     19          7           0        3.592144    1.518884    1.322542
     20          6           0        2.261350    1.686703    1.024405
     21          6           0        4.691298    2.374659    0.832438
     22          7           0       -0.259242    3.437473   -0.601366
     23          1           0       -1.253324    3.384994   -0.692380
     24          1           0        0.202596    4.178404   -1.089688
     25          7           0        1.738470    2.653796    0.239943
     26          6           0        0.424644    2.554423    0.141885
     27          7           0       -0.321874    1.583039    0.763680
     28          1           0       -1.321727    1.584057    0.632291
     29          6           0        0.194979    0.578108    1.575364
     30          8           0       -0.566255   -0.250635    2.089601
     31          6           0        1.605263    0.671804    1.690233
     32          7           0        2.506035   -0.117300    2.392249
     33          6           0        3.669111    0.421594    2.145154
     34          1           0        4.618562    0.057274    2.538968
     35          1           0        5.335747    1.822599    0.304481
     36          1           0        4.316039    3.094699    0.250210
     37          1           0        5.165329    2.788507    1.608860
     38          1           0       -6.155611    1.752300   -0.935486
     39          1           0       -6.411064    2.558987    0.610046
     40          1           0       -4.877541    2.749712   -0.240434
     41          1           0       -6.131194   -2.024773    2.044390
     42          6           0       -5.470182   -1.216375    1.731698
     43          8           0       -3.509898   -2.239974    2.589961
     44          6           0       -4.069840   -1.309039    2.011510
     45          1           0       -2.330088   -0.262755    1.752958
     46          7           0       -3.323882   -0.233469    1.573413
     47          8           0       -3.044187    1.783055    0.567123
     48          6           0       -3.784023    0.880018    0.916183
     49          1           0       -7.005375   -0.024090    0.855645
     50          6           0       -5.948828   -0.142787    1.092224
     51          6           0       -5.682883    2.065985   -0.016683
     52          7           0       -5.145114    0.895899    0.682925
     53          1           0       -4.721350    1.359262   -3.730834
     54          1           0       -3.554178    2.046033   -2.820805
     55          1           0       -5.078958    1.940084   -2.248199
     56          1           0       -1.086336   -3.860381    0.091143
     57          1           0       -2.750644   -3.968911   -0.267188
     58          7           0       -1.909260   -3.427433   -0.276966
     59          6           0       -1.886731   -2.183381   -0.759657
     60          6           0       -2.835032   -0.239205   -1.750927
     61          7           0       -1.690739    0.464375   -1.751338
     62          1           0        0.268405    0.241730   -1.192049
     63          6           0       -0.699666   -0.255938   -1.229973
     64          7           0       -0.720215   -1.502090   -0.745981
     65          1           0       -5.968787   -0.841614   -2.269440
     66          6           0       -4.914361   -0.890875   -1.996113
     67          7           0       -4.334302   -1.930684   -1.448399
     68          6           0       -3.015591   -1.530821   -1.287634
     69          6           0       -4.380181    1.483563   -2.799087
     70          7           0       -4.066020    0.168555   -2.207446
 ---------------------------------------------------------------------

 SCF Done:  E(RwB97XD) =  -2048.74133443     A.U. after   15 cycles

 The electronic state is 1-A.
 Alpha  occ. eigenvalues --  -19.25828 -19.21943 -19.20538 -14.52546 -14.51593
 Alpha  occ. eigenvalues --  -14.50069 -14.48342 -14.47746 -14.46684 -14.46600
 Alpha  occ. eigenvalues --  -14.46362 -14.44414 -14.43202 -14.43113 -14.43085
 Alpha  occ. eigenvalues --  -14.42641 -14.42026 -14.41776 -14.41143 -14.40572
 Alpha  occ. eigenvalues --  -10.45463 -10.40936 -10.39982 -10.38672 -10.38038
 Alpha  occ. eigenvalues --  -10.37569 -10.37030 -10.36450 -10.36114 -10.36000
 Alpha  occ. eigenvalues --  -10.35293 -10.34789 -10.34528 -10.34055 -10.34030
 Alpha  occ. eigenvalues --  -10.33298 -10.33063 -10.32136 -10.31490 -10.30870
 Alpha  occ. eigenvalues --  -10.29815 -10.29743 -10.27837  -1.19489  -1.14246
 Alpha  occ. eigenvalues --   -1.13051  -1.12923  -1.12622  -1.10330  -1.09416
 Alpha  occ. eigenvalues --   -1.08359  -1.08027  -1.06060  -1.03568  -1.02495
 Alpha  occ. eigenvalues --   -1.01525  -0.99996  -0.99474  -0.98302  -0.98146
 Alpha  occ. eigenvalues --   -0.96185  -0.95668  -0.93700  -0.90986  -0.86807
 Alpha  occ. eigenvalues --   -0.85372  -0.85120  -0.84000  -0.83736  -0.83456
 Alpha  occ. eigenvalues --   -0.81889  -0.78862  -0.76004  -0.74338  -0.73984
 Alpha  occ. eigenvalues --   -0.73788  -0.73460  -0.73309  -0.72163  -0.69400
 Alpha  occ. eigenvalues --   -0.67404  -0.67119  -0.66557  -0.65714  -0.64526
 Alpha  occ. eigenvalues --   -0.63815  -0.63529  -0.63184  -0.62483  -0.61844
 Alpha  occ. eigenvalues --   -0.61467  -0.61215  -0.59718  -0.59434  -0.58708
 Alpha  occ. eigenvalues --   -0.58125  -0.57978  -0.57538  -0.57212  -0.56460
 Alpha  occ. eigenvalues --   -0.56199  -0.55931  -0.55634  -0.54482  -0.54315
 Alpha  occ. eigenvalues --   -0.53938  -0.53353  -0.53014  -0.52969  -0.52539
 Alpha  occ. eigenvalues --   -0.52353  -0.51880  -0.51452  -0.51429  -0.51217
 Alpha  occ. eigenvalues --   -0.50123  -0.49851  -0.49412  -0.48964  -0.48698
 Alpha  occ. eigenvalues --   -0.48531  -0.48273  -0.48025  -0.47950  -0.47623
 Alpha  occ. eigenvalues --   -0.47265  -0.45923  -0.45284  -0.44060  -0.43113
 Alpha  occ. eigenvalues --   -0.41933  -0.39790  -0.39420  -0.38299  -0.37136
 Alpha  occ. eigenvalues --   -0.37040  -0.36869  -0.36602  -0.35840  -0.34747
 Alpha  occ. eigenvalues --   -0.34586  -0.33983  -0.33601  -0.33280  -0.33099
 Alpha  occ. eigenvalues --   -0.32542  -0.32012  -0.31941  -0.31696  -0.31536
 Alpha  occ. eigenvalues --   -0.31378  -0.28566  -0.26860  -0.25178
 Alpha virt. eigenvalues --    0.02751   0.05350   0.06794   0.07657   0.09050
 Alpha virt. eigenvalues --    0.09219   0.09668   0.10189   0.11236   0.11900
 Alpha virt. eigenvalues --    0.12840   0.13158   0.14530   0.14827   0.15068

 Mulliken charges:
               1
     1  N   -0.310464
     2  C    0.178554
     3  C    0.048899
     4  N   -0.249857
     5  C    0.126132
     6  H    0.029653
     7  N   -0.272926
     8  C    0.131207
     9  H    0.016512
    10  N   -0.288737
    11  C    0.226823
    12  C    0.090492
    13  N   -0.038467
    14  H    0.109018
    15  H    0.089045
    16  H    0.031013
    17  H    0.037034
    18  H    0.025263
    19  N   -0.295286
    20  C    0.246633
    21  C    0.190602
    22  N   -0.111040
    23  H    0.113764
    24  H    0.115941
    25  N   -0.297572
    26  C    0.218435
    27  N   -0.137332
    28  H    0.129067
    29  C    0.156880
    30  O   -0.324734
    31  C    0.002178
    32  N   -0.226110
    33  C    0.123170
    34  H    0.023463
    35  H    0.014676
    36  H    0.028231
    37  H    0.017961
    38  H    0.050898
    39  H    0.064280
    40  H    0.077497
    41  H    0.028450
    42  C   -0.075277
    43  O   -0.267272
    44  C    0.173521
    45  H    0.133892
    46  N   -0.123520
    47  O   -0.340527
    48  C    0.333685
    49  H    0.041983
    50  C    0.154454
    51  C    0.042269
    52  N   -0.278237
    53  H    0.031460
    54  H    0.038196
    55  H   -0.010598
    56  H    0.119247
    57  H    0.120602
    58  N   -0.056399
    59  C    0.126747
    60  C    0.210551
    61  N   -0.274173
    62  H    0.032392
    63  C    0.161117
    64  N   -0.306480
    65  H    0.028297
    66  C    0.118161
    67  N   -0.245174
    68  C    0.023974
    69  C    0.190254
    70  N   -0.292390
 Sum of Mulliken charges =  -0.00000

 Dipole moment (field-independent basis, Debye):
    X=             -4.2814    Y=              5.2674    Z=             -5.1091  Tot=              8.4958
 Quadrupole moment (field-independent basis, Debye-Ang):
   XX=           -142.6635   YY=           -225.3574   ZZ=           -260.9474
   XY=            -15.0007   XZ=             17.7717   YZ=              0.7443

 Normal termination of Gaussian 16 at Thu Jan 18 12:38:45 2018.
