 Gaussian 16, Revision A.03,
 Gaussian 16:  EM64L-G16RevA.03 25-Dec-2016

 ---------------------------------------
 #p wb97xd/cc-pvdz sp scf=(maxcycles=20)
 ---------------------------------------

 ------------------
 Base pair stacking
 ------------------
 Symbolic Z-matrix:
 Charge =  0 Multiplicity = 1

                         Standard orientation:
 ---------------------------------------------------------------------
 Center     Atomic      Atomic             Coordinates (Angstroms)
 Number     Number       Type             X           Y           Z
 ---------------------------------------------------------------------
      1          7           0        5.418199   -1.647461   -0.717600
      2          6           0        6.692304   -1.284637   -1.368015
      3          6           0        3.280692   -1.881028   -0.255179
      4          7           0        3.970792   -2.507704    0.772339
      5          6           0        5.230941   -2.341905    0.452613
      6          1           0        6.073076   -2.708996    1.039971
      7          7           0        1.554438   -1.032527   -1.620107
      8          6           0        2.519335   -0.572508   -2.423187
      9          1           0        2.173354   -0.038338   -3.307049
     10          7           0        3.841225   -0.672794   -2.298959
     11          6           0        4.159455   -1.346075   -1.180991
     12          6           0        1.907129   -1.705836   -0.503255
     13          7           0        0.945397   -2.165812    0.299651
     14          1           0        1.160383   -2.669635    1.137001
     15          1           0       -0.022266   -2.022563    0.091666
     16          1           0        7.205176   -2.115072   -1.585988
     17          1           0        6.505544   -0.778811   -2.209669
     18          1           0        7.233181   -0.713264   -0.750779
     19          7           0        4.802909    1.546502    0.627455
     20          6           0        3.465851    1.749852    0.384569
     21          6           0        5.911127    2.132887   -0.152739
     22          7           0        0.938996    3.222015   -1.488778
     23          1           0       -0.060464    3.239000   -1.494804
     24          1           0        1.406130    3.757690   -2.192747
     25          7           0        2.944026    2.513365   -0.599698
     26          6           0        1.622986    2.513047   -0.578051
     27          7           0        0.868790    1.818813    0.336683
     28          1           0       -0.136254    1.876717    0.277563
     29          6           0        1.384403    1.026934    1.357922
     30          8           0        0.615965    0.441752    2.131100
     31          6           0        2.802391    1.017432    1.347477
     32          7           0        3.704751    0.367354    2.178148
     33          6           0        4.875985    0.709702    1.714219
     34          1           0        5.828947    0.379078    2.128754
     35          1           0        6.464994    1.401739   -0.549549
     36          1           0        5.536732    2.700553   -0.884763
     37          1           0        6.480992    2.695288    0.445393
     38          1           0       -5.067565    2.061500   -0.947473
     39          1           0       -5.125598    3.275382    0.328369
     40          1           0       -3.665110    3.086956   -0.642637
     41          1           0       -5.041635   -0.756683    2.951720
     42          6           0       -4.356091   -0.127338    2.384117
     43          8           0       -2.403620   -1.057911    3.358284
     44          6           0       -2.946288   -0.270023    2.583988
     45          1           0       -1.167430    0.502257    1.930118
     46          7           0       -2.168794    0.573697    1.816597
     47          8           0       -1.839287    2.209005    0.275701
     48          6           0       -2.606537    1.506061    0.909616
     49          1           0       -5.875960    0.920825    1.317745
     50          6           0       -4.813426    0.773281    1.506430
     51          6           0       -4.493259    2.566436   -0.185066
     52          7           0       -3.978559    1.584093    0.772975
     53          1           0       -5.918618    0.259287   -3.893198
     54          1           0       -4.610493    1.126551   -3.447343
     55          1           0       -6.069857    1.457518   -2.795567
     56          1           0       -2.331448   -3.206682    1.600862
     57          1           0       -4.027598   -3.260696    1.426927
     58          7           0       -3.151183   -2.879434    1.130674
     59          6           0       -3.079891   -1.974859    0.151987
     60          6           0       -3.968313   -0.546478   -1.530916
     61          7           0       -2.777661   -0.051839   -1.907900
     62          1           0       -0.794664   -0.243138   -1.426494
     63          6           0       -1.798156   -0.590635   -1.184591
     64          7           0       -1.867523   -1.496767   -0.203933
     65          1           0       -7.177498   -0.937726   -1.544170
     66          6           0       -6.107496   -0.989348   -1.340786
     67          7           0       -5.558253   -1.754397   -0.429346
     68          6           0       -4.202104   -1.483279   -0.539330
     69          6           0       -5.472093    0.729793   -3.132123
     70          7           0       -5.203864   -0.231441   -2.044886
 ---------------------------------------------------------------------

 SCF Done:  E(RwB97XD) =  -2048.74754308     A.U. after   15 cycles

 The electronic state is 1-A.
 Alpha  occ. eigenvalues --  -19.25440 -19.21630 -19.20615 -14.52286 -14.52124
 Alpha  occ. eigenvalues --  -14.49213 -14.48971 -14.47428 -14.47212 -14.46834
 Alpha  occ. eigenvalues --  -14.46628 -14.45050 -14.43966 -14.43821 -14.42640
 Alpha  occ. eigenvalues --  -14.41970 -14.41581 -14.41343 -14.40973 -14.40767
 Alpha  occ. eigenvalues --  -10.45055 -10.41179 -10.39772 -10.39300 -10.38260
 Alpha  occ. eigenvalues --  -10.37700 -10.37238 -10.36846 -10.35887 -10.35451
 Alpha  occ. eigenvalues --  -10.35084 -10.34421 -10.34328 -10.34039 -10.33788
 Alpha  occ. eigenvalues --  -10.33555 -10.33508 -10.32190 -10.31788 -10.31226
 Alpha  occ. eigenvalues --  -10.30508 -10.28897 -10.28172  -1.19056  -1.14958
 Alpha  occ. eigenvalues --   -1.13210  -1.12725  -1.11746  -1.10692  -1.08971
 Alpha  occ. eigenvalues --   -1.08769  -1.08547  -1.05498  -1.04250  -1.02160
 Alpha  occ. eigenvalues --   -1.00845  -1.00656  -0.99706  -0.98537  -0.97385
 Alpha  occ. eigenvalues --   -0.96693  -0.96369  -0.93150  -0.90587  -0.87349
 Alpha  occ. eigenvalues --   -0.85788  -0.84520  -0.84163  -0.83429  -0.82987
 Alpha  occ. eigenvalues --   -0.82583  -0.78486  -0.76608  -0.74709  -0.74439
 Alpha  occ. eigenvalues --   -0.73608  -0.73339  -0.72983  -0.71475  -0.69961
 Alpha  occ. eigenvalues --   -0.67409  -0.66747  -0.66341  -0.66166  -0.64401
 Alpha  occ. eigenvalues --   -0.63793  -0.63667  -0.63132  -0.62618  -0.61776
 Alpha  occ. eigenvalues --   -0.61286  -0.60730  -0.60077  -0.59190  -0.59105
 Alpha  occ. eigenvalues --   -0.58465  -0.58368  -0.58141  -0.57007  -0.55935
 Alpha  occ. eigenvalues --   -0.55836  -0.55720  -0.55075  -0.54814  -0.54159
 Alpha  occ. eigenvalues --   -0.53892  -0.53611  -0.53382  -0.53006  -0.52603
 Alpha  occ. eigenvalues --   -0.52470  -0.52310  -0.52047  -0.51171  -0.50723
 Alpha  occ. eigenvalues --   -0.50221  -0.49870  -0.49362  -0.49221  -0.49123
 Alpha  occ. eigenvalues --   -0.48834  -0.48343  -0.47935  -0.47754  -0.47384
 Alpha  occ. eigenvalues --   -0.47301  -0.46195  -0.45012  -0.44112  -0.43217
 Alpha  occ. eigenvalues --   -0.41452  -0.40364  -0.39099  -0.37656  -0.37513
 Alpha  occ. eigenvalues --   -0.37233  -0.37135  -0.37028  -0.35978  -0.34605
 Alpha  occ. eigenvalues --   -0.34214  -0.33963  -0.33686  -0.33527  -0.33000
 Alpha  occ. eigenvalues --   -0.32640  -0.32282  -0.31876  -0.31516  -0.31219
 Alpha  occ. eigenvalues --   -0.30802  -0.29337  -0.26793  -0.24871
 Alpha virt. eigenvalues --    0.03048   0.04647   0.07109   0.07370   0.08776
 Alpha virt. eigenvalues --    0.09238   0.09782   0.10699   0.10782   0.12090
 Alpha virt. eigenvalues --    0.12913   0.13780   0.14216   0.14348   0.15102

 Mulliken charges:
               1
     1  N   -0.304091
     2  C    0.178908
     3  C    0.052152
     4  N   -0.236445
     5  C    0.121882
     6  H    0.024242
     7  N   -0.289946
     8  C    0.135976
     9  H    0.010541
    10  N   -0.282747
    11  C    0.231669
    12  C    0.082873
    13  N   -0.041813
    14  H    0.114063
    15  H    0.086658
    16  H    0.028094
    17  H    0.035551
    18  H    0.023221
    19  N   -0.299364
    20  C    0.251912
    21  C    0.190462
    22  N   -0.123957
    23  H    0.118109
    24  H    0.118600
    25  N   -0.304823
    26  C    0.243116
    27  N   -0.139800
    28  H    0.117907
    29  C    0.182600
    30  O   -0.325495
    31  C   -0.015532
    32  N   -0.212150
    33  C    0.118252
    34  H    0.018258
    35  H   -0.000569
    36  H    0.034610
    37  H    0.025472
    38  H    0.028249
    39  H    0.059227
    40  H    0.079053
    41  H    0.022315
    42  C   -0.092591
    43  O   -0.275828
    44  C    0.157477
    45  H    0.129330
    46  N   -0.104105
    47  O   -0.347430
    48  C    0.335219
    49  H    0.043203
    50  C    0.170728
    51  C    0.051567
    52  N   -0.273846
    53  H    0.034836
    54  H    0.041426
    55  H    0.029008
    56  H    0.125463
    57  H    0.116717
    58  N   -0.034963
    59  C    0.068962
    60  C    0.220423
    61  N   -0.264698
    62  H    0.026033
    63  C    0.156146
    64  N   -0.292126
    65  H    0.035254
    66  C    0.120573
    67  N   -0.249769
    68  C    0.044535
    69  C    0.177230
    70  N   -0.306015
 Sum of Mulliken charges =  -0.00000

 Dipole moment (field-independent basis, Debye):
    X=             -4.7521    Y=              4.5137    Z=             -6.1558  Tot=              8.9916
 Quadrupole moment (field-independent basis, Debye-Ang):
   XX=           -146.1261   YY=           -227.2260   ZZ=           -258.7469
   XY=             -9.6845   XZ=              7.9077   YZ=            -10.3369

 Normal termination of Gaussian 16 at Thu Jan 18 11:36:10 2018.
