 Gaussian 16, Revision A.03,
 Gaussian 16:  EM64L-G16RevA.03 25-Dec-2016

 ---------------------------------------
 #p wb97xd/cc-pvdz sp scf=(maxcycles=20)
 ---------------------------------------

 ------------------
 Base pair stacking
 ------------------
 Symbolic Z-matrix:
 Charge =  0 Multiplicity = 1

                         Standard orientation:
 ---------------------------------------------------------------------
 Center     Atomic      Atomic             Coordinates (Angstroms)
 Number     Number       Type             X           Y           Z
 ---------------------------------------------------------------------
      1          7           0       -5.418483   -1.776441    0.544952
      2          6           0       -6.690738   -1.533034    1.252151
      3          6           0       -3.282476   -1.917316    0.040048
      4          7           0       -3.975090   -2.372483   -1.072541
      5          6           0       -5.234237   -2.269394   -0.723822
      6          1           0       -6.077745   -2.541281   -1.359048
      7          7           0       -1.552990   -1.291529    1.516591
      8          6           0       -2.515695   -0.975087    2.388753
      9          1           0       -2.167504   -0.590022    3.346216
     10          7           0       -3.837706   -1.062477    2.256358
     11          6           0       -4.158743   -1.546410    1.045082
     12          6           0       -1.908474   -1.775884    0.306587
     13          7           0       -0.948926   -2.092338   -0.565361
     14          1           0       -1.166025   -2.454182   -1.472643
     15          1           0        0.019123   -1.978564   -0.341568
     16          1           0       -7.197558   -2.391276    1.334201
     17          1           0       -6.501859   -1.170090    2.164134
     18          1           0       -7.238530   -0.872184    0.739122
     19          7           0       -4.800959    1.661976   -0.460644
     20          6           0       -3.463449    1.843653   -0.203517
     21          6           0       -5.907823    2.188341    0.363060
     22          7           0       -0.933236    3.162502    1.776479
     23          1           0        0.066261    3.177236    1.783259
     24          1           0       -1.399132    3.643083    2.519919
     25          7           0       -2.939873    2.528040    0.836451
     26          6           0       -1.618844    2.527109    0.814130
     27          7           0       -0.866245    1.904204   -0.151833
     28          1           0        0.138920    1.955625   -0.088965
     29          6           0       -1.383667    1.194369   -1.230852
     30          8           0       -0.616591    0.669246   -2.047279
     31          6           0       -2.801670    1.186554   -1.220410
     32          7           0       -3.705521    0.604070   -2.098279
     33          6           0       -4.875956    0.911645   -1.608694
     34          1           0       -5.829665    0.615643   -2.046979
     35          1           0       -6.462830    1.429721    0.702572
     36          1           0       -5.532121    2.697188    1.136483
     37          1           0       -6.476933    2.796204   -0.189602
     38          1           0        5.071048    2.036777    1.144038
     39          1           0        5.130715    3.345362   -0.034384
     40          1           0        3.670287    3.085124    0.919975
     41          1           0        5.038549   -0.472140   -2.960950
     42          6           0        4.354348    0.112738   -2.346109
     43          8           0        2.399841   -0.736506   -3.388125
     44          6           0        2.944220   -0.011656   -2.555637
     45          1           0        1.166991    0.710965   -1.843189
     46          7           0        2.168532    0.771696   -1.725030
     47          8           0        1.842538    2.283824   -0.062388
     48          6           0        2.608297    1.630541   -0.749053
     49          1           0        5.876504    1.072853   -1.202860
     50          6           0        4.813635    0.942168   -1.401807
     51          6           0        4.497320    2.600026    0.423162
     52          7           0        3.980506    1.695418   -0.607534
     53          1           0        5.925971   -0.338614    3.933072
     54          1           0        4.610304    0.581123    3.641199
     55          1           0        6.063840    1.023620    3.044965
     56          1           0        2.325985   -2.885290   -2.035187
     57          1           0        4.023424   -2.955766   -1.880779
     58          7           0        3.146635   -2.633744   -1.521945
     59          6           0        3.076004   -1.901472   -0.408414
     60          6           0        3.966266   -0.760997    1.480630
     61          7           0        2.775082   -0.342372    1.939158
     62          1           0        0.790375   -0.465630    1.442799
     63          6           0        1.794372   -0.762380    1.142473
     64          7           0        1.863075   -1.495881    0.026749
     65          1           0        7.177664   -1.127969    1.413979
     66          6           0        6.106771   -1.152779    1.210195
     67          7           0        5.556490   -1.762460    0.188844
     68          6           0        4.199500   -1.521885    0.348297
     69          6           0        5.472252    0.246806    3.261193
     70          7           0        5.203043   -0.525893    2.032997
 ---------------------------------------------------------------------

 SCF Done:  E(RwB97XD) =  -2048.74377281     A.U. after   15 cycles

 The electronic state is 1-A.
 Alpha  occ. eigenvalues --  -19.25543 -19.21659 -19.20685 -14.52225 -14.52165
 Alpha  occ. eigenvalues --  -14.49120 -14.49009 -14.47523 -14.46923 -14.46912
 Alpha  occ. eigenvalues --  -14.46693 -14.44947 -14.43851 -14.43671 -14.42488
 Alpha  occ. eigenvalues --  -14.42044 -14.41474 -14.41257 -14.40987 -14.40653
 Alpha  occ. eigenvalues --  -10.45148 -10.41258 -10.39861 -10.39112 -10.38326
 Alpha  occ. eigenvalues --  -10.37604 -10.37293 -10.36726 -10.35769 -10.35321
 Alpha  occ. eigenvalues --  -10.35202 -10.34473 -10.34228 -10.33893 -10.33697
 Alpha  occ. eigenvalues --  -10.33521 -10.33459 -10.32069 -10.31669 -10.31269
 Alpha  occ. eigenvalues --  -10.30546 -10.28800 -10.28220  -1.19145  -1.14834
 Alpha  occ. eigenvalues --   -1.13274  -1.12866  -1.11648  -1.10739  -1.09060
 Alpha  occ. eigenvalues --   -1.08618  -1.08613  -1.05388  -1.04098  -1.02259
 Alpha  occ. eigenvalues --   -1.00730  -1.00516  -0.99776  -0.98601  -0.97272
 Alpha  occ. eigenvalues --   -0.96735  -0.96222  -0.93035  -0.90665  -0.87216
 Alpha  occ. eigenvalues --   -0.85633  -0.84426  -0.84189  -0.83511  -0.82888
 Alpha  occ. eigenvalues --   -0.82609  -0.78572  -0.76473  -0.74759  -0.74318
 Alpha  occ. eigenvalues --   -0.73675  -0.73233  -0.73063  -0.71374  -0.69810
 Alpha  occ. eigenvalues --   -0.67467  -0.66636  -0.66276  -0.66167  -0.64452
 Alpha  occ. eigenvalues --   -0.63776  -0.63586  -0.63016  -0.62678  -0.61834
 Alpha  occ. eigenvalues --   -0.61012  -0.60607  -0.59930  -0.59215  -0.58995
 Alpha  occ. eigenvalues --   -0.58534  -0.58423  -0.57865  -0.56893  -0.56075
 Alpha  occ. eigenvalues --   -0.55816  -0.55730  -0.54975  -0.54893  -0.54230
 Alpha  occ. eigenvalues --   -0.53838  -0.53691  -0.53254  -0.53065  -0.52581
 Alpha  occ. eigenvalues --   -0.52360  -0.52213  -0.52157  -0.51141  -0.50621
 Alpha  occ. eigenvalues --   -0.50298  -0.49775  -0.49560  -0.49230  -0.49104
 Alpha  occ. eigenvalues --   -0.48899  -0.48423  -0.47837  -0.47639  -0.47385
 Alpha  occ. eigenvalues --   -0.47292  -0.46205  -0.44975  -0.43915  -0.43214
 Alpha  occ. eigenvalues --   -0.41366  -0.40251  -0.39194  -0.37713  -0.37453
 Alpha  occ. eigenvalues --   -0.37285  -0.37130  -0.36975  -0.35909  -0.34591
 Alpha  occ. eigenvalues --   -0.34090  -0.33860  -0.33583  -0.33471  -0.33084
 Alpha  occ. eigenvalues --   -0.32716  -0.32293  -0.31905  -0.31589  -0.31146
 Alpha  occ. eigenvalues --   -0.30703  -0.29088  -0.26691  -0.24916
 Alpha virt. eigenvalues --    0.02970   0.04701   0.07189   0.07496   0.08748
 Alpha virt. eigenvalues --    0.09261   0.09711   0.10764   0.10869   0.11840
 Alpha virt. eigenvalues --    0.12894   0.13770   0.14153   0.14339   0.15088

 Mulliken charges:
               1
     1  N   -0.305445
     2  C    0.178799
     3  C    0.047734
     4  N   -0.234875
     5  C    0.120994
     6  H    0.023794
     7  N   -0.291912
     8  C    0.136185
     9  H    0.011068
    10  N   -0.286157
    11  C    0.236393
    12  C    0.085263
    13  N   -0.041398
    14  H    0.114729
    15  H    0.086941
    16  H    0.028214
    17  H    0.034826
    18  H    0.020996
    19  N   -0.302616
    20  C    0.256432
    21  C    0.186477
    22  N   -0.124752
    23  H    0.117910
    24  H    0.118932
    25  N   -0.308546
    26  C    0.247437
    27  N   -0.143647
    28  H    0.118793
    29  C    0.186669
    30  O   -0.326392
    31  C   -0.019012
    32  N   -0.211809
    33  C    0.120073
    34  H    0.018362
    35  H    0.009211
    36  H    0.033728
    37  H    0.025373
    38  H    0.036585
    39  H    0.059805
    40  H    0.078385
    41  H    0.021820
    42  C   -0.092153
    43  O   -0.279893
    44  C    0.156945
    45  H    0.129202
    46  N   -0.103100
    47  O   -0.348785
    48  C    0.337596
    49  H    0.043475
    50  C    0.174084
    51  C    0.048723
    52  N   -0.275591
    53  H    0.035162
    54  H    0.041379
    55  H    0.026708
    56  H    0.126404
    57  H    0.115189
    58  N   -0.026622
    59  C    0.056740
    60  C    0.225768
    61  N   -0.266492
    62  H    0.027564
    63  C    0.156231
    64  N   -0.291589
    65  H    0.034853
    66  C    0.120171
    67  N   -0.250274
    68  C    0.043096
    69  C    0.176521
    70  N   -0.306680
 Sum of Mulliken charges =  -0.00000

 Dipole moment (field-independent basis, Debye):
    X=              4.7799    Y=              4.2223    Z=              6.3329  Tot=              8.9878
 Quadrupole moment (field-independent basis, Debye-Ang):
   XX=           -145.9316   YY=           -229.9491   ZZ=           -255.1165
   XY=              8.6352   XZ=              8.9686   YZ=             13.1906

 Normal termination of Gaussian 16 at Wed Jan 17 21:49:16 2018.
