 Gaussian 16, Revision A.03,
 Gaussian 16:  EM64L-G16RevA.03 25-Dec-2016

 ---------------------------------------
 #p wb97xd/cc-pvdz sp scf=(maxcycles=20)
 ---------------------------------------

 ------------------
 Base pair stacking
 ------------------
 Symbolic Z-matrix:
 Charge =  0 Multiplicity = 1

                         Standard orientation:
 ---------------------------------------------------------------------
 Center     Atomic      Atomic             Coordinates (Angstroms)
 Number     Number       Type             X           Y           Z
 ---------------------------------------------------------------------
      1          7           0        5.120768   -1.317404   -1.260628
      2          6           0        6.395950   -0.734119   -1.720734
      3          6           0        2.982960   -1.697437   -0.910406
      4          7           0        3.670336   -2.694966   -0.234236
      5          6           0        4.930772   -2.426075   -0.472297
      6          1           0        5.771180   -3.008892   -0.094173
      7          7           0        1.260631   -0.349563   -1.793435
      8          6           0        2.227084    0.387750   -2.350129
      9          1           0        1.883355    1.238850   -2.936416
     10          7           0        3.548190    0.232289   -2.291608
     11          6           0        3.863617   -0.840874   -1.547807
     12          6           0        1.610509   -1.422639   -1.051016
     13          7           0        0.647205   -2.159870   -0.494500
     14          1           0        0.860113   -2.963014    0.063044
     15          1           0       -0.319588   -1.934655   -0.615846
     16          1           0        6.896288   -1.409076   -2.263215
     17          1           0        6.211288    0.072310   -2.281703
     18          1           0        6.948019   -0.468893   -0.930251
     19          7           0        5.100758    1.074861    0.898861
     20          6           0        3.764826    1.358768    0.748048
     21          6           0        6.207842    1.811351    0.256491
     22          7           0        1.239815    3.295708   -0.642760
     23          1           0        0.241235    3.334125   -0.618263
     24          1           0        1.706399    3.977529   -1.206793
     25          7           0        3.243268    2.350272   -0.006241
     26          6           0        1.923386    2.371753    0.049293
     27          7           0        1.170039    1.490552    0.786502
     28          1           0        0.165862    1.581740    0.769655
     29          6           0        1.685403    0.462651    1.569875
     30          8           0        0.917803   -0.277924    2.196828
     31          6           0        3.102138    0.426933    1.520268
     32          7           0        4.003883   -0.424849    2.143345
     33          6           0        5.173990   -0.003540    1.746400
     34          1           0        6.126200   -0.444929    2.042644
     35          1           0        6.734107    1.188202   -0.321037
     36          1           0        5.833627    2.548294   -0.304887
     37          1           0        6.804385    2.198664    0.958593
     38          1           0       -4.782867    2.161414   -0.243636
     39          1           0       -4.782931    3.027482    1.290821
     40          1           0       -3.348019    3.052268    0.265249
     41          1           0       -4.751408   -1.524414    2.848338
     42          6           0       -4.061293   -0.789577    2.433618
     43          8           0       -2.114470   -1.969881    3.099863
     44          6           0       -2.651942   -1.005661    2.555631
     45          1           0       -0.867116   -0.133587    2.063482
     46          7           0       -1.868376   -0.016057    1.997116
     47          8           0       -1.527528    1.939232    0.893538
     48          6           0       -2.299889    1.118514    1.356723
     49          1           0       -5.574548    0.518390    1.695324
     50          6           0       -4.512628    0.307455    1.814416
     51          6           0       -4.180038    2.452765    0.603588
     52          7           0       -3.671890    1.255690    1.279252
     53          1           0       -6.207036    1.830657   -3.264123
     54          1           0       -4.884775    2.428183   -2.517995
     55          1           0       -6.335790    2.479891   -1.772362
     56          1           0       -2.635982   -3.607198    0.305593
     57          1           0       -4.333669   -3.568677    0.142879
     58          7           0       -3.453872   -3.108686    0.018031
     59          6           0       -3.375895   -1.884861   -0.508620
     60          6           0       -4.254428    0.113648   -1.455116
     61          7           0       -3.059356    0.706880   -1.610924
     62          1           0       -1.076429    0.316279   -1.270257
     63          6           0       -2.083138   -0.089474   -1.179954
     64          7           0       -2.159206   -1.315534   -0.652164
     65          1           0       -7.468649   -0.206032   -1.592067
     66          6           0       -6.398310   -0.346725   -1.438748
     67          7           0       -5.854314   -1.421971   -0.923383
     68          6           0       -4.495263   -1.143231   -0.928048
     69          6           0       -5.749865    1.946162   -2.382283
     70          7           0       -5.488512    0.622997   -1.783166
 ---------------------------------------------------------------------

 SCF Done:  E(RwB97XD) =  -2048.73719632     A.U. after   15 cycles

 The electronic state is 1-A.
 Alpha  occ. eigenvalues --  -19.25224 -19.21472 -19.20578 -14.52649 -14.51769
 Alpha  occ. eigenvalues --  -14.49261 -14.49060 -14.47954 -14.47152 -14.46639
 Alpha  occ. eigenvalues --  -14.46580 -14.45363 -14.44329 -14.44318 -14.42907
 Alpha  occ. eigenvalues --  -14.41784 -14.41598 -14.41414 -14.41136 -14.40986
 Alpha  occ. eigenvalues --  -10.44804 -10.41010 -10.39863 -10.39543 -10.38194
 Alpha  occ. eigenvalues --  -10.37964 -10.37166 -10.37104 -10.36044 -10.35873
 Alpha  occ. eigenvalues --  -10.34432 -10.34406 -10.34396 -10.34337 -10.33849
 Alpha  occ. eigenvalues --  -10.33662 -10.33630 -10.32580 -10.31876 -10.31222
 Alpha  occ. eigenvalues --  -10.30328 -10.28967 -10.28194  -1.18853  -1.15340
 Alpha  occ. eigenvalues --   -1.13183  -1.12471  -1.11815  -1.10740  -1.09297
 Alpha  occ. eigenvalues --   -1.08697  -1.08471  -1.05684  -1.04763  -1.01889
 Alpha  occ. eigenvalues --   -1.01071  -1.01018  -0.99630  -0.98494  -0.97530
 Alpha  occ. eigenvalues --   -0.96870  -0.96715  -0.93350  -0.90363  -0.87723
 Alpha  occ. eigenvalues --   -0.86185  -0.84858  -0.84076  -0.83346  -0.83017
 Alpha  occ. eigenvalues --   -0.82489  -0.78252  -0.77041  -0.74896  -0.74722
 Alpha  occ. eigenvalues --   -0.73603  -0.73419  -0.72742  -0.71610  -0.70407
 Alpha  occ. eigenvalues --   -0.67418  -0.66879  -0.66795  -0.65965  -0.64436
 Alpha  occ. eigenvalues --   -0.64246  -0.63521  -0.63293  -0.62564  -0.61758
 Alpha  occ. eigenvalues --   -0.61642  -0.60987  -0.60497  -0.59629  -0.59221
 Alpha  occ. eigenvalues --   -0.58959  -0.58591  -0.58285  -0.57188  -0.56124
 Alpha  occ. eigenvalues --   -0.55626  -0.55502  -0.55180  -0.54398  -0.54279
 Alpha  occ. eigenvalues --   -0.54034  -0.53802  -0.53406  -0.52994  -0.52932
 Alpha  occ. eigenvalues --   -0.52684  -0.52426  -0.51655  -0.51090  -0.50691
 Alpha  occ. eigenvalues --   -0.50205  -0.50058  -0.49438  -0.49111  -0.48864
 Alpha  occ. eigenvalues --   -0.48713  -0.48262  -0.48159  -0.48083  -0.47537
 Alpha  occ. eigenvalues --   -0.47140  -0.46183  -0.44776  -0.44653  -0.43179
 Alpha  occ. eigenvalues --   -0.41446  -0.40720  -0.38902  -0.37775  -0.37710
 Alpha  occ. eigenvalues --   -0.37532  -0.37187  -0.36914  -0.35923  -0.34734
 Alpha  occ. eigenvalues --   -0.34583  -0.34261  -0.33909  -0.33726  -0.32901
 Alpha  occ. eigenvalues --   -0.32530  -0.32374  -0.31857  -0.31448  -0.31105
 Alpha  occ. eigenvalues --   -0.30729  -0.29812  -0.27226  -0.24511
 Alpha virt. eigenvalues --    0.03085   0.04533   0.06529   0.06825   0.08240
 Alpha virt. eigenvalues --    0.09484   0.10089   0.10437   0.11311   0.12450
 Alpha virt. eigenvalues --    0.12579   0.13645   0.14134   0.14806   0.14913

 Mulliken charges:
               1
     1  N   -0.299688
     2  C    0.184991
     3  C    0.065072
     4  N   -0.240034
     5  C    0.130628
     6  H    0.024502
     7  N   -0.283242
     8  C    0.130017
     9  H    0.005344
    10  N   -0.268762
    11  C    0.222080
    12  C    0.067365
    13  N   -0.042866
    14  H    0.113446
    15  H    0.085644
    16  H    0.026786
    17  H    0.035577
    18  H    0.021545
    19  N   -0.294450
    20  C    0.237284
    21  C    0.192702
    22  N   -0.115181
    23  H    0.118681
    24  H    0.118757
    25  N   -0.284852
    26  C    0.210905
    27  N   -0.123427
    28  H    0.120260
    29  C    0.170084
    30  O   -0.321839
    31  C   -0.000176
    32  N   -0.211319
    33  C    0.108631
    34  H    0.019654
    35  H   -0.016140
    36  H    0.036727
    37  H    0.025677
    38  H    0.009587
    39  H    0.054111
    40  H    0.079661
    41  H    0.022116
    42  C   -0.101997
    43  O   -0.271811
    44  C    0.165859
    45  H    0.127954
    46  N   -0.104982
    47  O   -0.346007
    48  C    0.322739
    49  H    0.044206
    50  C    0.167274
    51  C    0.064330
    52  N   -0.270293
    53  H    0.035014
    54  H    0.043280
    55  H    0.032483
    56  H    0.125172
    57  H    0.118909
    58  N   -0.050115
    59  C    0.094999
    60  C    0.209292
    61  N   -0.265112
    62  H    0.019837
    63  C    0.165584
    64  N   -0.299241
    65  H    0.037201
    66  C    0.127869
    67  N   -0.251731
    68  C    0.048556
    69  C    0.184417
    70  N   -0.309543
 Sum of Mulliken charges =  -0.00000

 Dipole moment (field-independent basis, Debye):
    X=             -4.8206    Y=              5.8103    Z=             -5.2381  Tot=              9.1889
 Quadrupole moment (field-independent basis, Debye-Ang):
   XX=           -146.6942   YY=           -224.1264   ZZ=           -264.4200
   XY=            -11.0746   XZ=              0.2232   YZ=              1.6752

 Normal termination of Gaussian 16 at Thu Jan 18 12:01:36 2018.
