 Gaussian 16, Revision A.03,
 Gaussian 16:  EM64L-G16RevA.03 25-Dec-2016

 ---------------------------------------
 #p wb97xd/cc-pvdz sp scf=(maxcycles=20)
 ---------------------------------------

 ------------------
 Base pair stacking
 ------------------
 Symbolic Z-matrix:
 Charge =  0 Multiplicity = 1

                         Standard orientation:
 ---------------------------------------------------------------------
 Center     Atomic      Atomic             Coordinates (Angstroms)
 Number     Number       Type             X           Y           Z
 ---------------------------------------------------------------------
      1          7           0        4.478391   -2.406783   -0.254782
      2          6           0        5.715207   -2.573340   -1.042532
      3          6           0        2.379043   -2.120238    0.335090
      4          7           0        3.102471   -2.226084    1.514145
      5          6           0        4.338303   -2.394475    1.111580
      6          1           0        5.195251   -2.516091    1.774732
      7          7           0        0.616171   -1.869128   -1.211563
      8          6           0        1.540776   -1.991742   -2.169500
      9          1           0        1.163777   -1.934501   -3.189723
     10          7           0        2.854987   -2.173602   -2.056916
     11          6           0        3.213578   -2.229709   -0.763588
     12          6           0        1.008849   -1.929930    0.079629
     13          7           0        0.087352   -1.807736    1.037288
     14          1           0        0.332802   -1.846569    2.006543
     15          1           0       -0.879216   -1.673292    0.818657
     16          1           0        6.133233   -3.455841   -0.826627
     17          1           0        5.497570   -2.538311   -2.017479
     18          1           0        6.356462   -1.839200   -0.819306
     19          7           0        5.689099    1.277325   -0.072282
     20          6           0        4.361621    1.530760   -0.320492
     21          6           0        6.797485    1.531965   -1.014272
     22          7           0        1.864509    2.679387   -2.443433
     23          1           0        0.870761    2.785716   -2.423699
     24          1           0        2.334804    2.964312   -3.279106
     25          7           0        3.850864    2.050817   -1.457475
     26          6           0        2.537119    2.177353   -1.396778
     27          7           0        1.779643    1.822354   -0.306960
     28          1           0        0.780782    1.954412   -0.349176
     29          6           0        2.283921    1.285440    0.873420
     30          8           0        1.513454    0.998935    1.798110
     31          6           0        3.693965    1.143563    0.823232
     32          7           0        4.584378    0.656831    1.770422
     33          6           0        5.752808    0.755205    1.196571
     34          1           0        6.696960    0.460266    1.655776
     35          1           0        7.268838    0.674245   -1.216654
     36          1           0        6.431247    1.917320   -1.860234
     37          1           0        7.441857    2.178006   -0.606569
     38          1           0       -4.178247    2.259399   -1.429836
     39          1           0       -4.070256    3.767866   -0.525666
     40          1           0       -2.683679    3.195925   -1.453912
     41          1           0       -4.170063    0.584546    3.080301
     42          6           0       -3.467553    0.975489    2.344184
     43          8           0       -1.546778    0.161240    3.473231
     44          6           0       -2.065097    0.762219    2.532501
     45          1           0       -0.267514    1.167278    1.642029
     46          7           0       -1.264548    1.297595    1.543697
     47          8           0       -0.887723    2.429021   -0.388932
     48          6           0       -1.673918    1.992479    0.433254
     49          1           0       -4.953240    1.838526    1.081755
     50          6           0       -3.897415    1.649470    1.271061
     51          6           0       -3.525264    2.893384   -0.848659
     52          7           0       -3.040586    2.156982    0.322040
     53          1           0       -6.892595   -1.005274   -3.568375
     54          1           0       -5.480094   -0.194844   -3.669055
     55          1           0       -6.841079    0.589499   -3.225645
     56          1           0       -3.136281   -1.657680    2.797945
     57          1           0       -4.839547   -1.588282    2.733621
     58          7           0       -3.963884   -1.514300    2.255127
     59          6           0       -3.903596   -1.236719    0.951095
     60          6           0       -4.813996   -0.747551   -1.192169
     61          7           0       -3.624062   -0.654292   -1.808455
     62          1           0       -1.629554   -0.814524   -1.364751
     63          6           0       -2.633301   -0.871555   -0.945836
     64          7           0       -2.691645   -1.149709    0.360604
     65          1           0       -8.033048   -0.706097   -0.895268
     66          6           0       -6.957466   -0.776517   -0.730577
     67          7           0       -6.396124   -1.042253    0.423523
     68          6           0       -5.037135   -1.026885    0.144878
     69          6           0       -6.340676   -0.274393   -3.166869
     70          7           0       -6.059175   -0.586838   -1.752252
 ---------------------------------------------------------------------

 SCF Done:  E(RwB97XD) =  -2048.73588471     A.U. after   15 cycles

 The electronic state is 1-A.
 Alpha  occ. eigenvalues --  -19.25366 -19.22335 -19.20931 -14.52394 -14.51843
 Alpha  occ. eigenvalues --  -14.49504 -14.48568 -14.47548 -14.47510 -14.47168
 Alpha  occ. eigenvalues --  -14.46956 -14.45283 -14.44420 -14.44271 -14.42371
 Alpha  occ. eigenvalues --  -14.42285 -14.41563 -14.41037 -14.40743 -14.40489
 Alpha  occ. eigenvalues --  -10.44954 -10.41600 -10.40128 -10.39749 -10.38611
 Alpha  occ. eigenvalues --  -10.37877 -10.37215 -10.36719 -10.35925 -10.35500
 Alpha  occ. eigenvalues --  -10.34916 -10.34649 -10.33986 -10.33828 -10.33679
 Alpha  occ. eigenvalues --  -10.33314 -10.33197 -10.32603 -10.31719 -10.31077
 Alpha  occ. eigenvalues --  -10.30355 -10.28653 -10.28449  -1.18948  -1.15143
 Alpha  occ. eigenvalues --   -1.13592  -1.13210  -1.11197  -1.11096  -1.09377
 Alpha  occ. eigenvalues --   -1.08937  -1.08676  -1.05138  -1.04814  -1.02197
 Alpha  occ. eigenvalues --   -1.00864  -1.00454  -1.00065  -0.98975  -0.97221
 Alpha  occ. eigenvalues --   -0.96930  -0.96634  -0.92802  -0.90508  -0.87582
 Alpha  occ. eigenvalues --   -0.85822  -0.84735  -0.83832  -0.83234  -0.83038
 Alpha  occ. eigenvalues --   -0.82283  -0.78395  -0.76953  -0.75132  -0.74833
 Alpha  occ. eigenvalues --   -0.73989  -0.73007  -0.72822  -0.71039  -0.70302
 Alpha  occ. eigenvalues --   -0.67792  -0.66815  -0.66266  -0.66060  -0.64770
 Alpha  occ. eigenvalues --   -0.64155  -0.63678  -0.62935  -0.62659  -0.62169
 Alpha  occ. eigenvalues --   -0.60463  -0.60446  -0.60095  -0.59429  -0.59062
 Alpha  occ. eigenvalues --   -0.58915  -0.58646  -0.57724  -0.56526  -0.56063
 Alpha  occ. eigenvalues --   -0.55941  -0.55479  -0.55133  -0.54679  -0.54350
 Alpha  occ. eigenvalues --   -0.54039  -0.53713  -0.53577  -0.53345  -0.52988
 Alpha  occ. eigenvalues --   -0.52711  -0.52073  -0.51682  -0.50782  -0.50636
 Alpha  occ. eigenvalues --   -0.50292  -0.50036  -0.49853  -0.49354  -0.48995
 Alpha  occ. eigenvalues --   -0.48868  -0.48752  -0.48437  -0.47565  -0.47421
 Alpha  occ. eigenvalues --   -0.46922  -0.45990  -0.45113  -0.44931  -0.42638
 Alpha  occ. eigenvalues --   -0.41126  -0.40650  -0.39186  -0.37896  -0.37769
 Alpha  occ. eigenvalues --   -0.37577  -0.37409  -0.36969  -0.35766  -0.34695
 Alpha  occ. eigenvalues --   -0.34390  -0.34252  -0.33722  -0.33516  -0.33283
 Alpha  occ. eigenvalues --   -0.33128  -0.32696  -0.32066  -0.30922  -0.30892
 Alpha  occ. eigenvalues --   -0.30441  -0.29993  -0.26542  -0.25179
 Alpha virt. eigenvalues --    0.03297   0.04288   0.06914   0.07938   0.08515
 Alpha virt. eigenvalues --    0.09018   0.09517   0.10526   0.10936   0.12106
 Alpha virt. eigenvalues --    0.12958   0.13423   0.14198   0.14544   0.14781

 Mulliken charges:
               1
     1  N   -0.306455
     2  C    0.185086
     3  C    0.033690
     4  N   -0.234818
     5  C    0.146668
     6  H    0.023979
     7  N   -0.296741
     8  C    0.129443
     9  H    0.009850
    10  N   -0.285918
    11  C    0.241848
    12  C    0.082381
    13  N   -0.052434
    14  H    0.121040
    15  H    0.090763
    16  H    0.025812
    17  H    0.034241
    18  H    0.011183
    19  N   -0.307673
    20  C    0.258131
    21  C    0.181548
    22  N   -0.123447
    23  H    0.118658
    24  H    0.119923
    25  N   -0.312183
    26  C    0.252493
    27  N   -0.146872
    28  H    0.120430
    29  C    0.191124
    30  O   -0.319836
    31  C   -0.014721
    32  N   -0.211445
    33  C    0.105433
    34  H    0.022115
    35  H    0.018502
    36  H    0.033200
    37  H    0.027609
    38  H    0.054208
    39  H    0.055781
    40  H    0.073995
    41  H    0.011939
    42  C   -0.094218
    43  O   -0.285270
    44  C    0.182550
    45  H    0.129815
    46  N   -0.117496
    47  O   -0.353882
    48  C    0.343027
    49  H    0.045258
    50  C    0.160182
    51  C    0.046092
    52  N   -0.276698
    53  H    0.035197
    54  H    0.041967
    55  H    0.028164
    56  H    0.123423
    57  H    0.118201
    58  N   -0.049234
    59  C    0.068627
    60  C    0.236743
    61  N   -0.269174
    62  H    0.033824
    63  C    0.162982
    64  N   -0.301813
    65  H    0.038519
    66  C    0.137118
    67  N   -0.259368
    68  C    0.040729
    69  C    0.178884
    70  N   -0.312677
 Sum of Mulliken charges =  -0.00000

 Dipole moment (field-independent basis, Debye):
    X=             -4.8550    Y=              3.7716    Z=             -7.0907  Tot=              9.3848
 Quadrupole moment (field-independent basis, Debye-Ang):
   XX=           -145.5102   YY=           -236.5305   ZZ=           -247.1703
   XY=            -11.1524   XZ=              1.1870   YZ=            -15.6593

 Normal termination of Gaussian 16 at Thu Jan 18 09:31:22 2018.
