 Gaussian 16, Revision A.03,
 Gaussian 16:  EM64L-G16RevA.03 25-Dec-2016

 ---------------------------------------
 #p wb97xd/cc-pvdz sp scf=(maxcycles=20)
 ---------------------------------------

 ------------------
 Base pair stacking
 ------------------
 Symbolic Z-matrix:
 Charge =  0 Multiplicity = 1

                         Standard orientation:
 ---------------------------------------------------------------------
 Center     Atomic      Atomic             Coordinates (Angstroms)
 Number     Number       Type             X           Y           Z
 ---------------------------------------------------------------------
      1          7           0       -6.028225   -1.544903    0.276267
      2          6           0       -7.304562   -1.343245    0.989213
      3          6           0       -3.889565   -1.720829   -0.205927
      4          7           0       -4.575165   -1.967946   -1.386439
      5          6           0       -5.836185   -1.852064   -1.048686
      6          1           0       -6.675595   -1.981486   -1.732489
      7          7           0       -2.169563   -1.413968    1.378486
      8          6           0       -3.137437   -1.181057    2.270990
      9          1           0       -2.795233   -0.961943    3.281508
     10          7           0       -4.458351   -1.178198    2.103422
     11          6           0       -4.771843   -1.458497    0.827660
     12          6           0       -2.517516   -1.693077    0.103301
     13          7           0       -1.552795   -1.925857   -0.789062
     14          1           0       -1.764255   -2.136414   -1.744140
     15          1           0       -0.586335   -1.897717   -0.533497
     16          1           0       -7.854955   -2.176317    0.932321
     17          1           0       -7.121354   -1.130819    1.948614
     18          1           0       -7.805904   -0.585423    0.571645
     19          7           0       -4.158810    2.094508   -0.458193
     20          6           0       -2.818083    2.188113   -0.172326
     21          6           0       -5.244448    2.715868    0.326669
     22          7           0       -0.247322    3.372196    1.840354
     23          1           0        0.750298    3.317156    1.871309
     24          1           0       -0.695139    3.901210    2.561687
     25          7           0       -2.271586    2.858056    0.865246
     26          6           0       -0.953739    2.764235    0.875338
     27          7           0       -0.224934    2.068086   -0.058325
     28          1           0        0.779654    2.050533    0.028039
     29          6           0       -0.766200    1.371442   -1.134237
     30          8           0       -0.019487    0.775241   -1.920188
     31          6           0       -2.181087    1.463034   -1.158382
     32          7           0       -3.103355    0.925055   -2.045445
     33          6           0       -4.260137    1.324934   -1.591394
     34          1           0       -5.222019    1.086300   -2.046475
     35          1           0       -5.859169    2.005962    0.668655
     36          1           0       -4.851681    3.214931    1.097983
     37          1           0       -5.756493    3.349105   -0.252675
     38          1           0        5.675654    1.815073    1.379496
     39          1           0        5.854382    3.088719    0.175122
     40          1           0        4.357739    2.953352    1.098767
     41          1           0        5.560653   -0.779571   -2.670335
     42          6           0        4.905432   -0.134238   -2.085122
     43          8           0        2.920363   -0.868582   -3.156277
     44          6           0        3.495222   -0.164539   -2.326430
     45          1           0        1.757447    0.696855   -1.673387
     46          7           0        2.757800    0.690110   -1.532061
     47          8           0        2.501094    2.259333    0.089316
     48          6           0        3.234468    1.538424   -0.564227
     49          1           0        6.464825    0.743250   -0.925754
     50          6           0        5.400233    0.682630   -1.147843
     51          6           0        5.159719    2.400264    0.632881
     52          7           0        4.604236    1.510446   -0.390545
     53          1           0        5.283214   -1.226158    4.043646
     54          1           0        4.022289   -0.205388    3.869897
     55          1           0        5.510582    0.244178    3.372935
     56          1           0        1.715509   -2.661520   -2.302744
     57          1           0        3.402920   -2.843257   -2.130447
     58          7           0        2.534188   -2.532784   -1.742986
     59          6           0        2.471345   -1.972120   -0.533495
     60          6           0        3.368242   -1.174514    1.521051
     61          7           0        2.187805   -0.767015    2.015976
     62          1           0        0.212745   -0.710490    1.471431
     63          6           0        1.208236   -1.011411    1.147855
     64          7           0        1.269158   -1.572860   -0.064013
     65          1           0        6.558324   -1.695537    1.457264
     66          6           0        5.493061   -1.633414    1.233005
     67          7           0        4.939636   -2.054180    0.121985
     68          6           0        3.592511   -1.769175    0.291567
     69          6           0        4.876136   -0.524063    3.459401
     70          7           0        4.600613   -1.089705    2.124427
 ---------------------------------------------------------------------

 SCF Done:  E(RwB97XD) =  -2048.72016650     A.U. after   15 cycles

 The electronic state is 1-A.
 Alpha  occ. eigenvalues --  -19.25713 -19.22062 -19.20840 -14.52405 -14.51448
 Alpha  occ. eigenvalues --  -14.49281 -14.48872 -14.47733 -14.47067 -14.46776
 Alpha  occ. eigenvalues --  -14.45609 -14.44292 -14.42933 -14.42654 -14.42272
 Alpha  occ. eigenvalues --  -14.42100 -14.41778 -14.41230 -14.40864 -14.40488
 Alpha  occ. eigenvalues --  -10.45363 -10.41332 -10.39824 -10.38409 -10.38006
 Alpha  occ. eigenvalues --  -10.37202 -10.36849 -10.36042 -10.35681 -10.35514
 Alpha  occ. eigenvalues --  -10.34606 -10.34491 -10.34433 -10.33794 -10.33389
 Alpha  occ. eigenvalues --  -10.33353 -10.33332 -10.31601 -10.31281 -10.30996
 Alpha  occ. eigenvalues --  -10.30586 -10.28890 -10.28204  -1.19331  -1.14155
 Alpha  occ. eigenvalues --   -1.13587  -1.13338  -1.11818  -1.10691  -1.09283
 Alpha  occ. eigenvalues --   -1.08702  -1.07597  -1.05308  -1.03268  -1.02510
 Alpha  occ. eigenvalues --   -1.00674  -0.99861  -0.99774  -0.98632  -0.97361
 Alpha  occ. eigenvalues --   -0.96658  -0.95291  -0.92921  -0.90695  -0.86515
 Alpha  occ. eigenvalues --   -0.84993  -0.84398  -0.84181  -0.83736  -0.82776
 Alpha  occ. eigenvalues --   -0.82592  -0.78692  -0.75750  -0.74711  -0.73744
 Alpha  occ. eigenvalues --   -0.73489  -0.73297  -0.73235  -0.71384  -0.69056
 Alpha  occ. eigenvalues --   -0.67470  -0.66628  -0.66415  -0.65424  -0.64446
 Alpha  occ. eigenvalues --   -0.63812  -0.63096  -0.62806  -0.62693  -0.61827
 Alpha  occ. eigenvalues --   -0.60594  -0.60509  -0.59320  -0.59205  -0.58472
 Alpha  occ. eigenvalues --   -0.58270  -0.58222  -0.57314  -0.56832  -0.56441
 Alpha  occ. eigenvalues --   -0.55933  -0.55576  -0.55344  -0.54442  -0.54239
 Alpha  occ. eigenvalues --   -0.53780  -0.53607  -0.53019  -0.52632  -0.52473
 Alpha  occ. eigenvalues --   -0.52171  -0.51922  -0.51654  -0.51265  -0.50579
 Alpha  occ. eigenvalues --   -0.50473  -0.50061  -0.49464  -0.49385  -0.49027
 Alpha  occ. eigenvalues --   -0.48675  -0.48458  -0.47719  -0.47563  -0.47476
 Alpha  occ. eigenvalues --   -0.47287  -0.45898  -0.45278  -0.43350  -0.42055
 Alpha  occ. eigenvalues --   -0.41449  -0.39581  -0.39371  -0.37885  -0.37520
 Alpha  occ. eigenvalues --   -0.37323  -0.37205  -0.36362  -0.35642  -0.34369
 Alpha  occ. eigenvalues --   -0.33918  -0.33714  -0.33665  -0.33488  -0.32991
 Alpha  occ. eigenvalues --   -0.32784  -0.32454  -0.32003  -0.31284  -0.30796
 Alpha  occ. eigenvalues --   -0.30615  -0.27152  -0.26106  -0.25493
 Alpha virt. eigenvalues --    0.03014   0.04874   0.07546   0.07864   0.08875
 Alpha virt. eigenvalues --    0.09540   0.09705   0.10693   0.10946   0.12186
 Alpha virt. eigenvalues --    0.13200   0.13772   0.14096   0.14512   0.14760

 Mulliken charges:
               1
     1  N   -0.309912
     2  C    0.179811
     3  C    0.039948
     4  N   -0.239064
     5  C    0.115080
     6  H    0.025429
     7  N   -0.290403
     8  C    0.137571
     9  H    0.013784
    10  N   -0.291379
    11  C    0.239396
    12  C    0.090338
    13  N   -0.038705
    14  H    0.113599
    15  H    0.094090
    16  H    0.028372
    17  H    0.035500
    18  H    0.020879
    19  N   -0.306280
    20  C    0.257891
    21  C    0.182877
    22  N   -0.123788
    23  H    0.116909
    24  H    0.119111
    25  N   -0.310410
    26  C    0.246995
    27  N   -0.148852
    28  H    0.120645
    29  C    0.190064
    30  O   -0.329317
    31  C   -0.025204
    32  N   -0.220454
    33  C    0.133682
    34  H    0.022114
    35  H    0.023906
    36  H    0.030852
    37  H    0.023155
    38  H    0.047252
    39  H    0.061860
    40  H    0.076730
    41  H    0.020329
    42  C   -0.051350
    43  O   -0.283958
    44  C    0.135947
    45  H    0.136193
    46  N   -0.116138
    47  O   -0.348803
    48  C    0.348518
    49  H    0.039886
    50  C    0.167561
    51  C    0.043399
    52  N   -0.282668
    53  H    0.032992
    54  H    0.041656
    55  H    0.016946
    56  H    0.122804
    57  H    0.114198
    58  N    0.002061
    59  C    0.072681
    60  C    0.241750
    61  N   -0.275686
    62  H    0.028416
    63  C    0.158445
    64  N   -0.302471
    65  H    0.028462
    66  C    0.113019
    67  N   -0.247118
    68  C    0.012623
    69  C    0.180821
    70  N   -0.304589
 Sum of Mulliken charges =  -0.00000

 Dipole moment (field-independent basis, Debye):
    X=              4.8214    Y=              4.2564    Z=              5.7553  Tot=              8.6306
 Quadrupole moment (field-independent basis, Debye-Ang):
   XX=           -144.8988   YY=           -232.0362   ZZ=           -249.8641
   XY=              4.2476   XZ=             15.7964   YZ=             13.6289

 Normal termination of Gaussian 16 at Thu Jan 18 06:46:36 2018.
