 Gaussian 16, Revision A.03,
 Gaussian 16:  EM64L-G16RevA.03 25-Dec-2016

 ---------------------------------------
 #p wb97xd/cc-pvdz sp scf=(maxcycles=20)
 ---------------------------------------

 ------------------
 Base pair stacking
 ------------------
 Symbolic Z-matrix:
 Charge =  0 Multiplicity = 1

                         Standard orientation:
 ---------------------------------------------------------------------
 Center     Atomic      Atomic             Coordinates (Angstroms)
 Number     Number       Type             X           Y           Z
 ---------------------------------------------------------------------
      1          7           0        4.249744    0.219859    2.036904
      2          6           0        5.516933   -0.531275    2.126448
      3          6           0        2.123143    0.748813    1.849592
      4          7           0        2.810998    1.946607    1.979511
      5          6           0        4.064668    1.579990    2.087164
      6          1           0        4.903351    2.266537    2.206374
      7          7           0        0.403792   -0.845652    1.595731
      8          6           0        1.363116   -1.775617    1.645215
      9          1           0        1.017856   -2.804942    1.558314
     10          7           0        2.678725   -1.625689    1.785261
     11          6           0        2.996616   -0.324233    1.883182
     12          6           0        0.755986    0.454643    1.697051
     13          7           0       -0.200193    1.384415    1.647872
     14          1           0        0.014670    2.359105    1.718867
     15          1           0       -1.163374    1.138540    1.538447
     16          1           0        5.959700   -0.337525    3.002000
     17          1           0        5.330176   -1.510847    2.058028
     18          1           0        6.123238   -0.256361    1.380249
     19          7           0        5.928873   -0.314744   -0.825810
     20          6           0        4.596364   -0.622675   -0.958600
     21          6           0        7.013112   -1.292614   -0.604675
     22          7           0        2.048952   -2.981525   -1.049530
     23          1           0        1.056500   -2.991174   -1.168654
     24          1           0        2.498246   -3.864948   -0.913872
     25          7           0        4.057984   -1.860344   -0.909777
     26          6           0        2.746817   -1.835905   -1.070582
     27          7           0        2.016849   -0.688282   -1.264500
     28          1           0        1.017757   -0.764652   -1.378287
     29          6           0        2.549817    0.595822   -1.318244
     30          8           0        1.802790    1.565584   -1.497857
     31          6           0        3.957465    0.585664   -1.147093
     32          7           0        4.870504    1.631150   -1.132913
     33          6           0        6.023820    1.050759   -0.940021
     34          1           0        6.978521    1.573527   -0.872692
     35          1           0        7.475490   -1.090714    0.258021
     36          1           0        6.626314   -2.213055   -0.566729
     37          1           0        7.670609   -1.239236   -1.355447
     38          1           0       -3.966705   -1.758105   -1.233442
     39          1           0       -3.828852   -1.645887   -2.986457
     40          1           0       -2.469500   -2.239748   -2.032057
     41          1           0       -3.846665    3.017545   -1.803820
     42          6           0       -3.162180    2.169189   -1.804300
     43          8           0       -1.215695    3.503878   -1.565792
     44          6           0       -1.756137    2.403887   -1.678702
     45          1           0        0.019025    1.388236   -1.604130
     46          7           0       -0.979709    1.262723   -1.690705
     47          8           0       -0.649279   -0.980978   -1.808344
     48          6           0       -1.415336   -0.033437   -1.807932
     49          1           0       -4.677051    0.684224   -2.018476
     50          6           0       -3.617386    0.916214   -1.920304
     51          6           0       -3.296096   -1.545154   -2.052593
     52          7           0       -2.783782   -0.178069   -1.924800
     53          1           0       -7.050439   -3.420577    0.898231
     54          1           0       -5.666011   -3.439613    0.035035
     55          1           0       -7.068568   -3.011265   -0.681506
     56          1           0       -3.483028    3.038434    1.685789
     57          1           0       -5.184687    2.918778    1.673767
     58          7           0       -4.297132    2.473955    1.548883
     59          6           0       -4.204419    1.185214    1.214630
     60          6           0       -5.061508   -0.966111    0.667888
     61          7           0       -3.856263   -1.536977    0.506883
     62          1           0       -1.872814   -1.032249    0.615338
     63          6           0       -2.886966   -0.650601    0.725295
     64          7           0       -2.977794    0.640595    1.060169
     65          1           0       -8.287914   -0.778049    0.752374
     66          6           0       -7.216442   -0.579684    0.791763
     67          7           0       -6.683792    0.581101    1.085980
     68          6           0       -5.317894    0.349963    1.011036
     69          6           0       -6.539067   -2.970839    0.165952
     70          7           0       -6.292750   -1.561403    0.527648
 ---------------------------------------------------------------------

 SCF Done:  E(RwB97XD) =  -2048.72694319     A.U. after   15 cycles

 The electronic state is 1-A.
 Alpha  occ. eigenvalues --  -19.24953 -19.21196 -19.20727 -14.52884 -14.51324
 Alpha  occ. eigenvalues --  -14.49705 -14.48973 -14.48495 -14.46989 -14.46865
 Alpha  occ. eigenvalues --  -14.46591 -14.45603 -14.44855 -14.44827 -14.43300
 Alpha  occ. eigenvalues --  -14.42113 -14.41868 -14.41604 -14.41478 -14.41261
 Alpha  occ. eigenvalues --  -10.44500 -10.41334 -10.40375 -10.39271 -10.38468
 Alpha  occ. eigenvalues --  -10.38183 -10.37709 -10.36665 -10.36470 -10.36308
 Alpha  occ. eigenvalues --  -10.34955 -10.34329 -10.34275 -10.34225 -10.33899
 Alpha  occ. eigenvalues --  -10.33854 -10.33097 -10.32210 -10.32069 -10.30921
 Alpha  occ. eigenvalues --  -10.30111 -10.29139 -10.28677  -1.18505  -1.15627
 Alpha  occ. eigenvalues --   -1.13564  -1.12190  -1.11645  -1.11309  -1.09918
 Alpha  occ. eigenvalues --   -1.08714  -1.08193  -1.05885  -1.05493  -1.01541
 Alpha  occ. eigenvalues --   -1.01298  -1.01253  -0.99813  -0.98961  -0.97640
 Alpha  occ. eigenvalues --   -0.97398  -0.97192  -0.93583  -0.89948  -0.88105
 Alpha  occ. eigenvalues --   -0.86299  -0.84979  -0.84323  -0.83423  -0.82679
 Alpha  occ. eigenvalues --   -0.82040  -0.77899  -0.77431  -0.75494  -0.75149
 Alpha  occ. eigenvalues --   -0.73806  -0.73509  -0.72362  -0.71749  -0.70851
 Alpha  occ. eigenvalues --   -0.67640  -0.67288  -0.66947  -0.65613  -0.64851
 Alpha  occ. eigenvalues --   -0.64637  -0.63416  -0.63110  -0.62788  -0.61984
 Alpha  occ. eigenvalues --   -0.61142  -0.61062  -0.60715  -0.60072  -0.59688
 Alpha  occ. eigenvalues --   -0.59052  -0.58687  -0.58338  -0.57217  -0.56276
 Alpha  occ. eigenvalues --   -0.55881  -0.55577  -0.55397  -0.54700  -0.54437
 Alpha  occ. eigenvalues --   -0.54147  -0.53999  -0.53358  -0.53303  -0.52866
 Alpha  occ. eigenvalues --   -0.52397  -0.52087  -0.51081  -0.50825  -0.50637
 Alpha  occ. eigenvalues --   -0.50529  -0.50302  -0.49595  -0.49494  -0.49364
 Alpha  occ. eigenvalues --   -0.48773  -0.48675  -0.47990  -0.47482  -0.47336
 Alpha  occ. eigenvalues --   -0.47022  -0.45991  -0.45551  -0.44345  -0.43193
 Alpha  occ. eigenvalues --   -0.41293  -0.40654  -0.38823  -0.38231  -0.38032
 Alpha  occ. eigenvalues --   -0.37928  -0.37530  -0.37320  -0.35391  -0.35126
 Alpha  occ. eigenvalues --   -0.34609  -0.34142  -0.34045  -0.33907  -0.33218
 Alpha  occ. eigenvalues --   -0.33045  -0.32435  -0.32025  -0.31554  -0.31186
 Alpha  occ. eigenvalues --   -0.30838  -0.30103  -0.26876  -0.25484
 Alpha virt. eigenvalues --    0.03032   0.04691   0.06433   0.07280   0.08490
 Alpha virt. eigenvalues --    0.09135   0.09352   0.10036   0.10151   0.12694
 Alpha virt. eigenvalues --    0.13233   0.13502   0.13942   0.14295   0.14747

 Mulliken charges:
               1
     1  N   -0.294164
     2  C    0.201553
     3  C    0.051037
     4  N   -0.244699
     5  C    0.147357
     6  H    0.027815
     7  N   -0.279070
     8  C    0.114880
     9  H   -0.000688
    10  N   -0.268233
    11  C    0.218592
    12  C    0.076760
    13  N   -0.057289
    14  H    0.115490
    15  H    0.086500
    16  H    0.024988
    17  H    0.033692
    18  H   -0.004306
    19  N   -0.298911
    20  C    0.208939
    21  C    0.175542
    22  N   -0.102522
    23  H    0.119233
    24  H    0.118520
    25  N   -0.281237
    26  C    0.215918
    27  N   -0.117858
    28  H    0.119486
    29  C    0.173713
    30  O   -0.316609
    31  C    0.008923
    32  N   -0.211801
    33  C    0.097461
    34  H    0.023834
    35  H    0.015771
    36  H    0.037088
    37  H    0.030111
    38  H    0.072317
    39  H    0.038479
    40  H    0.067597
    41  H    0.020309
    42  C   -0.093825
    43  O   -0.272917
    44  C    0.175442
    45  H    0.131208
    46  N   -0.123283
    47  O   -0.342705
    48  C    0.327816
    49  H    0.044457
    50  C    0.149314
    51  C    0.041249
    52  N   -0.268256
    53  H    0.036982
    54  H    0.044755
    55  H    0.030591
    56  H    0.123384
    57  H    0.120867
    58  N   -0.062726
    59  C    0.106381
    60  C    0.239143
    61  N   -0.291982
    62  H    0.041433
    63  C    0.157782
    64  N   -0.304695
    65  H    0.040430
    66  C    0.141173
    67  N   -0.256800
    68  C    0.038464
    69  C    0.177804
    70  N   -0.316008
 Sum of Mulliken charges =  -0.00000

 Dipole moment (field-independent basis, Debye):
    X=             -5.2862    Y=             -7.9733    Z=              0.9208  Tot=              9.6107
 Quadrupole moment (field-independent basis, Debye-Ang):
   XX=           -145.5839   YY=           -241.1384   ZZ=           -248.8800
   XY=             -0.4211   XZ=             13.3048   YZ=             19.7140

 Normal termination of Gaussian 16 at Thu Jan 18 00:43:10 2018.
