 Gaussian 16, Revision A.03,
 Gaussian 16:  EM64L-G16RevA.03 25-Dec-2016

 ---------------------------------------
 #p wb97xd/cc-pvdz sp scf=(maxcycles=20)
 ---------------------------------------

 ------------------
 Base pair stacking
 ------------------
 Symbolic Z-matrix:
 Charge =  0 Multiplicity = 1

                         Standard orientation:
 ---------------------------------------------------------------------
 Center     Atomic      Atomic             Coordinates (Angstroms)
 Number     Number       Type             X           Y           Z
 ---------------------------------------------------------------------
      1          7           0        5.107503   -2.050641   -0.401489
      2          6           0        6.370594   -1.990787   -1.162424
      3          6           0        2.980325   -2.012666    0.156203
      4          7           0        3.682313   -2.283918    1.321698
      5          6           0        4.935756   -2.295933    0.939060
      6          1           0        5.783781   -2.480241    1.599232
      7          7           0        1.239925   -1.599429   -1.381057
      8          6           0        2.192464   -1.485775   -2.312364
      9          1           0        1.835749   -1.268638   -3.318283
     10          7           0        3.513273   -1.599528   -2.188225
     11          6           0        3.845319   -1.866367   -0.914271
     12          6           0        1.606344   -1.868280   -0.108840
     13          7           0        0.656954   -1.982115    0.822224
     14          1           0        0.882350   -2.180442    1.776727
     15          1           0       -0.311430   -1.873079    0.597519
     16          1           0        6.844398   -2.868867   -1.094121
     17          1           0        6.173322   -1.793350   -2.122233
     18          1           0        6.953566   -1.269461   -0.788487
     19          7           0        5.105195    1.590965    0.200762
     20          6           0        3.769523    1.787706   -0.054835
     21          6           0        6.213294    2.000663   -0.685217
     22          7           0        1.246760    2.984877   -2.119817
     23          1           0        0.248147    3.029505   -2.114535
     24          1           0        1.714242    3.376459   -2.912815
     25          7           0        3.249164    2.383554   -1.149474
     26          6           0        1.929215    2.425268   -1.109375
     27          7           0        1.174697    1.922500   -0.077180
     28          1           0        0.170556    1.998349   -0.131224
     29          6           0        1.688796    1.305328    1.058886
     30          8           0        0.920207    0.885752    1.932932
     31          6           0        3.105605    1.253089    1.030164
     32          7           0        4.006338    0.731218    1.948432
     33          6           0        5.177074    0.953761    1.415446
     34          1           0        6.128789    0.672661    1.867642
     35          1           0        6.740290    1.195999   -0.956515
     36          1           0        5.839980    2.443238   -1.499481
     37          1           0        6.808886    2.641614   -0.202235
     38          1           0       -4.776644    2.110424   -1.299708
     39          1           0       -4.778774    3.528512   -0.253917
     40          1           0       -3.342404    3.132167   -1.197920
     41          1           0       -4.750100    0.012349    3.029722
     42          6           0       -4.059289    0.513483    2.351584
     43          8           0       -2.113580   -0.290006    3.445070
     44          6           0       -2.650154    0.366888    2.553238
     45          1           0       -0.864509    0.962078    1.749785
     46          7           0       -1.865643    1.041701    1.639769
     47          8           0       -1.522961    2.374457   -0.166758
     48          6           0       -2.296099    1.814747    0.590649
     49          1           0       -5.571313    1.404188    1.140693
     50          6           0       -4.509590    1.260935    1.337117
     51          6           0       -4.174991    2.723191   -0.645038
     52          7           0       -3.667965    1.907588    0.461967
     53          1           0       -6.255207   -0.810005   -3.806371
     54          1           0       -4.901030    0.095010   -3.710095
     55          1           0       -6.323390    0.695866   -3.180988
     56          1           0       -2.608587   -2.363662    2.466881
     57          1           0       -4.310622   -2.394223    2.356312
     58          7           0       -3.431605   -2.177953    1.929961
     59          6           0       -3.361194   -1.664721    0.700000
     60          6           0       -4.254506   -0.854258   -1.351061
     61          7           0       -3.060289   -0.573665   -1.898370
     62          1           0       -1.070095   -0.682301   -1.420950
     63          6           0       -2.076679   -0.879412   -1.054609
     64          7           0       -2.145164   -1.393526    0.177692
     65          1           0       -7.474485   -1.076086   -1.164755
     66          6           0       -6.400651   -1.105430   -0.977748
     67          7           0       -5.848530   -1.539515    0.128784
     68          6           0       -4.487957   -1.385758   -0.094669
     69          6           0       -5.765152   -0.130057   -3.260914
     70          7           0       -5.494795   -0.675455   -1.916495
 ---------------------------------------------------------------------

 SCF Done:  E(RwB97XD) =  -2048.73776392     A.U. after   15 cycles

 The electronic state is 1-A.
 Alpha  occ. eigenvalues --  -19.25573 -19.21895 -19.20810 -14.52204 -14.52136
 Alpha  occ. eigenvalues --  -14.49156 -14.48900 -14.47540 -14.47029 -14.47028
 Alpha  occ. eigenvalues --  -14.46796 -14.45031 -14.44006 -14.43874 -14.42326
 Alpha  occ. eigenvalues --  -14.42157 -14.41165 -14.41143 -14.41143 -14.40560
 Alpha  occ. eigenvalues --  -10.45133 -10.41378 -10.40016 -10.39267 -10.38437
 Alpha  occ. eigenvalues --  -10.37644 -10.37204 -10.36771 -10.35615 -10.35449
 Alpha  occ. eigenvalues --  -10.35053 -10.34601 -10.33995 -10.33809 -10.33653
 Alpha  occ. eigenvalues --  -10.33518 -10.33330 -10.32182 -10.31471 -10.31453
 Alpha  occ. eigenvalues --  -10.30551 -10.28627 -10.28357  -1.19146  -1.14883
 Alpha  occ. eigenvalues --   -1.13398  -1.13084  -1.11431  -1.10884  -1.09054
 Alpha  occ. eigenvalues --   -1.08794  -1.08722  -1.05258  -1.04279  -1.02294
 Alpha  occ. eigenvalues --   -1.00592  -1.00563  -0.99888  -0.98732  -0.97088
 Alpha  occ. eigenvalues --   -0.96849  -0.96394  -0.92909  -0.90686  -0.87268
 Alpha  occ. eigenvalues --   -0.85632  -0.84475  -0.84091  -0.83425  -0.82929
 Alpha  occ. eigenvalues --   -0.82528  -0.78575  -0.76581  -0.74894  -0.74481
 Alpha  occ. eigenvalues --   -0.73793  -0.73069  -0.73055  -0.71217  -0.69899
 Alpha  occ. eigenvalues --   -0.67590  -0.66484  -0.66417  -0.66144  -0.64565
 Alpha  occ. eigenvalues --   -0.63838  -0.63669  -0.62857  -0.62781  -0.61960
 Alpha  occ. eigenvalues --   -0.60694  -0.60475  -0.60005  -0.59203  -0.59128
 Alpha  occ. eigenvalues --   -0.58735  -0.58526  -0.57756  -0.56732  -0.56111
 Alpha  occ. eigenvalues --   -0.55894  -0.55586  -0.54972  -0.54793  -0.54297
 Alpha  occ. eigenvalues --   -0.53932  -0.53789  -0.53327  -0.53189  -0.52808
 Alpha  occ. eigenvalues --   -0.52430  -0.52159  -0.51988  -0.50982  -0.50481
 Alpha  occ. eigenvalues --   -0.50434  -0.49827  -0.49656  -0.49254  -0.49047
 Alpha  occ. eigenvalues --   -0.48990  -0.48581  -0.48083  -0.47486  -0.47355
 Alpha  occ. eigenvalues --   -0.47139  -0.46216  -0.44836  -0.44345  -0.43203
 Alpha  occ. eigenvalues --   -0.41209  -0.40353  -0.39242  -0.37873  -0.37449
 Alpha  occ. eigenvalues --   -0.37437  -0.37105  -0.37065  -0.35839  -0.34627
 Alpha  occ. eigenvalues --   -0.34134  -0.33876  -0.33524  -0.33494  -0.33286
 Alpha  occ. eigenvalues --   -0.32876  -0.32328  -0.31863  -0.31583  -0.31010
 Alpha  occ. eigenvalues --   -0.30558  -0.29338  -0.26756  -0.24798
 Alpha virt. eigenvalues --    0.03052   0.04685   0.06886   0.07304   0.08803
 Alpha virt. eigenvalues --    0.09234   0.09756   0.10808   0.11067   0.11677
 Alpha virt. eigenvalues --    0.12756   0.13610   0.14210   0.14292   0.15175

 Mulliken charges:
               1
     1  N   -0.305443
     2  C    0.181283
     3  C    0.043557
     4  N   -0.232775
     5  C    0.130015
     6  H    0.022959
     7  N   -0.293800
     8  C    0.132973
     9  H    0.010621
    10  N   -0.286912
    11  C    0.240901
    12  C    0.080888
    13  N   -0.041769
    14  H    0.116760
    15  H    0.086299
    16  H    0.027278
    17  H    0.034514
    18  H    0.015739
    19  N   -0.305641
    20  C    0.259209
    21  C    0.183601
    22  N   -0.124828
    23  H    0.117851
    24  H    0.119465
    25  N   -0.310553
    26  C    0.249749
    27  N   -0.145772
    28  H    0.121106
    29  C    0.188265
    30  O   -0.324783
    31  C   -0.017578
    32  N   -0.209764
    33  C    0.113994
    34  H    0.019208
    35  H    0.013761
    36  H    0.033465
    37  H    0.026467
    38  H    0.046444
    39  H    0.058184
    40  H    0.076902
    41  H    0.018162
    42  C   -0.104006
    43  O   -0.284795
    44  C    0.168869
    45  H    0.127072
    46  N   -0.102553
    47  O   -0.350973
    48  C    0.336499
    49  H    0.045110
    50  C    0.178791
    51  C    0.046904
    52  N   -0.277343
    53  H    0.036006
    54  H    0.041498
    55  H    0.026665
    56  H    0.128263
    57  H    0.114530
    58  N   -0.026343
    59  C    0.054880
    60  C    0.228601
    61  N   -0.267357
    62  H    0.029270
    63  C    0.158988
    64  N   -0.294991
    65  H    0.036015
    66  C    0.126288
    67  N   -0.253807
    68  C    0.040527
    69  C    0.176790
    70  N   -0.309398
 Sum of Mulliken charges =  -0.00000

 Dipole moment (field-independent basis, Debye):
    X=             -4.7966    Y=              3.9419    Z=             -6.6499  Tot=              9.0977
 Quadrupole moment (field-independent basis, Debye-Ang):
   XX=           -146.2766   YY=           -233.3909   ZZ=           -251.1235
   XY=             -8.9516   XZ=              6.4985   YZ=            -15.3308

 Normal termination of Gaussian 16 at Thu Jan 18 03:13:06 2018.
