 Gaussian 16, Revision A.03,
 Gaussian 16:  EM64L-G16RevA.03 25-Dec-2016

 ---------------------------------------
 #p wb97xd/cc-pvdz sp scf=(maxcycles=20)
 ---------------------------------------

 ------------------
 Base pair stacking
 ------------------
 Symbolic Z-matrix:
 Charge =  0 Multiplicity = 1

                         Standard orientation:
 ---------------------------------------------------------------------
 Center     Atomic      Atomic             Coordinates (Angstroms)
 Number     Number       Type             X           Y           Z
 ---------------------------------------------------------------------
      1          7           0       -6.508496    0.696074   -0.507771
      2          6           0       -7.754918   -0.089780   -0.590797
      3          6           0       -4.400579    1.317893   -0.593314
      4          7           0       -5.112680    2.420872   -0.144918
      5          6           0       -6.354124    2.002104   -0.111330
      6          1           0       -7.205246    2.609672    0.197540
      7          7           0       -2.651587   -0.105817   -1.283985
      8          6           0       -3.587190   -1.044962   -1.457891
      9          1           0       -3.220280   -2.006445   -1.814534
     10          7           0       -4.901793   -0.975064   -1.258307
     11          6           0       -5.247444    0.247185   -0.821212
     12          6           0       -3.031399    1.113434   -0.843242
     13          7           0       -2.098924    2.052218   -0.669042
     14          1           0       -2.334643    2.968882   -0.344399
     15          1           0       -1.133464    1.871378   -0.856986
     16          1           0       -8.386743    0.351170   -1.228398
     17          1           0       -7.547093   -1.012651   -0.913659
     18          1           0       -8.179083   -0.142388    0.313263
     19          7           0       -3.643385   -1.220456    1.348696
     20          6           0       -2.315123   -1.418268    1.057768
     21          6           0       -4.757421   -2.061018    0.865910
     22          7           0        0.176243   -3.239609   -0.535186
     23          1           0        1.171480   -3.207822   -0.623191
     24          1           0       -0.298347   -3.977804   -1.015341
     25          7           0       -1.808600   -2.405805    0.288190
     26          6           0       -0.492756   -2.333486    0.193713
     27          7           0        0.270528   -1.368685    0.805320
     28          1           0        1.270612   -1.391036    0.677687
     29          6           0       -0.229311   -0.343075    1.601652
     30          8           0        0.546252    0.477400    2.107664
     31          6           0       -1.641552   -0.407600    1.712500
     32          7           0       -2.529094    0.408290    2.400604
     33          6           0       -3.701657   -0.110986    2.156356
     34          1           0       -4.645131    0.277079    2.541766
     35          1           0       -5.389077   -1.503555    0.328276
     36          1           0       -4.394354   -2.795979    0.294709
     37          1           0       -5.242170   -2.455100    1.645995
     38          1           0        6.105673   -1.674805   -0.869699
     39          1           0        6.339882   -2.465622    0.687352
     40          1           0        4.805876   -2.637627   -0.166229
     41          1           0        6.145056    2.141487    2.059623
     42          6           0        5.469399    1.342084    1.755237
     43          8           0        3.526615    2.415235    2.592518
     44          6           0        4.070182    1.465872    2.028582
     45          1           0        2.311136    0.450492    1.777472
     46          7           0        3.304781    0.399360    1.602034
     47          8           0        2.989059   -1.624564    0.621584
     48          6           0        3.745258   -0.731608    0.961371
     49          1           0        6.983925    0.108373    0.900831
     50          6           0        5.929092    0.250886    1.131880
     51          6           0        5.623702   -1.966872    0.051437
     52          7           0        5.106572   -0.777244    0.733423
     53          1           0        4.793572   -2.082929   -3.112367
     54          1           0        3.641259   -2.520441   -2.043323
     55          1           0        5.165135   -2.238850   -1.530892
     56          1           0        1.071988    3.907358   -0.803271
     57          1           0        2.733214    3.944266   -1.189376
     58          7           0        1.901894    3.405692   -1.047719
     59          6           0        1.901105    2.077588   -1.179207
     60          6           0        2.882705   -0.044670   -1.619903
     61          7           0        1.751518   -0.742046   -1.423638
     62          1           0       -0.210112   -0.411122   -0.930585
     63          6           0        0.748568    0.074629   -1.107358
     64          7           0        0.747338    1.405078   -0.975172
     65          1           0        6.003695    0.450121   -2.303116
     66          6           0        4.949160    0.552840   -2.045513
     67          7           0        4.351350    1.691356   -1.792384
     68          6           0        3.040572    1.326759   -1.520984
     69          6           0        4.456842   -1.958713   -2.178998
     70          7           0        4.119932   -0.538798   -1.959175
 ---------------------------------------------------------------------

 SCF Done:  E(RwB97XD) =  -2048.61588406     A.U. after   15 cycles

 The electronic state is 1-A.
 Alpha  occ. eigenvalues --  -19.25822 -19.21954 -19.20556 -14.52756 -14.51677
 Alpha  occ. eigenvalues --  -14.50438 -14.48097 -14.47858 -14.47174 -14.46262
 Alpha  occ. eigenvalues --  -14.46145 -14.44613 -14.43333 -14.43274 -14.43270
 Alpha  occ. eigenvalues --  -14.42879 -14.41905 -14.41632 -14.41025 -14.40480
 Alpha  occ. eigenvalues --  -10.45489 -10.40753 -10.40027 -10.38999 -10.37948
 Alpha  occ. eigenvalues --  -10.37789 -10.37216 -10.36517 -10.36301 -10.36091
 Alpha  occ. eigenvalues --  -10.35505 -10.34799 -10.34588 -10.33912 -10.33806
 Alpha  occ. eigenvalues --  -10.33014 -10.32487 -10.31708 -10.31649 -10.31042
 Alpha  occ. eigenvalues --  -10.29970 -10.28390 -10.27720  -1.19763  -1.14438
 Alpha  occ. eigenvalues --   -1.13179  -1.12968  -1.12915  -1.10348  -1.09722
 Alpha  occ. eigenvalues --   -1.08422  -1.08230  -1.06291  -1.03955  -1.02706
 Alpha  occ. eigenvalues --   -1.02044  -1.00261  -0.99372  -0.98456  -0.98298
 Alpha  occ. eigenvalues --   -0.96078  -0.96000  -0.94014  -0.91643  -0.88230
 Alpha  occ. eigenvalues --   -0.86307  -0.85457  -0.83809  -0.83541  -0.83337
 Alpha  occ. eigenvalues --   -0.81491  -0.79093  -0.76314  -0.74481  -0.74213
 Alpha  occ. eigenvalues --   -0.74121  -0.73815  -0.73371  -0.72508  -0.69849
 Alpha  occ. eigenvalues --   -0.67696  -0.67257  -0.66995  -0.66300  -0.65486
 Alpha  occ. eigenvalues --   -0.64131  -0.63666  -0.63477  -0.62978  -0.62486
 Alpha  occ. eigenvalues --   -0.61521  -0.61326  -0.60374  -0.59615  -0.59204
 Alpha  occ. eigenvalues --   -0.59005  -0.57955  -0.57873  -0.57350  -0.56921
 Alpha  occ. eigenvalues --   -0.56565  -0.56496  -0.55709  -0.55056  -0.54558
 Alpha  occ. eigenvalues --   -0.54327  -0.53667  -0.53368  -0.53063  -0.52478
 Alpha  occ. eigenvalues --   -0.52322  -0.51642  -0.51540  -0.50649  -0.50398
 Alpha  occ. eigenvalues --   -0.50179  -0.49597  -0.49478  -0.49115  -0.48705
 Alpha  occ. eigenvalues --   -0.48392  -0.48218  -0.48067  -0.47576  -0.47188
 Alpha  occ. eigenvalues --   -0.47133  -0.45964  -0.45228  -0.43390  -0.42672
 Alpha  occ. eigenvalues --   -0.41084  -0.40153  -0.39635  -0.38503  -0.37183
 Alpha  occ. eigenvalues --   -0.36935  -0.36924  -0.36841  -0.35891  -0.34993
 Alpha  occ. eigenvalues --   -0.34700  -0.34055  -0.33536  -0.33334  -0.33092
 Alpha  occ. eigenvalues --   -0.32521  -0.31937  -0.31803  -0.31637  -0.31409
 Alpha  occ. eigenvalues --   -0.30858  -0.28568  -0.26758  -0.25105
 Alpha virt. eigenvalues --    0.02587   0.04979   0.06548   0.07389   0.08736
 Alpha virt. eigenvalues --    0.09190   0.09301   0.10356   0.11108   0.11775
 Alpha virt. eigenvalues --    0.12644   0.12882   0.14403   0.14613   0.14896

 Mulliken charges:
               1
     1  N   -0.313679
     2  C    0.179488
     3  C    0.061599
     4  N   -0.250357
     5  C    0.127414
     6  H    0.030508
     7  N   -0.262727
     8  C    0.123330
     9  H    0.018348
    10  N   -0.301221
    11  C    0.229377
    12  C    0.081879
    13  N   -0.040822
    14  H    0.107084
    15  H    0.087940
    16  H    0.031613
    17  H    0.041264
    18  H    0.026313
    19  N   -0.288238
    20  C    0.215850
    21  C    0.235582
    22  N   -0.094646
    23  H    0.113632
    24  H    0.113109
    25  N   -0.282965
    26  C    0.193100
    27  N   -0.141344
    28  H    0.138171
    29  C    0.150646
    30  O   -0.324303
    31  C    0.020465
    32  N   -0.223579
    33  C    0.120965
    34  H    0.022312
    35  H    0.008452
    36  H    0.019182
    37  H   -0.000774
    38  H    0.032898
    39  H    0.056925
    40  H    0.066428
    41  H    0.030743
    42  C   -0.086479
    43  O   -0.263077
    44  C    0.179527
    45  H    0.133476
    46  N   -0.120990
    47  O   -0.330709
    48  C    0.323511
    49  H    0.042942
    50  C    0.156411
    51  C    0.097105
    52  N   -0.278427
    53  H    0.017466
    54  H    0.031220
    55  H    0.001639
    56  H    0.118623
    57  H    0.121021
    58  N   -0.066202
    59  C    0.131108
    60  C    0.198828
    61  N   -0.280518
    62  H    0.031213
    63  C    0.171936
    64  N   -0.311011
    65  H    0.031960
    66  C    0.114672
    67  N   -0.246098
    68  C    0.033636
    69  C    0.179079
    70  N   -0.291820
 Sum of Mulliken charges =  -0.00000

 Dipole moment (field-independent basis, Debye):
    X=              4.0481    Y=             -5.3801    Z=             -5.3742  Tot=              8.6148
 Quadrupole moment (field-independent basis, Debye-Ang):
   XX=           -141.7225   YY=           -226.5725   ZZ=           -264.6941
   XY=            -17.5932   XZ=            -13.6879   YZ=             -5.9583

 Normal termination of Gaussian 16 at Thu Jan 18 08:03:01 2018.
