 Gaussian 16, Revision A.03,
 Gaussian 16:  EM64L-G16RevA.03 25-Dec-2016

 ---------------------------------------
 #p wb97xd/cc-pvdz sp scf=(maxcycles=20)
 ---------------------------------------

 ------------------
 Base pair stacking
 ------------------
 Symbolic Z-matrix:
 Charge =  0 Multiplicity = 1

                         Standard orientation:
 ---------------------------------------------------------------------
 Center     Atomic      Atomic             Coordinates (Angstroms)
 Number     Number       Type             X           Y           Z
 ---------------------------------------------------------------------
      1          7           0       -7.111381   -0.718824    0.199349
      2          6           0       -8.375338   -0.131745    0.684893
      3          6           0       -4.993871   -1.268895   -0.026219
      4          7           0       -5.671933   -1.905161   -1.055839
      5          6           0       -6.920516   -1.548299   -0.878737
      6          1           0       -7.751118   -1.863782   -1.510797
      7          7           0       -3.291999   -0.510898    1.420165
      8          6           0       -4.250686    0.148444    2.078775
      9          1           0       -3.912485    0.722444    2.940407
     10          7           0       -5.558277    0.204938    1.833976
     11          6           0       -5.867892   -0.533949    0.755737
     12          6           0       -3.635729   -1.245305    0.339621
     13          7           0       -2.680179   -1.904194   -0.319126
     14          1           0       -2.888967   -2.460131   -1.124448
     15          1           0       -1.723547   -1.864593   -0.030276
     16          1           0       -9.013456   -0.863247    0.925496
     17          1           0       -8.194515    0.430216    1.491512
     18          1           0       -8.778144    0.437153   -0.032114
     19          7           0       -2.932511    2.030960   -1.216756
     20          6           0       -1.600665    2.102911   -0.886520
     21          6           0       -3.980575    2.957557   -0.743830
     22          7           0        0.996823    3.660091    0.813481
     23          1           0        1.982405    3.537485    0.926800
     24          1           0        0.576381    4.427576    1.298163
     25          7           0       -1.030272    3.024774   -0.081003
     26          6           0        0.270754    2.832992    0.046259
     27          7           0        0.962179    1.816772   -0.567525
     28          1           0        1.956281    1.746810   -0.413207
     29          6           0        0.395796    0.856951   -1.400491
     30          8           0        1.109313   -0.018868   -1.905054
     31          6           0       -1.001416    1.049964   -1.546827
     32          7           0       -1.938201    0.331422   -2.276906
     33          6           0       -3.066380    0.948341   -2.051423
     34          1           0       -4.029369    0.654466   -2.470446
     35          1           0       -4.674216    2.447729   -0.236149
     36          1           0       -3.569869    3.644921   -0.146245
     37          1           0       -4.406151    3.409737   -1.526932
     38          1           0        6.751810    1.564068    1.266766
     39          1           0        7.099267    2.363234   -0.264661
     40          1           0        5.563153    2.653932    0.552164
     41          1           0        6.534381   -2.178142   -1.749055
     42          6           0        5.924155   -1.328007   -1.443873
     43          8           0        3.918056   -2.205135   -2.356747
     44          6           0        4.527749   -1.320283   -1.756672
     45          1           0        2.859567   -0.156987   -1.528108
     46          7           0        3.848476   -0.198705   -1.325499
     47          8           0        3.686417    1.824331   -0.306565
     48          6           0        4.369510    0.874595   -0.647199
     49          1           0        7.517653   -0.253047   -0.521370
     50          6           0        6.461276   -0.295665   -0.783289
     51          6           0        6.323908    1.917366    0.340400
     52          7           0        5.722509    0.793385   -0.382597
     53          1           0        4.063781    0.046678    4.294863
     54          1           0        2.929349    1.022761    3.644932
     55          1           0        4.470820    1.096389    3.113411
     56          1           0        0.523915   -3.482093   -1.189899
     57          1           0        2.175558   -3.733304   -0.844811
     58          7           0        1.337076   -3.215140   -0.672551
     59          6           0        1.305783   -2.212860    0.208147
     60          6           0        2.232452   -0.743418    1.834119
     61          7           0        1.092347   -0.065098    2.044999
     62          1           0       -0.849358   -0.051065    1.389110
     63          6           0        0.114456   -0.546497    1.280209
     64          7           0        0.143804   -1.550269    0.397514
     65          1           0        5.345200   -1.536423    2.200259
     66          6           0        4.299658   -1.472137    1.897533
     67          7           0        3.731762   -2.250865    1.009419
     68          6           0        2.420837   -1.799502    0.959629
     69          6           0        3.752722    0.489233    3.453801
     70          7           0        3.450558   -0.536924    2.437084
 ---------------------------------------------------------------------

 SCF Done:  E(RwB97XD) =  -2048.75174768     A.U. after   15 cycles

 The electronic state is 1-A.
 Alpha  occ. eigenvalues --  -19.26043 -19.21970 -19.20772 -14.52597 -14.50844
 Alpha  occ. eigenvalues --  -14.49903 -14.48639 -14.47808 -14.46987 -14.46781
 Alpha  occ. eigenvalues --  -14.45392 -14.43600 -14.42756 -14.42643 -14.42339
 Alpha  occ. eigenvalues --  -14.42159 -14.42081 -14.41896 -14.41039 -14.40822
 Alpha  occ. eigenvalues --  -10.45614 -10.41289 -10.40091 -10.38376 -10.37651
 Alpha  occ. eigenvalues --  -10.37632 -10.36294 -10.36283 -10.35844 -10.35323
 Alpha  occ. eigenvalues --  -10.35256 -10.34493 -10.34373 -10.33987 -10.33960
 Alpha  occ. eigenvalues --  -10.33178 -10.32895 -10.31888 -10.31008 -10.30610
 Alpha  occ. eigenvalues --  -10.30486 -10.29677 -10.28168  -1.19598  -1.13480
 Alpha  occ. eigenvalues --   -1.13300  -1.12948  -1.12510  -1.10590  -1.09463
 Alpha  occ. eigenvalues --   -1.08682  -1.07013  -1.05929  -1.02566  -1.02465
 Alpha  occ. eigenvalues --   -1.01326  -0.99846  -0.99147  -0.98584  -0.98012
 Alpha  occ. eigenvalues --   -0.96497  -0.94692  -0.93510  -0.91017  -0.85898
 Alpha  occ. eigenvalues --   -0.84998  -0.84406  -0.84062  -0.83962  -0.83326
 Alpha  occ. eigenvalues --   -0.82311  -0.78899  -0.75104  -0.74597  -0.73850
 Alpha  occ. eigenvalues --   -0.73718  -0.73371  -0.72828  -0.72038  -0.68431
 Alpha  occ. eigenvalues --   -0.67429  -0.67238  -0.66597  -0.64727  -0.64475
 Alpha  occ. eigenvalues --   -0.63763  -0.63628  -0.62699  -0.62269  -0.61773
 Alpha  occ. eigenvalues --   -0.61023  -0.60258  -0.59569  -0.58661  -0.58452
 Alpha  occ. eigenvalues --   -0.58094  -0.57886  -0.57479  -0.57161  -0.56464
 Alpha  occ. eigenvalues --   -0.56087  -0.56079  -0.54452  -0.54390  -0.53747
 Alpha  occ. eigenvalues --   -0.53636  -0.53584  -0.52911  -0.52776  -0.52745
 Alpha  occ. eigenvalues --   -0.52107  -0.51882  -0.51746  -0.51142  -0.51005
 Alpha  occ. eigenvalues --   -0.50160  -0.49945  -0.49494  -0.48798  -0.48463
 Alpha  occ. eigenvalues --   -0.48225  -0.48195  -0.47913  -0.47856  -0.47724
 Alpha  occ. eigenvalues --   -0.47375  -0.45974  -0.44924  -0.44100  -0.42825
 Alpha  occ. eigenvalues --   -0.42113  -0.39611  -0.38900  -0.38184  -0.37356
 Alpha  occ. eigenvalues --   -0.37252  -0.36335  -0.35633  -0.35271  -0.34610
 Alpha  occ. eigenvalues --   -0.34487  -0.34428  -0.33278  -0.32818  -0.32718
 Alpha  occ. eigenvalues --   -0.32571  -0.32227  -0.32003  -0.31906  -0.31863
 Alpha  occ. eigenvalues --   -0.31204  -0.27808  -0.26623  -0.25496
 Alpha virt. eigenvalues --    0.03134   0.05760   0.06882   0.08236   0.08996
 Alpha virt. eigenvalues --    0.09116   0.09742   0.10207   0.10714   0.12577
 Alpha virt. eigenvalues --    0.13064   0.13243   0.14512   0.14823   0.15518

 Mulliken charges:
               1
     1  N   -0.310102
     2  C    0.180439
     3  C    0.027748
     4  N   -0.256357
     5  C    0.129798
     6  H    0.029633
     7  N   -0.279094
     8  C    0.130267
     9  H    0.018587
    10  N   -0.289903
    11  C    0.237116
    12  C    0.086763
    13  N   -0.031087
    14  H    0.107707
    15  H    0.091876
    16  H    0.028645
    17  H    0.036678
    18  H    0.025276
    19  N   -0.303368
    20  C    0.251997
    21  C    0.182535
    22  N   -0.121930
    23  H    0.112538
    24  H    0.118548
    25  N   -0.306298
    26  C    0.243930
    27  N   -0.129745
    28  H    0.118036
    29  C    0.164872
    30  O   -0.326159
    31  C   -0.007866
    32  N   -0.229101
    33  C    0.122556
    34  H    0.030739
    35  H    0.029770
    36  H    0.027945
    37  H    0.021909
    38  H    0.053456
    39  H    0.064570
    40  H    0.075500
    41  H    0.030186
    42  C   -0.082247
    43  O   -0.275610
    44  C    0.190552
    45  H    0.134203
    46  N   -0.127230
    47  O   -0.351770
    48  C    0.343613
    49  H    0.044217
    50  C    0.154600
    51  C    0.038113
    52  N   -0.290115
    53  H    0.030460
    54  H    0.038751
    55  H    0.014508
    56  H    0.115034
    57  H    0.121805
    58  N   -0.046189
    59  C    0.131105
    60  C    0.239476
    61  N   -0.275794
    62  H    0.034684
    63  C    0.155481
    64  N   -0.306415
    65  H    0.022320
    66  C    0.115396
    67  N   -0.246935
    68  C    0.011189
    69  C    0.181770
    70  N   -0.303583
 Sum of Mulliken charges =  -0.00000

 Dipole moment (field-independent basis, Debye):
    X=              4.6301    Y=              5.3829    Z=              4.5752  Tot=              8.4466
 Quadrupole moment (field-independent basis, Debye-Ang):
   XX=           -139.4909   YY=           -227.8301   ZZ=           -252.7046
   XY=             10.5757   XZ=             26.8248   YZ=              4.0820

 Normal termination of Gaussian 16 at Thu Jan 18 05:30:15 2018.
