 Gaussian 16, Revision A.03,
 Gaussian 16:  EM64L-G16RevA.03 25-Dec-2016

 ---------------------------------------
 #p wb97xd/cc-pvdz sp scf=(maxcycles=20)
 ---------------------------------------

 ------------------
 Base pair stacking
 ------------------
 Symbolic Z-matrix:
 Charge =  0 Multiplicity = 1

                         Standard orientation:
 ---------------------------------------------------------------------
 Center     Atomic      Atomic             Coordinates (Angstroms)
 Number     Number       Type             X           Y           Z
 ---------------------------------------------------------------------
      1          7           0       -5.421146    0.859905   -1.214142
      2          6           0       -6.695758    0.129552   -1.355365
      3          6           0       -3.283464    1.372704   -1.145716
      4          7           0       -3.972325    2.540689   -0.852434
      5          6           0       -5.232626    2.185000   -0.905399
      6          1           0       -6.073990    2.855002   -0.726129
      7          7           0       -1.558964   -0.183075   -1.556323
      8          6           0       -2.524589   -1.088052   -1.746487
      9          1           0       -2.179632   -2.091467   -1.992338
     10          7           0       -3.846143   -0.940350   -1.678874
     11          6           0       -4.163098    0.328192   -1.371003
     12          6           0       -1.910381    1.084381   -1.247863
     13          7           0       -0.947914    1.989182   -1.057664
     14          1           0       -1.161964    2.939179   -0.827681
     15          1           0        0.019369    1.748412   -1.138530
     16          1           0       -7.241832    0.546761   -2.081944
     17          1           0       -6.509952   -0.825188   -1.585771
     18          1           0       -7.202832    0.170302   -0.494431
     19          7           0       -4.803989   -0.832785    1.123232
     20          6           0       -3.467482   -1.115878    0.975990
     21          6           0       -5.913497   -1.656196    0.601992
     22          7           0       -0.944191   -3.175539   -0.229226
     23          1           0        0.055160   -3.197922   -0.224240
     24          1           0       -1.412544   -3.926957   -0.694767
     25          7           0       -2.947466   -2.185214    0.335566
     26          6           0       -1.626500   -2.182893    0.361552
     27          7           0       -0.870749   -1.208827    0.967807
     28          1           0        0.134107   -1.288549    0.938039
     29          6           0       -1.384494   -0.099730    1.632515
     30          8           0       -0.614747    0.721510    2.146122
     31          6           0       -2.802367   -0.088443    1.613001
     32          7           0       -3.703170    0.821376    2.149361
     33          6           0       -4.875130    0.339897    1.834843
     34          1           0       -5.827265    0.801913    2.098010
     35          1           0       -6.462162   -1.114897   -0.034227
     36          1           0       -5.540434   -2.451252    0.125579
     37          1           0       -6.488117   -1.962586    1.360116
     38          1           0        5.067457   -1.924183   -0.115893
     39          1           0        5.115254   -2.596602    1.512057
     40          1           0        3.658397   -2.764592    0.531899
     41          1           0        5.047434    2.110475    2.504740
     42          6           0        4.359790    1.321795    2.199169
     43          8           0        2.410130    2.549559    2.763544
     44          6           0        2.950317    1.533127    2.327842
     45          1           0        1.168787    0.584801    1.988453
     46          7           0        2.170022    0.472860    1.912815
     47          8           0        1.835220   -1.606599    1.063735
     48          6           0        2.604811   -0.725718    1.404980
     49          1           0        5.876434   -0.047000    1.589259
     50          6           0        4.814277    0.163292    1.707312
     51          6           0        4.488297   -2.117727    0.774713
     52          7           0        3.976714   -0.853777    1.311812
     53          1           0        5.903066   -2.650381   -2.511727
     54          1           0        4.635935   -2.945173   -1.527054
     55          1           0        6.119800   -2.695200   -0.894809
     56          1           0        2.318385    3.675827   -1.030278
     57          1           0        4.007431    3.603025   -1.258162
     58          7           0        3.138539    3.117472   -1.155689
     59          6           0        3.077387    1.784589   -1.185146
     60          6           0        3.977967   -0.410265   -1.367519
     61          7           0        2.797292   -1.035373   -1.227307
     62          1           0        0.819830   -0.573535   -0.949873
     63          6           0        1.815676   -0.149419   -1.071052
     64          7           0        1.874894    1.185943   -1.041267
     65          1           0        7.170561   -0.120038   -1.786180
     66          6           0        6.104110    0.052768   -1.638712
     67          7           0        5.548629    1.234940   -1.531074
     68          6           0        4.200650    0.955699   -1.358732
     69          6           0        5.489894   -2.435342   -1.626835
     70          7           0        5.212216   -0.987992   -1.548849
 ---------------------------------------------------------------------

 SCF Done:  E(RwB97XD) =  -2048.61954817     A.U. after   15 cycles

 The electronic state is 1-A.
 Alpha  occ. eigenvalues --  -19.24705 -19.21280 -19.20519 -14.52932 -14.51493
 Alpha  occ. eigenvalues --  -14.49397 -14.48850 -14.48087 -14.47137 -14.46646
 Alpha  occ. eigenvalues --  -14.46368 -14.45641 -14.44519 -14.44225 -14.43301
 Alpha  occ. eigenvalues --  -14.41864 -14.41607 -14.41077 -14.40956 -14.40815
 Alpha  occ. eigenvalues --  -10.44467 -10.40741 -10.40010 -10.39378 -10.38294
 Alpha  occ. eigenvalues --  -10.38117 -10.37441 -10.36975 -10.36284 -10.36095
 Alpha  occ. eigenvalues --  -10.34894 -10.34511 -10.34189 -10.33878 -10.33820
 Alpha  occ. eigenvalues --  -10.33623 -10.32828 -10.32747 -10.32189 -10.30314
 Alpha  occ. eigenvalues --  -10.29927 -10.28857 -10.28230  -1.18778  -1.15996
 Alpha  occ. eigenvalues --   -1.13301  -1.12299  -1.12028  -1.10574  -1.09511
 Alpha  occ. eigenvalues --   -1.08679  -1.08481  -1.05862  -1.05009  -1.02139
 Alpha  occ. eigenvalues --   -1.01622  -1.01360  -0.99687  -0.98427  -0.98054
 Alpha  occ. eigenvalues --   -0.97126  -0.96511  -0.93582  -0.90304  -0.88575
 Alpha  occ. eigenvalues --   -0.87177  -0.85954  -0.84007  -0.83739  -0.82644
 Alpha  occ. eigenvalues --   -0.81845  -0.78157  -0.77370  -0.75213  -0.74657
 Alpha  occ. eigenvalues --   -0.73993  -0.73387  -0.72710  -0.71870  -0.70879
 Alpha  occ. eigenvalues --   -0.67730  -0.67226  -0.66978  -0.66509  -0.64793
 Alpha  occ. eigenvalues --   -0.64638  -0.64512  -0.63516  -0.62813  -0.62530
 Alpha  occ. eigenvalues --   -0.61784  -0.61687  -0.60989  -0.60367  -0.59829
 Alpha  occ. eigenvalues --   -0.59297  -0.58591  -0.58319  -0.57589  -0.57031
 Alpha  occ. eigenvalues --   -0.56290  -0.55855  -0.55427  -0.54429  -0.54270
 Alpha  occ. eigenvalues --   -0.54106  -0.53849  -0.53369  -0.53218  -0.52787
 Alpha  occ. eigenvalues --   -0.52047  -0.51808  -0.51459  -0.50916  -0.50348
 Alpha  occ. eigenvalues --   -0.50162  -0.49717  -0.49581  -0.49069  -0.48816
 Alpha  occ. eigenvalues --   -0.48460  -0.48032  -0.47954  -0.47893  -0.47057
 Alpha  occ. eigenvalues --   -0.46838  -0.46142  -0.44469  -0.44077  -0.42516
 Alpha  occ. eigenvalues --   -0.41556  -0.41049  -0.38751  -0.37927  -0.37719
 Alpha  occ. eigenvalues --   -0.37633  -0.37000  -0.36079  -0.35926  -0.35148
 Alpha  occ. eigenvalues --   -0.34950  -0.34776  -0.33915  -0.33557  -0.32799
 Alpha  occ. eigenvalues --   -0.32360  -0.31839  -0.31766  -0.31438  -0.30944
 Alpha  occ. eigenvalues --   -0.30606  -0.29721  -0.27448  -0.23953
 Alpha virt. eigenvalues --    0.02910   0.04501   0.06546   0.06725   0.08037
 Alpha virt. eigenvalues --    0.09313   0.09898   0.10200   0.11394   0.12550
 Alpha virt. eigenvalues --    0.12610   0.13595   0.14001   0.14677   0.14903

 Mulliken charges:
               1
     1  N   -0.312023
     2  C    0.256480
     3  C    0.079575
     4  N   -0.245089
     5  C    0.121364
     6  H    0.023821
     7  N   -0.274069
     8  C    0.134749
     9  H   -0.003729
    10  N   -0.258851
    11  C    0.198569
    12  C    0.064770
    13  N   -0.044509
    14  H    0.110540
    15  H    0.085734
    16  H    0.017263
    17  H    0.027732
    18  H    0.012940
    19  N   -0.276970
    20  C    0.202209
    21  C    0.210955
    22  N   -0.096012
    23  H    0.118329
    24  H    0.120499
    25  N   -0.254954
    26  C    0.163747
    27  N   -0.101273
    28  H    0.116382
    29  C    0.159385
    30  O   -0.320529
    31  C    0.024624
    32  N   -0.213919
    33  C    0.113522
    34  H    0.018554
    35  H   -0.066453
    36  H    0.038977
    37  H    0.019803
    38  H    0.032088
    39  H    0.045790
    40  H    0.081351
    41  H    0.025132
    42  C   -0.096423
    43  O   -0.268565
    44  C    0.168258
    45  H    0.128957
    46  N   -0.107281
    47  O   -0.335409
    48  C    0.316761
    49  H    0.041433
    50  C    0.163031
    51  C    0.035042
    52  N   -0.266427
    53  H    0.021432
    54  H    0.036970
    55  H    0.014884
    56  H    0.122687
    57  H    0.121210
    58  N   -0.061641
    59  C    0.111456
    60  C    0.188191
    61  N   -0.258162
    62  H    0.003021
    63  C    0.175962
    64  N   -0.296250
    65  H    0.037408
    66  C    0.120930
    67  N   -0.247780
    68  C    0.054076
    69  C    0.235042
    70  N   -0.315318
 Sum of Mulliken charges =  -0.00000

 Dipole moment (field-independent basis, Debye):
    X=              4.6856    Y=             -6.3952    Z=             -5.2192  Tot=              9.4918
 Quadrupole moment (field-independent basis, Debye-Ang):
   XX=           -146.9166   YY=           -227.6295   ZZ=           -265.0174
   XY=            -11.6404   XZ=             -2.1195   YZ=            -10.2654

 Normal termination of Gaussian 16 at Thu Jan 18 06:34:41 2018.
