 Gaussian 16, Revision A.03,
 Gaussian 16:  EM64L-G16RevA.03 25-Dec-2016

 ---------------------------------------
 #p wb97xd/cc-pvdz sp scf=(maxcycles=20)
 ---------------------------------------

 ------------------
 Base pair stacking
 ------------------
 Symbolic Z-matrix:
 Charge =  0 Multiplicity = 1

                         Standard orientation:
 ---------------------------------------------------------------------
 Center     Atomic      Atomic             Coordinates (Angstroms)
 Number     Number       Type             X           Y           Z
 ---------------------------------------------------------------------
      1          7           0        5.418426   -1.309152   -1.043316
      2          6           0        6.694436   -0.728233   -1.504117
      3          6           0        3.279420   -1.709561   -0.724519
      4          7           0        3.966810   -2.654941    0.022791
      5          6           0        5.227978   -2.375867   -0.199179
      6          1           0        6.068622   -2.920860    0.231215
      7          7           0        1.556656   -0.445452   -1.723036
      8          6           0        2.523832    0.278046   -2.296352
      9          1           0        2.180203    1.088727   -2.937420
     10          7           0        3.845554    0.151069   -2.197133
     11          6           0        4.160785   -0.873102   -1.387127
     12          6           0        1.906365   -1.468960   -0.913592
     13          7           0        0.942342   -2.192334   -0.340374
     14          1           0        1.155090   -2.959201    0.266154
     15          1           0       -0.024876   -1.992497   -0.497571
     16          1           0        7.220106   -1.422604   -1.995752
     17          1           0        6.509940    0.042270   -2.113545
     18          1           0        7.221570   -0.409249   -0.716473
     19          7           0        4.805221    1.240800    0.943897
     20          6           0        3.468767    1.490620    0.745020
     21          6           0        5.915146    1.961385    0.288523
     22          7           0        0.946243    3.299481   -0.812737
     23          1           0       -0.053156    3.320316   -0.814708
     24          1           0        1.414946    3.957726   -1.402437
     25          7           0        2.949189    2.428786   -0.075901
     26          6           0        1.628151    2.428351   -0.053768
     27          7           0        0.871927    1.575243    0.712937
     28          1           0       -0.132943    1.646349    0.666617
     29          6           0        1.385217    0.602214    1.564775
     30          8           0        0.615077   -0.116885    2.213245
     31          6           0        2.803162    0.590596    1.551708
     32          7           0        3.703621   -0.208165    2.243108
     33          6           0        4.875846    0.212552    1.851836
     34          1           0        5.827835   -0.193675    2.195326
     35          1           0        6.466710    1.317284   -0.240357
     36          1           0        5.542415    2.658914   -0.322044
     37          1           0        6.486832    2.398189    0.982209
     38          1           0       -5.063813    2.075363   -0.497502
     39          1           0       -5.117927    3.024914    0.985769
     40          1           0       -3.658160    3.020000   -0.004388
     41          1           0       -5.046104   -1.432357    2.795250
     42          6           0       -4.358688   -0.708693    2.357063
     43          8           0       -2.408982   -1.813272    3.135310
     44          6           0       -2.949320   -0.891008    2.525186
     45          1           0       -1.168156   -0.013926    2.028683
     46          7           0       -2.169312    0.080800    1.931514
     47          8           0       -1.834933    1.978072    0.729132
     48          6           0       -2.604279    1.169811    1.218496
     49          1           0       -5.875444    0.527543    1.510324
     50          6           0       -4.813349    0.343641    1.666795
     51          6           0       -4.487848    2.424520    0.346547
     52          7           0       -3.976080    1.276514    1.100139
     53          1           0       -5.908417    1.508422   -3.494299
     54          1           0       -4.616167    2.171229   -2.750760
     55          1           0       -6.086279    2.236701   -2.044686
     56          1           0       -2.334203   -3.654950    0.459177
     57          1           0       -4.027636   -3.657602    0.253342
     58          7           0       -3.153156   -3.188684    0.124437
     59          6           0       -3.083321   -1.994642   -0.467657
     60          6           0       -3.972484   -0.068567   -1.545315
     61          7           0       -2.784419    0.537618   -1.704902
     62          1           0       -0.804217    0.204032   -1.294833
     63          6           0       -1.805635   -0.215060   -1.206528
     64          7           0       -1.873540   -1.411234   -0.613128
     65          1           0       -7.176108   -0.456051   -1.742334
     66          6           0       -6.107685   -0.567777   -1.555417
     67          7           0       -5.558159   -1.602360   -0.967757
     68          6           0       -4.204519   -1.298661   -0.954922
     69          6           0       -5.475828    1.681199   -2.609425
     70          7           0       -5.206587    0.398415   -1.931202
 ---------------------------------------------------------------------

 SCF Done:  E(RwB97XD) =  -2048.73946072     A.U. after   15 cycles

 The electronic state is 1-A.
 Alpha  occ. eigenvalues --  -19.25193 -19.21514 -19.20505 -14.52518 -14.51912
 Alpha  occ. eigenvalues --  -14.49377 -14.48893 -14.47644 -14.47281 -14.46643
 Alpha  occ. eigenvalues --  -14.46542 -14.45255 -14.44130 -14.44095 -14.42936
 Alpha  occ. eigenvalues --  -14.41791 -14.41775 -14.41425 -14.40958 -14.40957
 Alpha  occ. eigenvalues --  -10.44845 -10.41000 -10.39612 -10.39610 -10.38144
 Alpha  occ. eigenvalues --  -10.37894 -10.37138 -10.37068 -10.36105 -10.35697
 Alpha  occ. eigenvalues --  -10.34625 -10.34502 -10.34338 -10.34307 -10.33931
 Alpha  occ. eigenvalues --  -10.33714 -10.33495 -10.32408 -10.32008 -10.31027
 Alpha  occ. eigenvalues --  -10.30439 -10.29042 -10.28099  -1.18889  -1.15235
 Alpha  occ. eigenvalues --   -1.13110  -1.12526  -1.11924  -1.10608  -1.09050
 Alpha  occ. eigenvalues --   -1.08795  -1.08430  -1.05701  -1.04535  -1.01999
 Alpha  occ. eigenvalues --   -1.01058  -1.00973  -0.99591  -0.98420  -0.97620
 Alpha  occ. eigenvalues --   -0.96650  -0.96596  -0.93362  -0.90448  -0.87644
 Alpha  occ. eigenvalues --   -0.86175  -0.84802  -0.84049  -0.83309  -0.83184
 Alpha  occ. eigenvalues --   -0.82437  -0.78338  -0.76877  -0.74720  -0.74593
 Alpha  occ. eigenvalues --   -0.73575  -0.73459  -0.72846  -0.71660  -0.70260
 Alpha  occ. eigenvalues --   -0.67339  -0.66937  -0.66618  -0.66080  -0.64339
 Alpha  occ. eigenvalues --   -0.64095  -0.63659  -0.63340  -0.62515  -0.62069
 Alpha  occ. eigenvalues --   -0.61674  -0.60994  -0.60376  -0.59446  -0.59077
 Alpha  occ. eigenvalues --   -0.58907  -0.58384  -0.58233  -0.57225  -0.56157
 Alpha  occ. eigenvalues --   -0.55613  -0.55443  -0.55384  -0.54587  -0.54085
 Alpha  occ. eigenvalues --   -0.54015  -0.53685  -0.53443  -0.52884  -0.52820
 Alpha  occ. eigenvalues --   -0.52509  -0.52407  -0.51608  -0.51232  -0.50847
 Alpha  occ. eigenvalues --   -0.50101  -0.49999  -0.49447  -0.49097  -0.48873
 Alpha  occ. eigenvalues --   -0.48694  -0.48351  -0.48188  -0.47793  -0.47504
 Alpha  occ. eigenvalues --   -0.47148  -0.46149  -0.45076  -0.44332  -0.43054
 Alpha  occ. eigenvalues --   -0.41575  -0.40597  -0.38903  -0.37686  -0.37661
 Alpha  occ. eigenvalues --   -0.37379  -0.37081  -0.36800  -0.36018  -0.34750
 Alpha  occ. eigenvalues --   -0.34475  -0.34214  -0.33848  -0.33620  -0.32864
 Alpha  occ. eigenvalues --   -0.32504  -0.32213  -0.31805  -0.31381  -0.31300
 Alpha  occ. eigenvalues --   -0.30919  -0.29622  -0.27053  -0.24689
 Alpha virt. eigenvalues --    0.03108   0.04562   0.06920   0.07155   0.08689
 Alpha virt. eigenvalues --    0.09214   0.09939   0.10454   0.10801   0.12533
 Alpha virt. eigenvalues --    0.12769   0.13728   0.14239   0.14588   0.14943

 Mulliken charges:
               1
     1  N   -0.302824
     2  C    0.184806
     3  C    0.063711
     4  N   -0.239863
     5  C    0.122878
     6  H    0.024796
     7  N   -0.284673
     8  C    0.136134
     9  H    0.007836
    10  N   -0.273175
    11  C    0.220292
    12  C    0.075715
    13  N   -0.042592
    14  H    0.112691
    15  H    0.086304
    16  H    0.026410
    17  H    0.037751
    18  H    0.027483
    19  N   -0.291397
    20  C    0.236935
    21  C    0.200669
    22  N   -0.117922
    23  H    0.118320
    24  H    0.117936
    25  N   -0.290842
    26  C    0.222213
    27  N   -0.128501
    28  H    0.115792
    29  C    0.174094
    30  O   -0.323859
    31  C   -0.003876
    32  N   -0.212995
    33  C    0.115376
    34  H    0.018074
    35  H   -0.027099
    36  H    0.036632
    37  H    0.024916
    38  H    0.013124
    39  H    0.056275
    40  H    0.080465
    41  H    0.023762
    42  C   -0.093589
    43  O   -0.270689
    44  C    0.159941
    45  H    0.129448
    46  N   -0.105963
    47  O   -0.343911
    48  C    0.330539
    49  H    0.042694
    50  C    0.166007
    51  C    0.057122
    52  N   -0.271044
    53  H    0.031748
    54  H    0.041612
    55  H    0.029560
    56  H    0.124197
    57  H    0.118913
    58  N   -0.047840
    59  C    0.089432
    60  C    0.206536
    61  N   -0.261242
    62  H    0.019928
    63  C    0.160057
    64  N   -0.293746
    65  H    0.035897
    66  C    0.121558
    67  N   -0.248820
    68  C    0.048565
    69  C    0.188738
    70  N   -0.307417
 Sum of Mulliken charges =  -0.00000

 Dipole moment (field-independent basis, Debye):
    X=             -4.7082    Y=              5.3819    Z=             -5.6165  Tot=              9.0927
 Quadrupole moment (field-independent basis, Debye-Ang):
   XX=           -146.4664   YY=           -224.0995   ZZ=           -264.0292
   XY=            -11.4737   XZ=              5.0325   YZ=             -1.0868

 Normal termination of Gaussian 16 at Thu Jan 18 11:10:38 2018.
