 Gaussian 16, Revision A.03,
 Gaussian 16:  EM64L-G16RevA.03 25-Dec-2016

 ---------------------------------------
 #p wb97xd/cc-pvdz sp scf=(maxcycles=20)
 ---------------------------------------

 ------------------
 Base pair stacking
 ------------------
 Symbolic Z-matrix:
 Charge =  0 Multiplicity = 1

                         Standard orientation:
 ---------------------------------------------------------------------
 Center     Atomic      Atomic             Coordinates (Angstroms)
 Number     Number       Type             X           Y           Z
 ---------------------------------------------------------------------
      1          7           0        4.484701   -2.312489   -0.403507
      2          6           0        5.728941   -2.379545   -1.194311
      3          6           0        2.378429   -2.110905    0.196729
      4          7           0        3.093748   -2.342702    1.362630
      5          6           0        4.334069   -2.454875    0.954346
      6          1           0        5.186990   -2.643318    1.606995
      7          7           0        0.625238   -1.701831   -1.327050
      8          6           0        1.558203   -1.708618   -2.284709
      9          1           0        1.188513   -1.540164   -3.295263
     10          7           0        2.873097   -1.891394   -2.181958
     11          6           0        3.222281   -2.089544   -0.900075
     12          6           0        1.008574   -1.904125   -0.047522
     13          7           0        0.078736   -1.897699    0.909844
     14          1           0        0.317110   -2.043194    1.870683
     15          1           0       -0.887308   -1.747313    0.699387
     16          1           0        6.153193   -3.277330   -1.075261
     17          1           0        5.518456   -2.236967   -2.161006
     18          1           0        6.361874   -1.670004   -0.884569
     19          7           0        5.688862    1.236410    0.012109
     20          6           0        4.360491    1.493707   -0.227212
     21          6           0        6.795245    1.518351   -0.924430
     22          7           0        1.857767    2.693583   -2.314899
     23          1           0        0.863836    2.797346   -2.290817
     24          1           0        2.326181    3.001679   -3.143384
     25          7           0        3.846909    2.042912   -1.349109
     26          6           0        2.533015    2.165135   -1.283066
     27          7           0        1.777971    1.779637   -0.201951
     28          1           0        0.778783    1.910758   -0.239096
     29          6           0        2.285171    1.212394    0.962894
     30          8           0        1.516737    0.899746    1.880776
     31          6           0        3.695411    1.074755    0.906786
     32          7           0        4.588273    0.564693    1.839265
     33          6           0        5.755602    0.680716    1.266462
     34          1           0        6.701050    0.375520    1.716192
     35          1           0        7.267968    0.667302   -1.150372
     36          1           0        6.426915    1.925427   -1.759234
     37          1           0        7.438996    2.154572   -0.500592
     38          1           0       -4.182538    2.234497   -1.303656
     39          1           0       -4.076101    3.718496   -0.359685
     40          1           0       -2.689869    3.174340   -1.304997
     41          1           0       -4.163922    0.439795    3.160119
     42          6           0       -3.463352    0.851676    2.433624
     43          8           0       -1.539194    0.011436    3.537587
     44          6           0       -2.060177    0.636269    2.614038
     45          1           0       -0.264806    1.068608    1.731964
     46          7           0       -1.262251    1.199485    1.638663
     47          8           0       -0.890721    2.382887   -0.263623
     48          6           0       -1.674748    1.922970    0.547811
     49          1           0       -4.952730    1.745118    1.196972
     50          6           0       -3.896234    1.553208    1.379550
     51          6           0       -3.529893    2.854043   -0.706755
     52          7           0       -3.041915    2.087617    0.443118
     53          1           0       -6.872732   -0.639099   -3.636449
     54          1           0       -5.466818    0.188851   -3.633368
     55          1           0       -6.838115    0.907455   -3.116432
     56          1           0       -3.159470   -1.972295    2.648432
     57          1           0       -4.862752   -1.909811    2.577669
     58          7           0       -3.984161   -1.775505    2.118052
     59          6           0       -3.916395   -1.352722    0.853997
     60          6           0       -4.814731   -0.633228   -1.228556
     61          7           0       -3.621008   -0.461759   -1.820215
     62          1           0       -1.628593   -0.654780   -1.380183
     63          6           0       -2.634968   -0.766574   -0.978957
     64          7           0       -2.700792   -1.190189    0.287450
     65          1           0       -8.036202   -0.651273   -0.956561
     66          6           0       -6.961335   -0.731100   -0.791581
     67          7           0       -6.406452   -1.120264    0.330178
     68          6           0       -5.045566   -1.062774    0.066706
     69          6           0       -6.330466    0.046467   -3.150707
     70          7           0       -6.056991   -0.420628   -1.777732
 ---------------------------------------------------------------------

 SCF Done:  E(RwB97XD) =  -2048.74461426     A.U. after   15 cycles

 The electronic state is 1-A.
 Alpha  occ. eigenvalues --  -19.25333 -19.22048 -19.20881 -14.52452 -14.51820
 Alpha  occ. eigenvalues --  -14.49509 -14.48672 -14.47753 -14.47384 -14.47110
 Alpha  occ. eigenvalues --  -14.46894 -14.45316 -14.44488 -14.44338 -14.42444
 Alpha  occ. eigenvalues --  -14.42313 -14.41564 -14.41152 -14.40878 -14.40612
 Alpha  occ. eigenvalues --  -10.44914 -10.41544 -10.39929 -10.39843 -10.38567
 Alpha  occ. eigenvalues --  -10.37910 -10.37270 -10.36820 -10.35993 -10.35632
 Alpha  occ. eigenvalues --  -10.34893 -10.34536 -10.33982 -10.33899 -10.33802
 Alpha  occ. eigenvalues --  -10.33427 -10.33313 -10.32655 -10.31740 -10.31162
 Alpha  occ. eigenvalues --  -10.30313 -10.28626 -10.28566  -1.18898  -1.15194
 Alpha  occ. eigenvalues --   -1.13551  -1.12945  -1.11252  -1.11132  -1.09396
 Alpha  occ. eigenvalues --   -1.08882  -1.08637  -1.05260  -1.04831  -1.02066
 Alpha  occ. eigenvalues --   -1.00901  -1.00585  -1.00006  -0.98936  -0.97210
 Alpha  occ. eigenvalues --   -0.96989  -0.96734  -0.92928  -0.90436  -0.87632
 Alpha  occ. eigenvalues --   -0.85878  -0.84725  -0.83936  -0.83209  -0.82971
 Alpha  occ. eigenvalues --   -0.82388  -0.78316  -0.76996  -0.75102  -0.74880
 Alpha  occ. eigenvalues --   -0.73938  -0.72954  -0.72879  -0.71157  -0.70343
 Alpha  occ. eigenvalues --   -0.67746  -0.66795  -0.66373  -0.66026  -0.64738
 Alpha  occ. eigenvalues --   -0.64151  -0.63607  -0.62899  -0.62782  -0.62120
 Alpha  occ. eigenvalues --   -0.60539  -0.60503  -0.60174  -0.59491  -0.59028
 Alpha  occ. eigenvalues --   -0.58888  -0.58594  -0.57909  -0.56639  -0.55986
 Alpha  occ. eigenvalues --   -0.55864  -0.55604  -0.55197  -0.54581  -0.54301
 Alpha  occ. eigenvalues --   -0.54070  -0.53627  -0.53609  -0.53291  -0.52951
 Alpha  occ. eigenvalues --   -0.52765  -0.51919  -0.51781  -0.50804  -0.50601
 Alpha  occ. eigenvalues --   -0.50387  -0.50013  -0.49781  -0.49304  -0.48993
 Alpha  occ. eigenvalues --   -0.48937  -0.48618  -0.48455  -0.47520  -0.47398
 Alpha  occ. eigenvalues --   -0.47035  -0.45968  -0.45153  -0.44998  -0.42764
 Alpha  occ. eigenvalues --   -0.41230  -0.40703  -0.39131  -0.37898  -0.37752
 Alpha  occ. eigenvalues --   -0.37541  -0.37483  -0.37083  -0.35708  -0.34727
 Alpha  occ. eigenvalues --   -0.34417  -0.34248  -0.33707  -0.33413  -0.33322
 Alpha  occ. eigenvalues --   -0.33035  -0.32732  -0.32094  -0.31101  -0.31019
 Alpha  occ. eigenvalues --   -0.30558  -0.30002  -0.26595  -0.25225
 Alpha virt. eigenvalues --    0.03363   0.04288   0.06802   0.07837   0.08535
 Alpha virt. eigenvalues --    0.09052   0.09541   0.10459   0.10823   0.12146
 Alpha virt. eigenvalues --    0.13082   0.13449   0.14187   0.14560   0.14696

 Mulliken charges:
               1
     1  N   -0.305111
     2  C    0.187416
     3  C    0.035061
     4  N   -0.236234
     5  C    0.146591
     6  H    0.024565
     7  N   -0.295628
     8  C    0.128882
     9  H    0.009571
    10  N   -0.284746
    11  C    0.241744
    12  C    0.081531
    13  N   -0.052288
    14  H    0.119943
    15  H    0.089857
    16  H    0.026185
    17  H    0.034508
    18  H    0.007572
    19  N   -0.306080
    20  C    0.256195
    21  C    0.182290
    22  N   -0.123136
    23  H    0.118737
    24  H    0.119877
    25  N   -0.311034
    26  C    0.252144
    27  N   -0.145118
    28  H    0.120497
    29  C    0.189107
    30  O   -0.319279
    31  C   -0.013829
    32  N   -0.211425
    33  C    0.103706
    34  H    0.022209
    35  H    0.016020
    36  H    0.033766
    37  H    0.027835
    38  H    0.053218
    39  H    0.054912
    40  H    0.074112
    41  H    0.012082
    42  C   -0.093773
    43  O   -0.282655
    44  C    0.179039
    45  H    0.129916
    46  N   -0.118267
    47  O   -0.352453
    48  C    0.339514
    49  H    0.045675
    50  C    0.159142
    51  C    0.046486
    52  N   -0.274304
    53  H    0.035755
    54  H    0.041825
    55  H    0.028454
    56  H    0.125009
    57  H    0.118296
    58  N   -0.049873
    59  C    0.074135
    60  C    0.232587
    61  N   -0.268690
    62  H    0.034156
    63  C    0.162389
    64  N   -0.302774
    65  H    0.038700
    66  C    0.137208
    67  N   -0.258647
    68  C    0.040955
    69  C    0.178416
    70  N   -0.312446
 Sum of Mulliken charges =  -0.00000

 Dipole moment (field-independent basis, Debye):
    X=             -4.9089    Y=              3.7770    Z=             -7.0221  Tot=              9.3634
 Quadrupole moment (field-independent basis, Debye-Ang):
   XX=           -145.6882   YY=           -234.7195   ZZ=           -249.8349
   XY=            -11.4209   XZ=              0.2071   YZ=            -15.5805

 Normal termination of Gaussian 16 at Thu Jan 18 04:53:01 2018.
