 Gaussian 16, Revision A.03,
 Gaussian 16:  EM64L-G16RevA.03 25-Dec-2016

 ---------------------------------------
 #p wb97xd/cc-pvdz sp scf=(maxcycles=20)
 ---------------------------------------

 ------------------
 Base pair stacking
 ------------------
 Symbolic Z-matrix:
 Charge =  0 Multiplicity = 1

                         Standard orientation:
 ---------------------------------------------------------------------
 Center     Atomic      Atomic             Coordinates (Angstroms)
 Number     Number       Type             X           Y           Z
 ---------------------------------------------------------------------
      1          7           0        5.131262   -0.880810   -1.439986
      2          6           0        6.408444   -0.169665   -1.642630
      3          6           0        2.991541   -1.365462   -1.284937
      4          7           0        3.676781   -2.534872   -0.988865
      5          6           0        4.938461   -2.196074   -1.094132
      6          1           0        5.777832   -2.872164   -0.928872
      7          7           0        1.271720    0.201727   -1.671015
      8          6           0        2.240419    1.090134   -1.915815
      9          1           0        1.898614    2.091856   -2.172694
     10          7           0        3.561746    0.927687   -1.891052
     11          6           0        3.874685   -0.337305   -1.565066
     12          6           0        1.619130   -1.062605   -1.345661
     13          7           0        0.653585   -1.950872   -1.100945
     14          1           0        0.864625   -2.897954   -0.856582
     15          1           0       -0.313102   -1.700079   -1.153498
     16          1           0        6.923723   -0.610070   -2.377972
     17          1           0        6.225667    0.781786   -1.888522
     18          1           0        6.945059   -0.197032   -0.799252
     19          7           0        5.093016    0.754895    1.061479
     20          6           0        3.756479    1.059563    0.967113
     21          6           0        6.198151    1.598860    0.564380
     22          7           0        1.226774    3.215385   -0.040231
     23          1           0        0.228174    3.247017   -0.007882
     24          1           0        1.691590    3.990162   -0.469625
     25          7           0        3.232446    2.172154    0.408920
     26          6           0        1.912629    2.180900    0.469036
     27          7           0        1.161572    1.177823    1.032277
     28          1           0        0.157246    1.268916    1.033709
     29          6           0        1.679495    0.024075    1.612367
     30          8           0        0.913823   -0.820515    2.093162
     31          6           0        3.096205    0.000404    1.555341
     32          7           0        4.000023   -0.950089    2.009847
     33          6           0        5.168973   -0.461017    1.695865
     34          1           0        6.122216   -0.947862    1.904629
     35          1           0        6.724402    1.093562   -0.118654
     36          1           0        5.822093    2.425970    0.148753
     37          1           0        6.795189    1.851233    1.325078
     38          1           0       -4.793758    2.017266    0.150408
     39          1           0       -4.792748    2.585982    1.818104
     40          1           0       -3.359387    2.801506    0.812914
     41          1           0       -4.752702   -2.174811    2.510779
     42          6           0       -4.064210   -1.375072    2.237632
     43          8           0       -2.114793   -2.654717    2.672834
     44          6           0       -2.654388   -1.607645    2.316082
     45          1           0       -0.871486   -0.656977    1.990806
     46          7           0       -1.872994   -0.530854    1.948407
     47          8           0       -1.536454    1.594753    1.223329
     48          6           0       -2.307007    0.701530    1.528396
     49          1           0       -5.580333    0.044033    1.754609
     50          6           0       -4.517953   -0.183506    1.831560
     51          6           0       -4.190090    2.148607    1.036064
     52          7           0       -3.679309    0.848407    1.479148
     53          1           0       -6.190371    2.738593   -2.421918
     54          1           0       -4.886004    3.040093   -1.489276
     55          1           0       -6.349440    2.822960   -0.799881
     56          1           0       -2.628970   -3.595969   -0.920141
     57          1           0       -4.324047   -3.507527   -1.090442
     58          7           0       -3.446542   -3.030536   -1.029750
     59          6           0       -3.371077   -1.699535   -1.092285
     60          6           0       -4.252131    0.501554   -1.293991
     61          7           0       -3.060105    1.115067   -1.209725
     62          1           0       -1.079561    0.635284   -0.990973
     63          6           0       -2.083883    0.220842   -1.067351
     64          7           0       -2.157429   -1.112656   -1.004495
     65          1           0       -7.460632    0.241314   -1.593884
     66          6           0       -6.391707    0.058756   -1.479827
     67          7           0       -5.846471   -1.127433   -1.364239
     68          6           0       -4.490118   -0.860996   -1.245687
     69          6           0       -5.748768    2.538702   -1.547258
     70          7           0       -5.485244    1.090188   -1.445419
 ---------------------------------------------------------------------

 SCF Done:  E(RwB97XD) =  -2048.68039534     A.U. after   15 cycles

 The electronic state is 1-A.
 Alpha  occ. eigenvalues --  -19.24998 -19.21279 -19.20541 -14.52906 -14.51510
 Alpha  occ. eigenvalues --  -14.49356 -14.49038 -14.48220 -14.47055 -14.46519
 Alpha  occ. eigenvalues --  -14.46375 -14.45564 -14.44532 -14.44318 -14.43129
 Alpha  occ. eigenvalues --  -14.41735 -14.41513 -14.41215 -14.41207 -14.41092
 Alpha  occ. eigenvalues --  -10.44614 -10.40716 -10.40108 -10.39365 -10.38170
 Alpha  occ. eigenvalues --  -10.38112 -10.37356 -10.37003 -10.36145 -10.36032
 Alpha  occ. eigenvalues --  -10.34643 -10.34521 -10.34281 -10.33876 -10.33682
 Alpha  occ. eigenvalues --  -10.33615 -10.33605 -10.32781 -10.31966 -10.30627
 Alpha  occ. eigenvalues --  -10.30215 -10.28971 -10.28198  -1.18773  -1.15703
 Alpha  occ. eigenvalues --   -1.13219  -1.12294  -1.11940  -1.10707  -1.09527
 Alpha  occ. eigenvalues --   -1.08586  -1.08457  -1.05815  -1.05028  -1.01782
 Alpha  occ. eigenvalues --   -1.01433  -1.01213  -0.99605  -0.98450  -0.97818
 Alpha  occ. eigenvalues --   -0.97116  -0.96639  -0.93501  -0.90207  -0.88026
 Alpha  occ. eigenvalues --   -0.86640  -0.85633  -0.83854  -0.83805  -0.82785
 Alpha  occ. eigenvalues --   -0.82131  -0.78122  -0.77314  -0.75189  -0.74721
 Alpha  occ. eigenvalues --   -0.73816  -0.73369  -0.72625  -0.71748  -0.70722
 Alpha  occ. eigenvalues --   -0.67631  -0.67131  -0.66921  -0.65917  -0.64635
 Alpha  occ. eigenvalues --   -0.64517  -0.63659  -0.63399  -0.62517  -0.62315
 Alpha  occ. eigenvalues --   -0.61722  -0.61490  -0.60814  -0.60287  -0.59823
 Alpha  occ. eigenvalues --   -0.58991  -0.58634  -0.58263  -0.57469  -0.56530
 Alpha  occ. eigenvalues --   -0.55996  -0.55667  -0.55447  -0.54246  -0.54083
 Alpha  occ. eigenvalues --   -0.53988  -0.53870  -0.53307  -0.53157  -0.52828
 Alpha  occ. eigenvalues --   -0.52381  -0.52275  -0.51472  -0.51165  -0.50615
 Alpha  occ. eigenvalues --   -0.50352  -0.49805  -0.49617  -0.49062  -0.48890
 Alpha  occ. eigenvalues --   -0.48528  -0.48058  -0.48008  -0.47912  -0.47726
 Alpha  occ. eigenvalues --   -0.46982  -0.46287  -0.44517  -0.44271  -0.42934
 Alpha  occ. eigenvalues --   -0.41340  -0.40880  -0.38805  -0.38039  -0.37814
 Alpha  occ. eigenvalues --   -0.37697  -0.37074  -0.36478  -0.35889  -0.34986
 Alpha  occ. eigenvalues --   -0.34846  -0.34607  -0.34025  -0.33735  -0.32823
 Alpha  occ. eigenvalues --   -0.32382  -0.32262  -0.31847  -0.31323  -0.31145
 Alpha  occ. eigenvalues --   -0.30253  -0.29875  -0.27559  -0.23994
 Alpha virt. eigenvalues --    0.02961   0.04526   0.06109   0.06348   0.07624
 Alpha virt. eigenvalues --    0.09609   0.10221   0.10375   0.11795   0.12277
 Alpha virt. eigenvalues --    0.12611   0.13546   0.14104   0.14727   0.15036

 Mulliken charges:
               1
     1  N   -0.300427
     2  C    0.212059
     3  C    0.078548
     4  N   -0.243900
     5  C    0.129801
     6  H    0.024372
     7  N   -0.277779
     8  C    0.137623
     9  H   -0.002881
    10  N   -0.253465
    11  C    0.205177
    12  C    0.058377
    13  N   -0.043867
    14  H    0.111667
    15  H    0.085217
    16  H    0.023362
    17  H    0.029544
    18  H    0.014365
    19  N   -0.288249
    20  C    0.214966
    21  C    0.189910
    22  N   -0.097512
    23  H    0.119134
    24  H    0.120335
    25  N   -0.251410
    26  C    0.150883
    27  N   -0.101773
    28  H    0.119121
    29  C    0.159977
    30  O   -0.320444
    31  C    0.015886
    32  N   -0.211301
    33  C    0.106963
    34  H    0.020358
    35  H   -0.019742
    36  H    0.037528
    37  H    0.019849
    38  H   -0.006878
    39  H    0.048052
    40  H    0.082081
    41  H    0.023578
    42  C   -0.100960
    43  O   -0.269959
    44  C    0.168766
    45  H    0.128231
    46  N   -0.105068
    47  O   -0.342891
    48  C    0.312849
    49  H    0.043444
    50  C    0.163900
    51  C    0.076505
    52  N   -0.269339
    53  H    0.029421
    54  H    0.042984
    55  H    0.028099
    56  H    0.123906
    57  H    0.120602
    58  N   -0.057941
    59  C    0.110088
    60  C    0.207911
    61  N   -0.271390
    62  H    0.010848
    63  C    0.178455
    64  N   -0.301559
    65  H    0.037893
    66  C    0.128178
    67  N   -0.251152
    68  C    0.049788
    69  C    0.207107
    70  N   -0.317818
 Sum of Mulliken charges =  -0.00000

 Dipole moment (field-independent basis, Debye):
    X=             -4.8081    Y=              6.6787    Z=             -4.5576  Tot=              9.4072
 Quadrupole moment (field-independent basis, Debye-Ang):
   XX=           -146.5677   YY=           -228.1494   ZZ=           -263.3398
   XY=            -10.5419   XZ=             -2.5773   YZ=             11.6194

 Normal termination of Gaussian 16 at Thu Jan 18 02:48:56 2018.
