 Gaussian 16, Revision A.03,
 Gaussian 16:  EM64L-G16RevA.03 25-Dec-2016

 ---------------------------------------
 #p wb97xd/cc-pvdz sp scf=(maxcycles=20)
 ---------------------------------------

 ------------------
 Base pair stacking
 ------------------
 Symbolic Z-matrix:
 Charge =  0 Multiplicity = 1

                         Standard orientation:
 ---------------------------------------------------------------------
 Center     Atomic      Atomic             Coordinates (Angstroms)
 Number     Number       Type             X           Y           Z
 ---------------------------------------------------------------------
      1          7           0       -6.017993   -1.392570    0.483041
      2          6           0       -7.293309   -0.998232    1.112389
      3          6           0       -3.880603   -1.711589    0.074276
      4          7           0       -4.566636   -2.249739   -1.004839
      5          6           0       -5.826877   -2.035994   -0.715375
      6          1           0       -6.666351   -2.329568   -1.346291
      7          7           0       -2.160366   -1.022127    1.533170
      8          6           0       -3.127232   -0.554320    2.329344
      9          1           0       -2.784545   -0.083638    3.249821
     10          7           0       -4.447662   -0.580512    2.159981
     11          6           0       -4.761827   -1.179619    0.999462
     12          6           0       -2.508962   -1.619540    0.372719
     13          7           0       -1.545244   -2.087157   -0.423371
     14          1           0       -1.757213   -2.536619   -1.291868
     15          1           0       -0.579059   -2.004215   -0.178939
     16          1           0       -7.853571   -1.811265    1.271324
     17          1           0       -7.109569   -0.545548    1.984417
     18          1           0       -7.784599   -0.369651    0.509464
     19          7           0       -4.174722    1.872349   -0.753103
     20          6           0       -2.836767    2.005332   -0.469824
     21          6           0       -5.271237    2.551130   -0.033657
     22          7           0       -0.290270    3.393618    1.440605
     23          1           0        0.707642    3.351914    1.481703
     24          1           0       -0.747708    3.981263    2.108545
     25          7           0       -2.303305    2.772265    0.505510
     26          6           0       -0.984693    2.693349    0.531046
     27          7           0       -0.243327    1.922911   -0.331684
     28          1           0        0.760825    1.923636   -0.238771
     29          6           0       -0.771059    1.125962   -1.342748
     30          8           0       -0.013684    0.468651   -2.067355
     31          6           0       -2.186598    1.200386   -1.382591
     32          7           0       -3.098029    0.574647   -2.222015
     33          6           0       -4.261466    1.002120   -1.812275
     34          1           0       -5.218128    0.713264   -2.248888
     35          1           0       -5.881079    1.868873    0.368120
     36          1           0       -4.888161    3.122138    0.691233
     37          1           0       -5.785855    3.123868   -0.670793
     38          1           0        5.650421    1.862302    1.154361
     39          1           0        5.824134    3.023197   -0.159723
     40          1           0        4.323190    2.956753    0.764476
     41          1           0        5.585968   -1.090156   -2.643716
     42          6           0        4.920841   -0.401179   -2.122984
     43          8           0        2.949750   -1.250130   -3.133526
     44          6           0        3.512521   -0.467789   -2.368005
     45          1           0        1.762371    0.431313   -1.805069
     46          7           0        2.761850    0.447758   -1.658424
     47          8           0        2.479731    2.154886   -0.187604
     48          6           0        3.224179    1.385252   -0.769098
     49          1           0        6.464338    0.593930   -1.039855
     50          6           0        5.401790    0.502434   -1.261140
     51          6           0        5.133424    2.371981    0.354978
     52          7           0        4.593045    1.387283   -0.586355
     53          1           0        5.288521   -0.229958    4.096158
     54          1           0        4.040347    0.724358    3.656340
     55          1           0        5.534982    1.012610    3.067225
     56          1           0        1.717141   -3.227500   -1.676661
     57          1           0        3.401876   -3.376838   -1.454306
     58          7           0        2.536132   -2.966642   -1.165448
     59          6           0        2.477505   -2.109932   -0.143783
     60          6           0        3.379610   -0.815216    1.637126
     61          7           0        2.203138   -0.279923    2.002897
     62          1           0        0.230048   -0.345152    1.452206
     63          6           0        1.222527   -0.730910    1.223203
     64          7           0        1.279223   -1.588968    0.199447
     65          1           0        6.563316   -1.370212    1.727544
     66          6           0        5.499353   -1.356776    1.489351
     67          7           0        4.943234   -2.045963    0.523204
     68          6           0        3.599288   -1.711745    0.605852
     69          6           0        4.891156    0.300404    3.347287
     70          7           0        4.611638   -0.590003    2.204026
 ---------------------------------------------------------------------

 SCF Done:  E(RwB97XD) =  -2048.74699177     A.U. after   15 cycles

 The electronic state is 1-A.
 Alpha  occ. eigenvalues --  -19.25575 -19.21809 -19.20697 -14.52349 -14.51778
 Alpha  occ. eigenvalues --  -14.49476 -14.48768 -14.47571 -14.46934 -14.46645
 Alpha  occ. eigenvalues --  -14.46304 -14.44583 -14.43380 -14.43146 -14.42562
 Alpha  occ. eigenvalues --  -14.41973 -14.41959 -14.41441 -14.40781 -14.40704
 Alpha  occ. eigenvalues --  -10.45251 -10.41207 -10.39819 -10.38630 -10.38280
 Alpha  occ. eigenvalues --  -10.37292 -10.37163 -10.36385 -10.35913 -10.35541
 Alpha  occ. eigenvalues --  -10.34958 -10.34667 -10.34319 -10.33985 -10.33666
 Alpha  occ. eigenvalues --  -10.33581 -10.33277 -10.31793 -10.31681 -10.30853
 Alpha  occ. eigenvalues --  -10.30534 -10.29080 -10.28092  -1.19210  -1.14436
 Alpha  occ. eigenvalues --   -1.13213  -1.12940  -1.12006  -1.10577  -1.09161
 Alpha  occ. eigenvalues --   -1.08571  -1.08068  -1.05520  -1.03575  -1.02346
 Alpha  occ. eigenvalues --   -1.00905  -1.00118  -0.99726  -0.98510  -0.97564
 Alpha  occ. eigenvalues --   -0.96545  -0.95714  -0.93146  -0.90662  -0.86867
 Alpha  occ. eigenvalues --   -0.85329  -0.84585  -0.84070  -0.83710  -0.82974
 Alpha  occ. eigenvalues --   -0.82464  -0.78610  -0.76056  -0.74601  -0.73871
 Alpha  occ. eigenvalues --   -0.73593  -0.73451  -0.73151  -0.71583  -0.69406
 Alpha  occ. eigenvalues --   -0.67351  -0.66842  -0.66315  -0.65741  -0.64345
 Alpha  occ. eigenvalues --   -0.63712  -0.63349  -0.63077  -0.62597  -0.61715
 Alpha  occ. eigenvalues --   -0.61066  -0.60734  -0.59578  -0.59245  -0.58590
 Alpha  occ. eigenvalues --   -0.58350  -0.58076  -0.57610  -0.57051  -0.56283
 Alpha  occ. eigenvalues --   -0.55835  -0.55780  -0.55212  -0.54600  -0.54230
 Alpha  occ. eigenvalues --   -0.53645  -0.53546  -0.52910  -0.52896  -0.52470
 Alpha  occ. eigenvalues --   -0.52372  -0.51997  -0.51862  -0.51399  -0.50775
 Alpha  occ. eigenvalues --   -0.50172  -0.49721  -0.49535  -0.49242  -0.49002
 Alpha  occ. eigenvalues --   -0.48761  -0.48339  -0.47944  -0.47577  -0.47446
 Alpha  occ. eigenvalues --   -0.47389  -0.45902  -0.45370  -0.43330  -0.42944
 Alpha  occ. eigenvalues --   -0.41655  -0.39858  -0.39236  -0.37657  -0.37389
 Alpha  occ. eigenvalues --   -0.37204  -0.37139  -0.36650  -0.35912  -0.34322
 Alpha  occ. eigenvalues --   -0.34171  -0.33879  -0.33748  -0.33352  -0.33142
 Alpha  occ. eigenvalues --   -0.32667  -0.32351  -0.31883  -0.31477  -0.31045
 Alpha  occ. eigenvalues --   -0.30871  -0.28466  -0.26321  -0.25405
 Alpha virt. eigenvalues --    0.03198   0.04811   0.07368   0.07581   0.08948
 Alpha virt. eigenvalues --    0.09281   0.09807   0.10514   0.10963   0.12009
 Alpha virt. eigenvalues --    0.13337   0.13698   0.13873   0.14622   0.14815

 Mulliken charges:
               1
     1  N   -0.309566
     2  C    0.178143
     3  C    0.044959
     4  N   -0.240775
     5  C    0.117019
     6  H    0.026450
     7  N   -0.288310
     8  C    0.139061
     9  H    0.013478
    10  N   -0.290076
    11  C    0.234951
    12  C    0.088886
    13  N   -0.039696
    14  H    0.112932
    15  H    0.092637
    16  H    0.029926
    17  H    0.035868
    18  H    0.022525
    19  N   -0.301517
    20  C    0.255005
    21  C    0.185618
    22  N   -0.122163
    23  H    0.117019
    24  H    0.118486
    25  N   -0.308321
    26  C    0.242218
    27  N   -0.146455
    28  H    0.121432
    29  C    0.183921
    30  O   -0.326438
    31  C   -0.023142
    32  N   -0.219136
    33  C    0.130366
    34  H    0.021320
    35  H    0.017683
    36  H    0.031461
    37  H    0.022416
    38  H    0.038797
    39  H    0.062833
    40  H    0.077357
    41  H    0.022210
    42  C   -0.064558
    43  O   -0.276719
    44  C    0.148927
    45  H    0.135286
    46  N   -0.118305
    47  O   -0.345337
    48  C    0.341625
    49  H    0.040308
    50  C    0.165227
    51  C    0.045693
    52  N   -0.279551
    53  H    0.034351
    54  H    0.042168
    55  H    0.013027
    56  H    0.122124
    57  H    0.115833
    58  N   -0.022120
    59  C    0.086634
    60  C    0.231989
    61  N   -0.268315
    62  H    0.029987
    63  C    0.155600
    64  N   -0.300560
    65  H    0.030256
    66  C    0.112595
    67  N   -0.244435
    68  C    0.018536
    69  C    0.181670
    70  N   -0.301321
 Sum of Mulliken charges =  -0.00000

 Dipole moment (field-independent basis, Debye):
    X=              4.6814    Y=              4.4762    Z=              5.7991  Tot=              8.6938
 Quadrupole moment (field-independent basis, Debye-Ang):
   XX=           -144.9898   YY=           -227.9661   ZZ=           -255.8878
   XY=              7.6329   XZ=             15.3840   YZ=             10.3908

 Normal termination of Gaussian 16 at Wed Jan 17 21:36:36 2018.
