 Gaussian 16, Revision A.03,
 Gaussian 16:  EM64L-G16RevA.03 25-Dec-2016

 ---------------------------------------
 #p wb97xd/cc-pvdz sp scf=(maxcycles=20)
 ---------------------------------------

 ------------------
 Base pair stacking
 ------------------
 Symbolic Z-matrix:
 Charge =  0 Multiplicity = 1

                         Standard orientation:
 ---------------------------------------------------------------------
 Center     Atomic      Atomic             Coordinates (Angstroms)
 Number     Number       Type             X           Y           Z
 ---------------------------------------------------------------------
      1          7           0       -5.106173   -2.136555    0.277277
      2          6           0       -6.364941   -2.171782    1.046884
      3          6           0       -2.982812   -2.020232   -0.284042
      4          7           0       -3.690052   -2.164890   -1.468785
      5          6           0       -4.941004   -2.229180   -1.083186
      6          1           0       -5.791776   -2.345045   -1.755279
      7          7           0       -1.235885   -1.768072    1.280438
      8          6           0       -2.183422   -1.766486    2.223699
      9          1           0       -1.822035   -1.660397    3.245653
     10          7           0       -3.504158   -1.875761    2.094694
     11          6           0       -3.842175   -2.001091    0.800690
     12          6           0       -1.608260   -1.895857   -0.011883
     13          7           0       -0.663865   -1.897659   -0.954899
     14          1           0       -0.893745   -1.989802   -1.924369
     15          1           0        0.305101   -1.807008   -0.724600
     16          1           0       -6.832995   -3.040323    0.883379
     17          1           0       -6.163134   -2.081333    2.021677
     18          1           0       -6.955247   -1.417661    0.759058
     19          7           0       -5.103352    1.652735   -0.098521
     20          6           0       -3.767378    1.842043    0.161079
     21          6           0       -6.210568    2.039964    0.798591
     22          7           0       -1.242414    2.983916    2.254509
     23          1           0       -0.243787    3.028106    2.249639
     24          1           0       -1.709097    3.355094    3.057734
     25          7           0       -3.245881    2.409048    1.270396
     26          6           0       -1.925943    2.451048    1.230420
     27          7           0       -1.172463    1.974765    0.184988
     28          1           0       -0.168243    2.048623    0.240227
     29          6           0       -1.687749    1.387513   -0.966305
     30          8           0       -0.920037    0.990280   -1.851495
     31          6           0       -3.104558    1.335334   -0.937887
     32          7           0       -4.006266    0.837926   -1.868688
     33          6           0       -5.176480    1.047242   -1.329249
     34          1           0       -6.128697    0.778481   -1.787871
     35          1           0       -6.737832    1.228844    1.049349
     36          1           0       -5.836410    2.461097    1.623762
     37          1           0       -6.806150    2.693538    0.332811
     38          1           0        4.779873    2.127633    1.407530
     39          1           0        4.782059    3.572331    0.398829
     40          1           0        3.346154    3.152474    1.333308
     41          1           0        4.748958    0.142406   -2.974758
     42          6           0        4.058942    0.626201   -2.283349
     43          8           0        2.111967   -0.147613   -3.395840
     44          6           0        2.649569    0.485655   -2.487686
     45          1           0        0.864856    1.060846   -1.667757
     46          7           0        1.866114    1.137029   -1.556467
     47          8           0        1.525523    2.422740    0.284226
     48          6           0        2.297779    1.882403   -0.487993
     49          1           0        5.572355    1.484404   -1.050925
     50          6           0        4.510409    1.346873   -1.250200
     51          6           0        4.178097    2.757491    0.769405
     52          7           0        3.669799    1.971112   -0.357972
     53          1           0        6.268357   -1.197294    3.738675
     54          1           0        4.907313   -0.297579    3.751411
     55          1           0        6.322134    0.369511    3.285192
     56          1           0        2.594053   -2.068032   -2.649354
     57          1           0        4.296919   -2.097731   -2.552000
     58          7           0        3.419060   -1.937191   -2.099455
     59          6           0        3.352644   -1.565180   -0.819457
     60          6           0        4.252907   -0.982189    1.304536
     61          7           0        3.060150   -0.773661    1.886165
     62          1           0        1.067859   -0.843490    1.410247
     63          6           0        2.073511   -0.990723    1.018792
     64          7           0        2.137994   -1.363357   -0.263612
     65          1           0        7.473147   -1.157165    1.077377
     66          6           0        6.398409   -1.173638    0.894003
     67          7           0        5.842520   -1.485564   -0.251151
     68          6           0        4.482309   -1.368161   -0.004626
     69          6           0        5.770201   -0.464419    3.275272
     70          7           0        5.495371   -0.858214    1.879779
 ---------------------------------------------------------------------

 SCF Done:  E(RwB97XD) =  -2048.72611298     A.U. after   15 cycles

 The electronic state is 1-A.
 Alpha  occ. eigenvalues --  -19.25651 -19.21998 -19.20891 -14.52211 -14.52086
 Alpha  occ. eigenvalues --  -14.49180 -14.48802 -14.47707 -14.47115 -14.46872
 Alpha  occ. eigenvalues --  -14.46626 -14.44947 -14.43880 -14.43751 -14.42232
 Alpha  occ. eigenvalues --  -14.42172 -14.41155 -14.41050 -14.41038 -14.40436
 Alpha  occ. eigenvalues --  -10.45214 -10.41456 -10.40216 -10.39076 -10.38508
 Alpha  occ. eigenvalues --  -10.37558 -10.37191 -10.36653 -10.35493 -10.35329
 Alpha  occ. eigenvalues --  -10.35121 -10.34648 -10.33882 -10.33688 -10.33666
 Alpha  occ. eigenvalues --  -10.33416 -10.33224 -10.32067 -10.31460 -10.31359
 Alpha  occ. eigenvalues --  -10.30644 -10.28523 -10.28407  -1.19238  -1.14780
 Alpha  occ. eigenvalues --   -1.13468  -1.13417  -1.11330  -1.10926  -1.09135
 Alpha  occ. eigenvalues --   -1.08809  -1.08658  -1.05142  -1.04171  -1.02460
 Alpha  occ. eigenvalues --   -1.00476  -1.00446  -0.99964  -0.98796  -0.97029
 Alpha  occ. eigenvalues --   -0.96830  -0.96277  -0.92788  -0.90788  -0.87156
 Alpha  occ. eigenvalues --   -0.85514  -0.84494  -0.84002  -0.83514  -0.82939
 Alpha  occ. eigenvalues --   -0.82438  -0.78689  -0.76477  -0.74945  -0.74409
 Alpha  occ. eigenvalues --   -0.73864  -0.73181  -0.72946  -0.71108  -0.69775
 Alpha  occ. eigenvalues --   -0.67654  -0.66531  -0.66336  -0.66098  -0.64639
 Alpha  occ. eigenvalues --   -0.63949  -0.63568  -0.62844  -0.62738  -0.62023
 Alpha  occ. eigenvalues --   -0.60618  -0.60356  -0.59922  -0.59248  -0.59054
 Alpha  occ. eigenvalues --   -0.58751  -0.58595  -0.57564  -0.56620  -0.56209
 Alpha  occ. eigenvalues --   -0.55981  -0.55456  -0.55053  -0.54825  -0.54359
 Alpha  occ. eigenvalues --   -0.53937  -0.53885  -0.53297  -0.53181  -0.52775
 Alpha  occ. eigenvalues --   -0.52368  -0.52196  -0.51880  -0.50933  -0.50518
 Alpha  occ. eigenvalues --   -0.50360  -0.49976  -0.49621  -0.49394  -0.49118
 Alpha  occ. eigenvalues --   -0.48889  -0.48679  -0.48090  -0.47580  -0.47158
 Alpha  occ. eigenvalues --   -0.47031  -0.46235  -0.44809  -0.44240  -0.43012
 Alpha  occ. eigenvalues --   -0.41114  -0.40255  -0.39334  -0.37964  -0.37496
 Alpha  occ. eigenvalues --   -0.37493  -0.37019  -0.36940  -0.35731  -0.34665
 Alpha  occ. eigenvalues --   -0.34019  -0.33824  -0.33630  -0.33423  -0.33348
 Alpha  occ. eigenvalues --   -0.32954  -0.32355  -0.31798  -0.31543  -0.30946
 Alpha  occ. eigenvalues --   -0.30439  -0.29110  -0.26699  -0.24792
 Alpha virt. eigenvalues --    0.03035   0.04743   0.06934   0.07365   0.08826
 Alpha virt. eigenvalues --    0.09190   0.09694   0.10860   0.11118   0.11598
 Alpha virt. eigenvalues --    0.12692   0.13511   0.14194   0.14295   0.15183

 Mulliken charges:
               1
     1  N   -0.306736
     2  C    0.180717
     3  C    0.040617
     4  N   -0.231094
     5  C    0.129595
     6  H    0.022409
     7  N   -0.295169
     8  C    0.132860
     9  H    0.010816
    10  N   -0.288288
    11  C    0.242305
    12  C    0.083044
    13  N   -0.041498
    14  H    0.117536
    15  H    0.086565
    16  H    0.026989
    17  H    0.034546
    18  H    0.016079
    19  N   -0.307352
    20  C    0.260789
    21  C    0.181647
    22  N   -0.124749
    23  H    0.117704
    24  H    0.119639
    25  N   -0.311734
    26  C    0.250767
    27  N   -0.147918
    28  H    0.120798
    29  C    0.192309
    30  O   -0.325790
    31  C   -0.019835
    32  N   -0.209036
    33  C    0.115534
    34  H    0.019132
    35  H    0.018384
    36  H    0.032823
    37  H    0.026249
    38  H    0.050225
    39  H    0.058635
    40  H    0.076415
    41  H    0.017525
    42  C   -0.103870
    43  O   -0.291197
    44  C    0.169838
    45  H    0.126963
    46  N   -0.101096
    47  O   -0.351798
    48  C    0.339849
    49  H    0.045206
    50  C    0.182387
    51  C    0.046014
    52  N   -0.279924
    53  H    0.035216
    54  H    0.041668
    55  H    0.025491
    56  H    0.129725
    57  H    0.112776
    58  N   -0.021408
    59  C    0.050227
    60  C    0.232973
    61  N   -0.268746
    62  H    0.029761
    63  C    0.159747
    64  N   -0.295567
    65  H    0.035594
    66  C    0.126179
    67  N   -0.254762
    68  C    0.037609
    69  C    0.177964
    70  N   -0.310277
 Sum of Mulliken charges =  -0.00000

 Dipole moment (field-independent basis, Debye):
    X=              4.7829    Y=              3.9944    Z=              6.6653  Tot=              9.1246
 Quadrupole moment (field-independent basis, Debye-Ang):
   XX=           -146.2705   YY=           -235.2074   ZZ=           -248.4675
   XY=              8.3955   XZ=              7.0468   YZ=             15.6549

 Normal termination of Gaussian 16 at Thu Jan 18 07:49:48 2018.
