 Gaussian 16, Revision A.03,
 Gaussian 16:  EM64L-G16RevA.03 25-Dec-2016

 ---------------------------------------
 #p wb97xd/cc-pvdz sp scf=(maxcycles=20)
 ---------------------------------------

 ------------------
 Base pair stacking
 ------------------
 Symbolic Z-matrix:
 Charge =  0 Multiplicity = 1

                         Standard orientation:
 ---------------------------------------------------------------------
 Center     Atomic      Atomic             Coordinates (Angstroms)
 Number     Number       Type             X           Y           Z
 ---------------------------------------------------------------------
      1          7           0       -5.419827    0.984114   -1.196724
      2          6           0       -6.695347    0.281759   -1.437040
      3          6           0       -3.281322    1.476418   -1.049332
      4          7           0       -3.969165    2.601465   -0.618206
      5          6           0       -5.230006    2.259838   -0.724270
      6          1           0       -6.070860    2.905520   -0.469295
      7          7           0       -1.558042   -0.022710   -1.637442
      8          6           0       -2.524695   -0.893419   -1.945743
      9          1           0       -2.180646   -1.859768   -2.311882
     10          7           0       -3.846310   -0.750302   -1.870032
     11          6           0       -4.162099    0.471308   -1.409205
     12          6           0       -1.908296    1.197875   -1.176408
     13          7           0       -0.944807    2.068400   -0.868108
     14          1           0       -1.157965    2.983257   -0.523387
     15          1           0        0.022397    1.835932   -0.971149
     16          1           0       -7.234580    0.788084   -2.110117
     17          1           0       -6.510432   -0.637623   -1.782977
     18          1           0       -7.208989    0.217089   -0.581479
     19          7           0       -4.805293   -0.944793    1.100424
     20          6           0       -3.469029   -1.222156    0.940655
     21          6           0       -5.915612   -1.747385    0.549293
     22          7           0       -0.947635   -3.234148   -0.346269
     23          1           0        0.051729   -3.256824   -0.343443
     24          1           0       -1.416703   -3.967027   -0.839804
     25          7           0       -2.950005   -2.266089    0.258843
     26          6           0       -1.629016   -2.264917    0.283192
     27          7           0       -0.872317   -1.315014    0.925533
     28          1           0        0.132476   -1.393649    0.891417
     29          6           0       -1.385021   -0.232297    1.633141
     30          8           0       -0.614484    0.568469    2.176999
     31          6           0       -2.802921   -0.220091    1.615917
     32          7           0       -3.702888    0.668487    2.188086
     33          6           0       -4.875319    0.199618    1.856780
     34          1           0       -5.827037    0.651266    2.138775
     35          1           0       -6.465007   -1.181921   -0.064874
     36          1           0       -5.543301   -2.523544    0.042130
     37          1           0       -6.489294   -2.082689    1.295798
     38          1           0        5.064361   -1.988781   -0.192612
     39          1           0        5.114147   -2.723415    1.408164
     40          1           0        3.656003   -2.853361    0.424151
     41          1           0        5.048386    1.941937    2.581510
     42          6           0        4.360220    1.165698    2.246679
     43          8           0        2.411484    2.371033    2.860454
     44          6           0        2.950953    1.372069    2.385219
     45          1           0        1.168824    0.437735    2.011868
     46          7           0        2.169951    0.328675    1.930681
     47          8           0        1.833697   -1.716501    1.002562
     48          6           0        2.603885   -0.849514    1.376488
     49          1           0        5.875854   -0.178764    1.582529
     50          6           0        4.813881    0.026951    1.709970
     51          6           0        4.486316   -2.216426    0.690632
     52          7           0        3.975649   -0.974038    1.276668
     53          1           0        5.904252   -2.380087   -2.837144
     54          1           0        4.628676   -2.790226   -1.906118
     55          1           0        6.108276   -2.626337   -1.236781
     56          1           0        2.325902    3.726312   -0.607178
     57          1           0        4.016449    3.676071   -0.829893
     58          7           0        3.145444    3.184812   -0.794987
     59          6           0        3.080782    1.866170   -0.990360
     60          6           0        3.976594   -0.292361   -1.437538
     61          7           0        2.793112   -0.925621   -1.384833
     62          1           0        0.814859   -0.494438   -1.066724
     63          6           0        1.812797   -0.062286   -1.126893
     64          7           0        1.875526    1.258785   -0.930897
     65          1           0        7.173154    0.035680   -1.793329
     66          6           0        6.106072    0.192819   -1.633390
     67          7           0        5.553085    1.354525   -1.383715
     68          6           0        4.203036    1.061074   -1.257367
     69          6           0        5.484810   -2.275152   -1.935442
     70          7           0        5.210595   -0.847688   -1.680189
 ---------------------------------------------------------------------

 SCF Done:  E(RwB97XD) =  -2048.68608319     A.U. after   15 cycles

 The electronic state is 1-A.
 Alpha  occ. eigenvalues --  -19.24870 -19.21352 -19.20464 -14.52780 -14.51645
 Alpha  occ. eigenvalues --  -14.49449 -14.48831 -14.47952 -14.47166 -14.46563
 Alpha  occ. eigenvalues --  -14.46440 -14.45500 -14.44372 -14.44213 -14.43201
 Alpha  occ. eigenvalues --  -14.41891 -14.41601 -14.41197 -14.41030 -14.40996
 Alpha  occ. eigenvalues --  -10.44591 -10.40798 -10.39881 -10.39446 -10.38141
 Alpha  occ. eigenvalues --  -10.38081 -10.37306 -10.37028 -10.36263 -10.35954
 Alpha  occ. eigenvalues --  -10.34673 -10.34576 -10.34197 -10.33964 -10.33800
 Alpha  occ. eigenvalues --  -10.33610 -10.33537 -10.32627 -10.32150 -10.30458
 Alpha  occ. eigenvalues --  -10.30355 -10.29026 -10.28114  -1.18767  -1.15660
 Alpha  occ. eigenvalues --   -1.13137  -1.12358  -1.12033  -1.10556  -1.09342
 Alpha  occ. eigenvalues --   -1.08613  -1.08436  -1.05851  -1.04833  -1.01911
 Alpha  occ. eigenvalues --   -1.01449  -1.01245  -0.99583  -0.98370  -0.97884
 Alpha  occ. eigenvalues --   -0.96948  -0.96515  -0.93533  -0.90318  -0.88136
 Alpha  occ. eigenvalues --   -0.86796  -0.85372  -0.83880  -0.83696  -0.82865
 Alpha  occ. eigenvalues --   -0.82113  -0.78202  -0.77186  -0.75022  -0.74574
 Alpha  occ. eigenvalues --   -0.73804  -0.73395  -0.72733  -0.71813  -0.70626
 Alpha  occ. eigenvalues --   -0.67493  -0.66995  -0.66971  -0.66193  -0.64520
 Alpha  occ. eigenvalues --   -0.64412  -0.64114  -0.63487  -0.62704  -0.62478
 Alpha  occ. eigenvalues --   -0.61667  -0.61381  -0.60737  -0.60001  -0.59644
 Alpha  occ. eigenvalues --   -0.59120  -0.58477  -0.58226  -0.57446  -0.56593
 Alpha  occ. eigenvalues --   -0.55938  -0.55645  -0.55341  -0.54312  -0.54157
 Alpha  occ. eigenvalues --   -0.54052  -0.53882  -0.53298  -0.53171  -0.52771
 Alpha  occ. eigenvalues --   -0.52299  -0.52067  -0.51491  -0.50871  -0.50708
 Alpha  occ. eigenvalues --   -0.50230  -0.49752  -0.49622  -0.49005  -0.48825
 Alpha  occ. eigenvalues --   -0.48479  -0.48319  -0.48049  -0.47886  -0.47364
 Alpha  occ. eigenvalues --   -0.46976  -0.46132  -0.44893  -0.44238  -0.42734
 Alpha  occ. eigenvalues --   -0.41585  -0.40887  -0.38748  -0.37833  -0.37747
 Alpha  occ. eigenvalues --   -0.37589  -0.36988  -0.36328  -0.36030  -0.35024
 Alpha  occ. eigenvalues --   -0.34792  -0.34564  -0.33926  -0.33621  -0.32776
 Alpha  occ. eigenvalues --   -0.32389  -0.31990  -0.31774  -0.31437  -0.31099
 Alpha  occ. eigenvalues --   -0.30794  -0.29731  -0.27344  -0.24306
 Alpha virt. eigenvalues --    0.03021   0.04514   0.06691   0.06907   0.08323
 Alpha virt. eigenvalues --    0.09279   0.10038   0.10189   0.11117   0.12558
 Alpha virt. eigenvalues --    0.12644   0.13643   0.14079   0.14719   0.14885

 Mulliken charges:
               1
     1  N   -0.307032
     2  C    0.223267
     3  C    0.075913
     4  N   -0.243318
     5  C    0.122941
     6  H    0.024601
     7  N   -0.278085
     8  C    0.138877
     9  H   -0.000409
    10  N   -0.261797
    11  C    0.204916
    12  C    0.068182
    13  N   -0.043849
    14  H    0.111278
    15  H    0.085981
    16  H    0.021075
    17  H    0.032539
    18  H    0.019940
    19  N   -0.282723
    20  C    0.215524
    21  C    0.209581
    22  N   -0.103672
    23  H    0.118203
    24  H    0.118779
    25  N   -0.267116
    26  C    0.181872
    27  N   -0.111448
    28  H    0.115284
    29  C    0.164384
    30  O   -0.321979
    31  C    0.013409
    32  N   -0.213683
    33  C    0.113428
    34  H    0.018119
    35  H   -0.053580
    36  H    0.038324
    37  H    0.022220
    38  H    0.016287
    39  H    0.050109
    40  H    0.081342
    41  H    0.024814
    42  C   -0.095450
    43  O   -0.268862
    44  C    0.165447
    45  H    0.129205
    46  N   -0.106971
    47  O   -0.338555
    48  C    0.321886
    49  H    0.041918
    50  C    0.163432
    51  C    0.051714
    52  N   -0.267970
    53  H    0.024954
    54  H    0.038548
    55  H    0.019691
    56  H    0.123143
    57  H    0.120546
    58  N   -0.057900
    59  C    0.105445
    60  C    0.193947
    61  N   -0.258859
    62  H    0.009468
    63  C    0.169643
    64  N   -0.295477
    65  H    0.036738
    66  C    0.121876
    67  N   -0.248188
    68  C    0.052815
    69  C    0.220335
    70  N   -0.315017
 Sum of Mulliken charges =  -0.00000

 Dipole moment (field-independent basis, Debye):
    X=              4.6816    Y=             -6.1055    Z=             -5.2872  Tot=              9.3354
 Quadrupole moment (field-independent basis, Debye-Ang):
   XX=           -146.6651   YY=           -225.8757   ZZ=           -265.0931
   XY=            -11.9881   XZ=             -2.6913   YZ=             -7.3956

 Normal termination of Gaussian 16 at Thu Jan 18 01:58:37 2018.
