 Gaussian 16, Revision A.03,
 Gaussian 16:  EM64L-G16RevA.03 25-Dec-2016

 ---------------------------------------
 #p wb97xd/cc-pvdz sp scf=(maxcycles=20)
 ---------------------------------------

 ------------------
 Base pair stacking
 ------------------
 Symbolic Z-matrix:
 Charge =  0 Multiplicity = 1

                         Standard orientation:
 ---------------------------------------------------------------------
 Center     Atomic      Atomic             Coordinates (Angstroms)
 Number     Number       Type             X           Y           Z
 ---------------------------------------------------------------------
      1          7           0        6.005971   -1.197044   -0.680315
      2          6           0        7.278834   -0.625316   -1.160882
      3          6           0        3.871027   -1.642267   -0.395518
      4          7           0        4.559378   -2.460461    0.488490
      5          6           0        5.818056   -2.159482    0.281522
      6          1           0        6.658589   -2.613114    0.807520
      7          7           0        2.148178   -0.580841   -1.607187
      8          6           0        3.112388    0.105952   -2.228645
      9          1           0        2.767557    0.817559   -2.977625
     10          7           0        4.432379    0.045975   -2.064579
     11          6           0        4.749304   -0.857854   -1.122734
     12          6           0        2.499531   -1.482686   -0.664677
     13          7           0        1.538479   -2.169234   -0.043217
     14          1           0        1.752531   -2.846937    0.661137
     15          1           0        0.572298   -2.029659   -0.260385
     16          1           0        7.849431   -1.352570   -1.542583
     17          1           0        7.092989    0.056789   -1.867504
     18          1           0        7.760247   -0.191274   -0.399401
     19          7           0        4.191036    1.587708    1.029750
     20          6           0        2.855260    1.766767    0.761994
     21          6           0        5.296190    2.335822    0.397567
     22          7           0        0.327920    3.397057   -0.974803
     23          1           0       -0.670227    3.370561   -1.022191
     24          1           0        0.792994    4.055014   -1.567678
     25          7           0        2.332110    2.649115   -0.116534
     26          6           0        1.012866    2.587062   -0.153428
     27          7           0        0.261540    1.727388    0.610769
     28          1           0       -0.742295    1.749219    0.516924
     29          6           0        0.778554    0.811057    1.521206
     30          8           0        0.012724    0.080236    2.161616
     31          6           0        2.194640    0.865992    1.571925
     32          7           0        3.097515    0.136115    2.332854
     33          6           0        4.266239    0.597362    1.978545
     34          1           0        5.218787    0.249229    2.379464
     35          1           0        5.900451    1.699842   -0.081171
     36          1           0        4.920786    2.992484   -0.255231
     37          1           0        5.814589    2.823879    1.098897
     38          1           0       -5.628283    1.902517   -0.881768
     39          1           0       -5.794338    2.901330    0.560263
     40          1           0       -4.291501    2.929676   -0.362805
     41          1           0       -5.603545   -1.479396    2.540027
     42          6           0       -4.930222   -0.740343    2.105660
     43          8           0       -2.970424   -1.722778    3.011815
     44          6           0       -3.523328   -0.849677    2.343401
     45          1           0       -1.762855    0.092096    1.893803
     46          7           0       -2.761703    0.135847    1.748480
     47          8           0       -2.458697    2.002199    0.490653
     48          6           0       -3.212296    1.176663    0.975686
     49          1           0       -6.460818    0.391509    1.145439
     50          6           0       -5.399841    0.263755    1.356098
     51          6           0       -5.108588    2.308718   -0.026792
     52          7           0       -4.580558    1.214092    0.792197
     53          1           0       -5.299894    0.836349   -3.887555
     54          1           0       -4.064949    1.637107   -3.183420
     55          1           0       -5.565174    1.728443   -2.546958
     56          1           0       -1.714700   -3.655388    0.806722
     57          1           0       -3.396672   -3.752124    0.538912
     58          7           0       -2.534824   -3.267249    0.386139
     59          6           0       -2.482611   -2.152672   -0.346082
     60          6           0       -3.393443   -0.410526   -1.686627
     61          7           0       -2.222099    0.219488   -1.874961
     62          1           0       -0.250480    0.019426   -1.352205
     63          6           0       -1.239117   -0.426162   -1.250648
     64          7           0       -1.289386   -1.542629   -0.516785
     65          1           0       -6.569879   -0.949309   -1.955156
     66          6           0       -5.507066   -0.993762   -1.715599
     67          7           0       -4.946385   -1.925540   -0.984088
     68          6           0       -3.606246   -1.567683   -0.957765
     69          6           0       -4.911775    1.133424   -3.015142
     70          7           0       -4.625923   -0.044843   -2.173717
 ---------------------------------------------------------------------

 SCF Done:  E(RwB97XD) =  -2048.74895067     A.U. after   15 cycles

 The electronic state is 1-A.
 Alpha  occ. eigenvalues --  -19.25381 -19.21685 -19.20606 -14.52243 -14.52043
 Alpha  occ. eigenvalues --  -14.49669 -14.48657 -14.47453 -14.46914 -14.46824
 Alpha  occ. eigenvalues --  -14.46548 -14.44852 -14.43669 -14.43514 -14.42832
 Alpha  occ. eigenvalues --  -14.42135 -14.41862 -14.41603 -14.40858 -14.40713
 Alpha  occ. eigenvalues --  -10.45094 -10.41110 -10.39745 -10.39049 -10.38188
 Alpha  occ. eigenvalues --  -10.37446 -10.37303 -10.36650 -10.36121 -10.35375
 Alpha  occ. eigenvalues --  -10.35188 -10.34828 -10.34202 -10.34149 -10.33884
 Alpha  occ. eigenvalues --  -10.33733 -10.33204 -10.32009 -10.31995 -10.30657
 Alpha  occ. eigenvalues --  -10.30507 -10.29242 -10.27995  -1.19081  -1.14726
 Alpha  occ. eigenvalues --   -1.13125  -1.12698  -1.12186  -1.10479  -1.09065
 Alpha  occ. eigenvalues --   -1.08478  -1.08418  -1.05703  -1.03942  -1.02204
 Alpha  occ. eigenvalues --   -1.01118  -1.00449  -0.99622  -0.98411  -0.97765
 Alpha  occ. eigenvalues --   -0.96435  -0.96069  -0.93341  -0.90625  -0.87219
 Alpha  occ. eigenvalues --   -0.85715  -0.84769  -0.83961  -0.83629  -0.83169
 Alpha  occ. eigenvalues --   -0.82318  -0.78534  -0.76380  -0.74523  -0.74166
 Alpha  occ. eigenvalues --   -0.73636  -0.73500  -0.73060  -0.71758  -0.69768
 Alpha  occ. eigenvalues --   -0.67255  -0.67040  -0.66311  -0.66038  -0.64283
 Alpha  occ. eigenvalues --   -0.63717  -0.63606  -0.63350  -0.62506  -0.61922
 Alpha  occ. eigenvalues --   -0.61619  -0.60947  -0.59932  -0.59207  -0.58953
 Alpha  occ. eigenvalues --   -0.58270  -0.58012  -0.57803  -0.57259  -0.56190
 Alpha  occ. eigenvalues --   -0.55971  -0.55646  -0.55354  -0.54864  -0.54121
 Alpha  occ. eigenvalues --   -0.53701  -0.53459  -0.53125  -0.52786  -0.52591
 Alpha  occ. eigenvalues --   -0.52480  -0.52229  -0.51499  -0.51374  -0.50953
 Alpha  occ. eigenvalues --   -0.49995  -0.49902  -0.49301  -0.49228  -0.49148
 Alpha  occ. eigenvalues --   -0.48600  -0.48395  -0.48138  -0.47690  -0.47354
 Alpha  occ. eigenvalues --   -0.47265  -0.45936  -0.45456  -0.43761  -0.42843
 Alpha  occ. eigenvalues --   -0.41840  -0.40109  -0.39099  -0.37821  -0.37404
 Alpha  occ. eigenvalues --   -0.37098  -0.37048  -0.36915  -0.35936  -0.34431
 Alpha  occ. eigenvalues --   -0.34330  -0.34092  -0.33792  -0.33599  -0.32958
 Alpha  occ. eigenvalues --   -0.32545  -0.32315  -0.31768  -0.31549  -0.31219
 Alpha  occ. eigenvalues --   -0.31074  -0.28957  -0.26528  -0.25332
 Alpha virt. eigenvalues --    0.03253   0.04735   0.07190   0.07307   0.09004
 Alpha virt. eigenvalues --    0.09188   0.09818   0.10386   0.10911   0.12274
 Alpha virt. eigenvalues --    0.13311   0.13588   0.14004   0.14683   0.14877

 Mulliken charges:
               1
     1  N   -0.308613
     2  C    0.177571
     3  C    0.052959
     4  N   -0.242536
     5  C    0.118813
     6  H    0.027276
     7  N   -0.284186
     8  C    0.139283
     9  H    0.012368
    10  N   -0.286271
    11  C    0.227528
    12  C    0.084195
    13  N   -0.040595
    14  H    0.111892
    15  H    0.091169
    16  H    0.030968
    17  H    0.038303
    18  H    0.024219
    19  N   -0.293663
    20  C    0.246275
    21  C    0.193308
    22  N   -0.118428
    23  H    0.117029
    24  H    0.117662
    25  N   -0.303757
    26  C    0.232697
    27  N   -0.143139
    28  H    0.122112
    29  C    0.178903
    30  O   -0.324610
    31  C   -0.017017
    32  N   -0.218101
    33  C    0.126831
    34  H    0.020243
    35  H    0.002015
    36  H    0.032507
    37  H    0.021809
    38  H    0.037189
    39  H    0.062260
    40  H    0.076692
    41  H    0.024220
    42  C   -0.075642
    43  O   -0.272713
    44  C    0.158491
    45  H    0.134082
    46  N   -0.119433
    47  O   -0.340536
    48  C    0.335201
    49  H    0.040442
    50  C    0.163403
    51  C    0.044741
    52  N   -0.276734
    53  H    0.034824
    54  H    0.042637
    55  H    0.009552
    56  H    0.122294
    57  H    0.118592
    58  N   -0.040315
    59  C    0.101763
    60  C    0.219028
    61  N   -0.259839
    62  H    0.032898
    63  C    0.149829
    64  N   -0.299739
    65  H    0.031837
    66  C    0.113083
    67  N   -0.243365
    68  C    0.025386
    69  C    0.182543
    70  N   -0.299688
 Sum of Mulliken charges =  -0.00000

 Dipole moment (field-independent basis, Debye):
    X=             -4.5533    Y=              4.9352    Z=             -5.6643  Tot=              8.7848
 Quadrupole moment (field-independent basis, Debye-Ang):
   XX=           -145.4124   YY=           -224.8324   ZZ=           -261.0782
   XY=            -11.0107   XZ=             13.7071   YZ=             -4.5083

 Normal termination of Gaussian 16 at Wed Jan 17 18:42:05 2018.
