 Gaussian 16, Revision A.03,
 Gaussian 16:  EM64L-G16RevA.03 25-Dec-2016

 ---------------------------------------
 #p wb97xd/cc-pvdz sp scf=(maxcycles=20)
 ---------------------------------------

 ------------------
 Base pair stacking
 ------------------
 Symbolic Z-matrix:
 Charge =  0 Multiplicity = 1

                         Standard orientation:
 ---------------------------------------------------------------------
 Center     Atomic      Atomic             Coordinates (Angstroms)
 Number     Number       Type             X           Y           Z
 ---------------------------------------------------------------------
      1          7           0        5.992137   -1.003267   -0.793072
      2          6           0        7.260953   -0.314158   -1.098417
      3          6           0        3.860949   -1.527943   -0.651426
      4          7           0        4.553756   -2.540329   -0.003504
      5          6           0        5.809993   -2.183719   -0.114771
      6          1           0        6.652753   -2.749801    0.283020
      7          7           0        2.132762   -0.205932   -1.561714
      8          6           0        3.092404    0.627767   -1.975972
      9          1           0        2.743571    1.505613   -2.518156
     10          7           0        4.412060    0.540296   -1.821783
     11          6           0        4.734135   -0.573419   -1.143319
     12          6           0        2.489235   -1.317557   -0.881781
     13          7           0        1.532747   -2.150989   -0.467432
     14          1           0        1.750678   -2.985819    0.039312
     15          1           0        0.566258   -1.969416   -0.649287
     16          1           0        7.842163   -0.912164   -1.650481
     17          1           0        7.071192    0.525790   -1.605959
     18          1           0        7.732929   -0.087383   -0.246467
     19          7           0        4.207911    1.308843    1.188423
     20          6           0        2.873721    1.523029    0.939181
     21          6           0        5.319582    2.100420    0.624242
     22          7           0        0.360681    3.324281   -0.642550
     23          1           0       -0.637677    3.311065   -0.691019
     24          1           0        0.831502    4.028287   -1.174922
     25          7           0        2.358303    2.484857    0.143388
     26          6           0        1.038542    2.438167    0.102580
     27          7           0        0.279712    1.520544    0.787899
     28          1           0       -0.723903    1.559658    0.697496
     29          6           0        0.788710    0.522092    1.612446
     30          8           0        0.016510   -0.256040    2.185988
     31          6           0        2.205253    0.559580    1.666302
     32          7           0        3.101727   -0.243299    2.358126
     33          6           0        4.274464    0.237207    2.045058
     34          1           0        5.223940   -0.153818    2.412293
     35          1           0        5.917939    1.504266    0.090041
     36          1           0        4.949936    2.816006    0.033005
     37          1           0        5.842580    2.519328    1.365731
     38          1           0       -5.608733    1.880843   -0.676561
     39          1           0       -5.765331    2.748544    0.848951
     40          1           0       -4.262584    2.845623   -0.069565
     41          1           0       -5.613498   -1.792793    2.430037
     42          6           0       -4.933666   -1.024015    2.062558
     43          8           0       -2.982535   -2.100860    2.875338
     44          6           0       -3.527735   -1.166717    2.288042
     45          1           0       -1.758975   -0.204423    1.922259
     46          7           0       -2.757426   -0.138938    1.782523
     47          8           0       -2.437965    1.829338    0.695780
     48          6           0       -3.198838    0.970633    1.106098
     49          1           0       -6.454259    0.202619    1.208762
     50          6           0       -5.394425    0.047088    1.406019
     51          6           0       -5.085134    2.204517    0.210649
     52          7           0       -4.566764    1.036538    0.928193
     53          1           0       -5.318240    1.680297   -3.460928
     54          1           0       -4.096760    2.283505   -2.563017
     55          1           0       -5.601540    2.192235   -1.937410
     56          1           0       -1.707652   -3.838334   -0.058871
     57          1           0       -3.386827   -3.878911   -0.356917
     58          7           0       -2.529845   -3.362589   -0.371638
     59          6           0       -2.486477   -2.095974   -0.789932
     60          6           0       -3.409928   -0.075169   -1.641576
     61          7           0       -2.244966    0.593575   -1.650434
     62          1           0       -0.274155    0.284315   -1.180492
     63          6           0       -1.258079   -0.182039   -1.206160
     64          7           0       -1.299499   -1.450879   -0.786749
     65          1           0       -6.578279   -0.557148   -2.067470
     66          6           0       -5.516403   -0.651690   -1.838529
     67          7           0       -4.949059   -1.735552   -1.368377
     68          6           0       -3.613362   -1.383601   -1.238903
     69          6           0       -4.938583    1.745150   -2.538071
     70          7           0       -4.643802    0.392070   -2.027892
 ---------------------------------------------------------------------

 SCF Done:  E(RwB97XD) =  -2048.71759590     A.U. after   15 cycles

 The electronic state is 1-A.
 Alpha  occ. eigenvalues --  -19.25118 -19.21537 -19.20592 -14.52299 -14.52066
 Alpha  occ. eigenvalues --  -14.49835 -14.48545 -14.47344 -14.47336 -14.46766
 Alpha  occ. eigenvalues --  -14.46565 -14.45152 -14.43881 -14.43820 -14.43059
 Alpha  occ. eigenvalues --  -14.42276 -14.41775 -14.41597 -14.40869 -14.40668
 Alpha  occ. eigenvalues --  -10.44858 -10.41074 -10.39625 -10.39352 -10.38162
 Alpha  occ. eigenvalues --  -10.37761 -10.37265 -10.36902 -10.36277 -10.35314
 Alpha  occ. eigenvalues --  -10.34939 -10.34777 -10.34246 -10.34096 -10.33926
 Alpha  occ. eigenvalues --  -10.33791 -10.33145 -10.32324 -10.32205 -10.30466
 Alpha  occ. eigenvalues --  -10.30343 -10.29328 -10.27947  -1.18963  -1.15065
 Alpha  occ. eigenvalues --   -1.13120  -1.12536  -1.12337  -1.10420  -1.09027
 Alpha  occ. eigenvalues --   -1.08652  -1.08449  -1.05830  -1.04270  -1.02099
 Alpha  occ. eigenvalues --   -1.01296  -1.00857  -0.99611  -0.98383  -0.97948
 Alpha  occ. eigenvalues --   -0.96404  -0.96350  -0.93471  -0.90607  -0.87840
 Alpha  occ. eigenvalues --   -0.86336  -0.84941  -0.83888  -0.83386  -0.83332
 Alpha  occ. eigenvalues --   -0.82156  -0.78447  -0.76703  -0.74628  -0.74348
 Alpha  occ. eigenvalues --   -0.73782  -0.73485  -0.73036  -0.71888  -0.70154
 Alpha  occ. eigenvalues --   -0.67256  -0.67182  -0.66730  -0.66113  -0.64633
 Alpha  occ. eigenvalues --   -0.63996  -0.63847  -0.63550  -0.62832  -0.62478
 Alpha  occ. eigenvalues --   -0.61597  -0.61141  -0.60298  -0.59328  -0.59187
 Alpha  occ. eigenvalues --   -0.58627  -0.58214  -0.57861  -0.57432  -0.56387
 Alpha  occ. eigenvalues --   -0.55915  -0.55650  -0.55369  -0.54947  -0.54097
 Alpha  occ. eigenvalues --   -0.53901  -0.53435  -0.53324  -0.52813  -0.52747
 Alpha  occ. eigenvalues --   -0.52568  -0.52087  -0.51459  -0.51090  -0.50224
 Alpha  occ. eigenvalues --   -0.50035  -0.49827  -0.49433  -0.49229  -0.49067
 Alpha  occ. eigenvalues --   -0.48572  -0.48436  -0.48071  -0.47880  -0.47190
 Alpha  occ. eigenvalues --   -0.47093  -0.46007  -0.45531  -0.43770  -0.42439
 Alpha  occ. eigenvalues --   -0.41949  -0.40370  -0.38989  -0.37953  -0.37644
 Alpha  occ. eigenvalues --   -0.37251  -0.37044  -0.36913  -0.35950  -0.34667
 Alpha  occ. eigenvalues --   -0.34376  -0.34269  -0.33809  -0.33649  -0.32848
 Alpha  occ. eigenvalues --   -0.32475  -0.32442  -0.31722  -0.31328  -0.31225
 Alpha  occ. eigenvalues --   -0.31186  -0.29052  -0.26701  -0.25305
 Alpha virt. eigenvalues --    0.03243   0.04625   0.06947   0.07094   0.09045
 Alpha virt. eigenvalues --    0.09108   0.09613   0.10420   0.10846   0.12397
 Alpha virt. eigenvalues --    0.13286   0.13398   0.14286   0.14450   0.14866

 Mulliken charges:
               1
     1  N   -0.308702
     2  C    0.182910
     3  C    0.062748
     4  N   -0.244526
     5  C    0.120117
     6  H    0.027697
     7  N   -0.279827
     8  C    0.144298
     9  H    0.009305
    10  N   -0.283958
    11  C    0.219219
    12  C    0.076785
    13  N   -0.041784
    14  H    0.110614
    15  H    0.089806
    16  H    0.029637
    17  H    0.044285
    18  H    0.024699
    19  N   -0.285882
    20  C    0.227472
    21  C    0.214044
    22  N   -0.111605
    23  H    0.116740
    24  H    0.116989
    25  N   -0.297202
    26  C    0.222175
    27  N   -0.140309
    28  H    0.122330
    29  C    0.174915
    30  O   -0.322856
    31  C   -0.005513
    32  N   -0.217286
    33  C    0.124042
    34  H    0.019089
    35  H   -0.028935
    36  H    0.033404
    37  H    0.020763
    38  H    0.047681
    39  H    0.056528
    40  H    0.072057
    41  H    0.025587
    42  C   -0.084689
    43  O   -0.269638
    44  C    0.165150
    45  H    0.132742
    46  N   -0.119415
    47  O   -0.333205
    48  C    0.326496
    49  H    0.040237
    50  C    0.162833
    51  C    0.040493
    52  N   -0.273298
    53  H    0.030205
    54  H    0.041837
    55  H    0.006707
    56  H    0.122147
    57  H    0.120298
    58  N   -0.053688
    59  C    0.113910
    60  C    0.206172
    61  N   -0.250587
    62  H    0.036314
    63  C    0.143350
    64  N   -0.299823
    65  H    0.033689
    66  C    0.114896
    67  N   -0.242432
    68  C    0.033563
    69  C    0.190061
    70  N   -0.301873
 Sum of Mulliken charges =  -0.00000

 Dipole moment (field-independent basis, Debye):
    X=             -4.4650    Y=              5.3983    Z=             -5.6576  Tot=              9.0048
 Quadrupole moment (field-independent basis, Debye-Ang):
   XX=           -145.9889   YY=           -224.2989   ZZ=           -264.1518
   XY=            -13.3241   XZ=             11.7480   YZ=              1.7085

 Normal termination of Gaussian 16 at Wed Jan 17 21:11:22 2018.
