 Gaussian 16, Revision A.03,
 Gaussian 16:  EM64L-G16RevA.03 25-Dec-2016

 ---------------------------------------
 #p wb97xd/cc-pvdz sp scf=(maxcycles=20)
 ---------------------------------------

 ------------------
 Base pair stacking
 ------------------
 Symbolic Z-matrix:
 Charge =  0 Multiplicity = 1

                         Standard orientation:
 ---------------------------------------------------------------------
 Center     Atomic      Atomic             Coordinates (Angstroms)
 Number     Number       Type             X           Y           Z
 ---------------------------------------------------------------------
      1          7           0       -6.303998   -1.194125    0.437986
      2          6           0       -7.577373   -0.724995    1.018025
      3          6           0       -4.170243   -1.596152    0.087612
      4          7           0       -4.854401   -2.186978   -0.964802
      5          6           0       -6.112529   -1.921124   -0.711590
      6          1           0       -6.950097   -2.233974   -1.335726
      7          7           0       -2.453989   -0.856311    1.526379
      8          6           0       -3.419583   -0.310887    2.273194
      9          1           0       -3.078049    0.211126    3.166012
     10          7           0       -4.737507   -0.313453    2.083596
     11          6           0       -5.050414   -0.980350    0.960316
     12          6           0       -2.801266   -1.520611    0.402466
     13          7           0       -1.838825   -2.065755   -0.344329
     14          1           0       -2.049893   -2.566558   -1.184485
     15          1           0       -0.874537   -1.992203   -0.089616
     16          1           0       -8.162120   -1.510472    1.221151
     17          1           0       -7.394491   -0.219976    1.861021
     18          1           0       -8.042007   -0.125406    0.366406
     19          7           0       -3.860006    1.923835   -0.911112
     20          6           0       -2.523342    2.040082   -0.614666
     21          6           0       -4.948212    2.677975   -0.257070
     22          7           0        0.031141    3.485317    1.242114
     23          1           0        1.026792    3.420098    1.302784
     24          1           0       -0.420030    4.128215    1.861655
     25          7           0       -1.983825    2.856196    0.316422
     26          6           0       -0.668420    2.744349    0.369487
     27          7           0        0.064460    1.898577   -0.427431
     28          1           0        1.066729    1.878983   -0.317771
     29          6           0       -0.469602    1.049994   -1.392075
     30          8           0        0.280287    0.325878   -2.058446
     31          6           0       -1.881804    1.158962   -1.460749
     32          7           0       -2.797281    0.502755   -2.272052
     33          6           0       -3.954594    0.987286   -1.911397
     34          1           0       -4.912115    0.695247   -2.343997
     35          1           0       -5.582596    2.040496    0.178791
     36          1           0       -4.560599    3.285896    0.434647
     37          1           0       -5.437179    3.220193   -0.939501
     38          1           0        5.931133    1.781831    1.159015
     39          1           0        6.156580    2.847185   -0.226215
     40          1           0        4.640554    2.882425    0.674783
     41          1           0        5.843048   -1.415421   -2.434924
     42          6           0        5.189306   -0.675816   -1.972501
     43          8           0        3.211145   -1.538107   -2.957612
     44          6           0        3.783557   -0.721440   -2.236371
     45          1           0        2.050469    0.259258   -1.764187
     46          7           0        3.047685    0.259054   -1.602050
     47          8           0        2.790372    2.067635   -0.252972
     48          6           0        3.522098    1.241417   -0.769322
     49          1           0        6.743000    0.348400   -0.931919
     50          6           0        5.681811    0.270411   -1.164605
     51          6           0        5.440510    2.250350    0.318864
     52          7           0        4.887576    1.219493   -0.563941
     53          1           0        4.974187   -0.091517    4.156888
     54          1           0        3.759539    0.863874    3.633496
     55          1           0        5.270285    1.072463    3.051945
     56          1           0        1.409566   -3.373220   -1.463564
     57          1           0        3.086007   -3.551814   -1.203258
     58          7           0        2.227594   -3.100474   -0.957021
     59          6           0        2.177072   -2.176062    0.004278
     60          6           0        3.087371   -0.789375    1.710208
     61          7           0        1.920659   -0.199905    2.019594
     62          1           0       -0.044921   -0.249667    1.441095
     63          6           0        0.939931   -0.675974    1.255110
     64          7           0        0.988516   -1.601822    0.291768
     65          1           0        6.252880   -1.421004    1.891264
     66          6           0        5.193407   -1.395432    1.634705
     67          7           0        4.633253   -2.132791    0.707231
     68          6           0        3.297910   -1.758381    0.744688
     69          6           0        4.602953    0.397862    3.367779
     70          7           0        4.316401   -0.559362    2.281667
 ---------------------------------------------------------------------

 SCF Done:  E(RwB97XD) =  -2048.74894713     A.U. after   15 cycles

 The electronic state is 1-A.
 Alpha  occ. eigenvalues --  -19.25702 -19.22025 -19.20686 -14.52380 -14.51542
 Alpha  occ. eigenvalues --  -14.49647 -14.48659 -14.47635 -14.46918 -14.46615
 Alpha  occ. eigenvalues --  -14.46110 -14.44351 -14.43126 -14.42908 -14.42621
 Alpha  occ. eigenvalues --  -14.42202 -14.41944 -14.41606 -14.40810 -14.40740
 Alpha  occ. eigenvalues --  -10.45350 -10.41174 -10.39933 -10.38386 -10.38236
 Alpha  occ. eigenvalues --  -10.37309 -10.36896 -10.36056 -10.36024 -10.35694
 Alpha  occ. eigenvalues --  -10.34887 -10.34701 -10.34268 -10.34144 -10.33697
 Alpha  occ. eigenvalues --  -10.33476 -10.33224 -10.31847 -10.31413 -10.30647
 Alpha  occ. eigenvalues --  -10.30624 -10.29274 -10.28039  -1.19313  -1.14176
 Alpha  occ. eigenvalues --   -1.13194  -1.13039  -1.12194  -1.10526  -1.09238
 Alpha  occ. eigenvalues --   -1.08551  -1.07806  -1.05642  -1.03306  -1.02435
 Alpha  occ. eigenvalues --   -1.01037  -0.99878  -0.99701  -0.98481  -0.97728
 Alpha  occ. eigenvalues --   -0.96470  -0.95452  -0.93259  -0.90725  -0.86619
 Alpha  occ. eigenvalues --   -0.85107  -0.84727  -0.84004  -0.83807  -0.83097
 Alpha  occ. eigenvalues --   -0.82344  -0.78683  -0.75805  -0.74544  -0.73672
 Alpha  occ. eigenvalues --   -0.73589  -0.73514  -0.73229  -0.71732  -0.69164
 Alpha  occ. eigenvalues --   -0.67311  -0.66977  -0.66397  -0.65488  -0.64353
 Alpha  occ. eigenvalues --   -0.63694  -0.63401  -0.62928  -0.62578  -0.61672
 Alpha  occ. eigenvalues --   -0.60943  -0.60831  -0.59426  -0.59261  -0.58399
 Alpha  occ. eigenvalues --   -0.58315  -0.57922  -0.57558  -0.57143  -0.56337
 Alpha  occ. eigenvalues --   -0.55916  -0.55836  -0.55139  -0.54384  -0.54275
 Alpha  occ. eigenvalues --   -0.53596  -0.53508  -0.52850  -0.52753  -0.52568
 Alpha  occ. eigenvalues --   -0.52396  -0.51819  -0.51750  -0.51515  -0.50882
 Alpha  occ. eigenvalues --   -0.50126  -0.49766  -0.49423  -0.49125  -0.48859
 Alpha  occ. eigenvalues --   -0.48701  -0.48310  -0.47965  -0.47657  -0.47571
 Alpha  occ. eigenvalues --   -0.47402  -0.45753  -0.45434  -0.43491  -0.42979
 Alpha  occ. eigenvalues --   -0.41806  -0.39640  -0.39323  -0.37833  -0.37209
 Alpha  occ. eigenvalues --   -0.37156  -0.37101  -0.36473  -0.35893  -0.34338
 Alpha  occ. eigenvalues --   -0.34213  -0.34018  -0.33641  -0.33265  -0.33103
 Alpha  occ. eigenvalues --   -0.32670  -0.32248  -0.31849  -0.31630  -0.31128
 Alpha  occ. eigenvalues --   -0.30972  -0.28256  -0.26442  -0.25365
 Alpha virt. eigenvalues --    0.02932   0.05321   0.07228   0.07574   0.08995
 Alpha virt. eigenvalues --    0.09518   0.09854   0.10387   0.10983   0.12071
 Alpha virt. eigenvalues --    0.13351   0.13557   0.13919   0.14730   0.14879

 Mulliken charges:
               1
     1  N   -0.310621
     2  C    0.178978
     3  C    0.040141
     4  N   -0.244791
     5  C    0.120387
     6  H    0.027689
     7  N   -0.285378
     8  C    0.137435
     9  H    0.014901
    10  N   -0.290789
    11  C    0.235171
    12  C    0.094138
    13  N   -0.039270
    14  H    0.111710
    15  H    0.092379
    16  H    0.029700
    17  H    0.035990
    18  H    0.023048
    19  N   -0.302869
    20  C    0.256049
    21  C    0.185226
    22  N   -0.121451
    23  H    0.116188
    24  H    0.118268
    25  N   -0.307417
    26  C    0.240335
    27  N   -0.145090
    28  H    0.122915
    29  C    0.175515
    30  O   -0.325879
    31  C   -0.015475
    32  N   -0.225737
    33  C    0.131870
    34  H    0.023594
    35  H    0.020651
    36  H    0.030236
    37  H    0.021308
    38  H    0.044655
    39  H    0.063802
    40  H    0.076302
    41  H    0.023576
    42  C   -0.058403
    43  O   -0.274666
    44  C    0.157680
    45  H    0.135298
    46  N   -0.124077
    47  O   -0.345184
    48  C    0.342291
    49  H    0.040676
    50  C    0.157618
    51  C    0.042329
    52  N   -0.280997
    53  H    0.034127
    54  H    0.041469
    55  H    0.006525
    56  H    0.119763
    57  H    0.117042
    58  N   -0.027185
    59  C    0.101135
    60  C    0.226955
    61  N   -0.270453
    62  H    0.032144
    63  C    0.153584
    64  N   -0.303327
    65  H    0.027863
    66  C    0.116728
    67  N   -0.243754
    68  C    0.011854
    69  C    0.184792
    70  N   -0.299216
 Sum of Mulliken charges =  -0.00000

 Dipole moment (field-independent basis, Debye):
    X=              4.6035    Y=              4.6762    Z=              5.4606  Tot=              8.5368
 Quadrupole moment (field-independent basis, Debye-Ang):
   XX=           -144.1241   YY=           -227.2388   ZZ=           -256.0210
   XY=              8.1961   XZ=             18.2625   YZ=              8.4295

 Normal termination of Gaussian 16 at Wed Jan 17 22:27:12 2018.
