 Gaussian 16, Revision A.03,
 Gaussian 16:  EM64L-G16RevA.03 25-Dec-2016

 ---------------------------------------
 #p wb97xd/cc-pvdz sp scf=(maxcycles=20)
 ---------------------------------------

 ------------------
 Base pair stacking
 ------------------
 Symbolic Z-matrix:
 Charge =  0 Multiplicity = 1

                         Standard orientation:
 ---------------------------------------------------------------------
 Center     Atomic      Atomic             Coordinates (Angstroms)
 Number     Number       Type             X           Y           Z
 ---------------------------------------------------------------------
      1          7           0        4.841632   -0.650639   -1.684678
      2          6           0        6.118508    0.077712   -1.815454
      3          6           0        2.703065   -1.144698   -1.544233
      4          7           0        3.386790   -2.347513   -1.441826
      5          6           0        4.647834   -2.001722   -1.530542
      6          1           0        5.486005   -2.697928   -1.489262
      7          7           0        0.985849    0.468729   -1.649046
      8          6           0        1.954620    1.379787   -1.787069
      9          1           0        1.613933    2.409669   -1.884705
     10          7           0        3.274841    1.210453   -1.822429
     11          6           0        3.586456   -0.089903   -1.694337
     12          6           0        1.331919   -0.831001   -1.522426
     13          7           0        0.366310   -1.741914   -1.384544
     14          1           0        0.576364   -2.715420   -1.287706
     15          1           0       -0.599455   -1.482461   -1.373362
     16          1           0        6.610761   -0.251790   -2.621236
     17          1           0        5.936691    1.055652   -1.913917
     18          1           0        6.676955   -0.075334   -1.000158
     19          7           0        5.374190    0.542188    1.013176
     20          6           0        4.038041    0.862485    1.001007
     21          6           0        6.472332    1.445846    0.615442
     22          7           0        1.499414    3.152523    0.390350
     23          1           0        0.502301    3.182852    0.454193
     24          1           0        1.958740    3.980226    0.066848
     25          7           0        3.508102    2.047004    0.626675
     26          6           0        2.190428    2.051838    0.723362
     27          7           0        1.446742    0.979725    1.153497
     28          1           0        0.443550    1.073429    1.195647
     29          6           0        1.970831   -0.248703    1.543596
     30          8           0        1.211597   -1.151875    1.915859
     31          6           0        3.385317   -0.269116    1.445129
     32          7           0        4.293426   -1.279498    1.730385
     33          6           0        5.457439   -0.754023    1.459871
     34          1           0        6.412055   -1.269874    1.568854
     35          1           0        6.976450    1.044423   -0.148454
     36          1           0        6.091871    2.326474    0.336135
     37          1           0        7.091187    1.581419    1.388397
     38          1           0       -4.523089    1.962236    0.566983
     39          1           0       -4.473657    2.279680    2.299449
     40          1           0       -3.065695    2.635150    1.298117
     41          1           0       -4.452274   -2.531337    2.284351
     42          6           0       -3.765040   -1.702749    2.112924
     43          8           0       -1.814800   -3.039841    2.302265
     44          6           0       -2.355484   -1.949673    2.117944
     45          1           0       -0.574470   -0.968299    1.887297
     46          7           0       -1.575740   -0.833508    1.891169
     47          8           0       -1.241979    1.374279    1.477109
     48          6           0       -2.011115    0.448855    1.668627
     49          1           0       -5.282342   -0.222327    1.884956
     50          6           0       -4.220087   -0.462732    1.898696
     51          6           0       -3.895258    1.959707    1.445556
     52          7           0       -3.383058    0.606579    1.678879
     53          1           0       -6.473553    3.116689   -1.815818
     54          1           0       -5.142730    3.272902   -0.884904
     55          1           0       -6.589112    2.962363   -0.195243
     56          1           0       -2.923000   -3.383262   -1.357857
     57          1           0       -4.621234   -3.264322   -1.467087
     58          7           0       -3.738758   -2.804765   -1.360942
     59          6           0       -3.654662   -1.479315   -1.229435
     60          6           0       -4.523628    0.730841   -1.081752
     61          7           0       -3.325071    1.320782   -0.940838
     62          1           0       -1.343224    0.806551   -0.848931
     63          6           0       -2.352396    0.411646   -0.957934
     64          7           0       -2.434596   -0.916322   -1.089546
     65          1           0       -7.740857    0.529675   -1.329068
     66          6           0       -6.670742    0.328279   -1.272220
     67          7           0       -6.131850   -0.864070   -1.346916
     68          6           0       -4.770826   -0.623098   -1.227528
     69          6           0       -6.010595    2.788756   -0.992330
     70          7           0       -5.755716    1.340009   -1.111472
 ---------------------------------------------------------------------

 SCF Done:  E(RwB97XD) =  -2048.67963856     A.U. after   16 cycles

 The electronic state is 1-A.
 Alpha  occ. eigenvalues --  -19.25058 -19.21186 -19.20715 -14.53008 -14.51456
 Alpha  occ. eigenvalues --  -14.49279 -14.49239 -14.48358 -14.47011 -14.46683
 Alpha  occ. eigenvalues --  -14.46609 -14.45641 -14.44597 -14.44346 -14.42986
 Alpha  occ. eigenvalues --  -14.41599 -14.41585 -14.41464 -14.41273 -14.40911
 Alpha  occ. eigenvalues --  -10.44634 -10.40920 -10.40241 -10.39288 -10.38283
 Alpha  occ. eigenvalues --  -10.38229 -10.37445 -10.36951 -10.36037 -10.35987
 Alpha  occ. eigenvalues --  -10.34600 -10.34468 -10.34462 -10.33847 -10.33834
 Alpha  occ. eigenvalues --  -10.33377 -10.33365 -10.32956 -10.31585 -10.31149
 Alpha  occ. eigenvalues --  -10.30109 -10.28932 -10.28384  -1.18761  -1.15727
 Alpha  occ. eigenvalues --   -1.13410  -1.12220  -1.11834  -1.10940  -1.09681
 Alpha  occ. eigenvalues --   -1.08723  -1.08425  -1.05688  -1.05193  -1.01672
 Alpha  occ. eigenvalues --   -1.01414  -1.01140  -0.99807  -0.98657  -0.97696
 Alpha  occ. eigenvalues --   -0.97284  -0.96852  -0.93369  -0.90120  -0.88049
 Alpha  occ. eigenvalues --   -0.86512  -0.85605  -0.83928  -0.83790  -0.82623
 Alpha  occ. eigenvalues --   -0.82282  -0.78040  -0.77406  -0.75364  -0.74934
 Alpha  occ. eigenvalues --   -0.73803  -0.73423  -0.72534  -0.71666  -0.70778
 Alpha  occ. eigenvalues --   -0.67711  -0.67255  -0.66916  -0.65744  -0.64738
 Alpha  occ. eigenvalues --   -0.64630  -0.63440  -0.63300  -0.62660  -0.61942
 Alpha  occ. eigenvalues --   -0.61836  -0.61496  -0.60881  -0.60368  -0.59886
 Alpha  occ. eigenvalues --   -0.58930  -0.58847  -0.58405  -0.57446  -0.56341
 Alpha  occ. eigenvalues --   -0.56059  -0.55662  -0.55559  -0.54371  -0.54215
 Alpha  occ. eigenvalues --   -0.53893  -0.53759  -0.53303  -0.53149  -0.52983
 Alpha  occ. eigenvalues --   -0.52556  -0.52319  -0.51328  -0.51174  -0.50469
 Alpha  occ. eigenvalues --   -0.50372  -0.49845  -0.49509  -0.49227  -0.49089
 Alpha  occ. eigenvalues --   -0.48625  -0.48479  -0.48018  -0.47614  -0.47602
 Alpha  occ. eigenvalues --   -0.47026  -0.46355  -0.44553  -0.44208  -0.42843
 Alpha  occ. eigenvalues --   -0.41045  -0.40766  -0.38888  -0.38438  -0.37948
 Alpha  occ. eigenvalues --   -0.37756  -0.37305  -0.36639  -0.35688  -0.34893
 Alpha  occ. eigenvalues --   -0.34698  -0.34456  -0.34075  -0.33746  -0.32966
 Alpha  occ. eigenvalues --   -0.32696  -0.32362  -0.31961  -0.31567  -0.31027
 Alpha  occ. eigenvalues --   -0.30025  -0.29776  -0.27656  -0.24089
 Alpha virt. eigenvalues --    0.03435   0.04079   0.06215   0.06342   0.07644
 Alpha virt. eigenvalues --    0.09428   0.09912   0.10298   0.11875   0.12234
 Alpha virt. eigenvalues --    0.12559   0.13405   0.14105   0.14642   0.15285

 Mulliken charges:
               1
     1  N   -0.294287
     2  C    0.200261
     3  C    0.070222
     4  N   -0.245871
     5  C    0.138000
     6  H    0.025245
     7  N   -0.276110
     8  C    0.130451
     9  H   -0.004181
    10  N   -0.256771
    11  C    0.208001
    12  C    0.060660
    13  N   -0.048283
    14  H    0.111680
    15  H    0.084419
    16  H    0.024402
    17  H    0.030249
    18  H    0.009106
    19  N   -0.295801
    20  C    0.215990
    21  C    0.180125
    22  N   -0.093092
    23  H    0.120855
    24  H    0.121692
    25  N   -0.244613
    26  C    0.142738
    27  N   -0.097093
    28  H    0.119804
    29  C    0.166972
    30  O   -0.318288
    31  C    0.011088
    32  N   -0.208842
    33  C    0.101162
    34  H    0.022028
    35  H   -0.001431
    36  H    0.037701
    37  H    0.022258
    38  H    0.005892
    39  H    0.040983
    40  H    0.074756
    41  H    0.022620
    42  C   -0.104122
    43  O   -0.271503
    44  C    0.174404
    45  H    0.128624
    46  N   -0.108245
    47  O   -0.342669
    48  C    0.302940
    49  H    0.044142
    50  C    0.160407
    51  C    0.090880
    52  N   -0.268024
    53  H    0.034664
    54  H    0.048852
    55  H    0.029950
    56  H    0.124265
    57  H    0.120788
    58  N   -0.060438
    59  C    0.116235
    60  C    0.224841
    61  N   -0.286288
    62  H    0.023891
    63  C    0.176560
    64  N   -0.307777
    65  H    0.039434
    66  C    0.134541
    67  N   -0.253540
    68  C    0.040624
    69  C    0.189822
    70  N   -0.317953
 Sum of Mulliken charges =  -0.00000

 Dipole moment (field-independent basis, Debye):
    X=             -4.9882    Y=              7.4553    Z=             -3.2857  Tot=              9.5530
 Quadrupole moment (field-independent basis, Debye-Ang):
   XX=           -146.4368   YY=           -232.5609   ZZ=           -258.9992
   XY=             -7.5075   XZ=             -7.3615   YZ=             16.6210

 Normal termination of Gaussian 16 at Thu Jan 18 03:40:01 2018.
