 Gaussian 16, Revision A.03,
 Gaussian 16:  EM64L-G16RevA.03 25-Dec-2016

 ---------------------------------------
 #p wb97xd/cc-pvdz sp scf=(maxcycles=20)
 ---------------------------------------

 ------------------
 Base pair stacking
 ------------------
 Symbolic Z-matrix:
 Charge =  0 Multiplicity = 1

                         Standard orientation:
 ---------------------------------------------------------------------
 Center     Atomic      Atomic             Coordinates (Angstroms)
 Number     Number       Type             X           Y           Z
 ---------------------------------------------------------------------
      1          7           0       -7.095068   -0.648816    0.251938
      2          6           0       -8.349160    0.052678    0.588376
      3          6           0       -4.985769   -1.264694    0.157948
      4          7           0       -5.676824   -2.115831   -0.692182
      5          6           0       -6.919947   -1.710721   -0.601525
      6          1           0       -7.757560   -2.154693   -1.140270
      7          7           0       -3.267403   -0.211047    1.382701
      8          6           0       -4.214486    0.597249    1.869808
      9          1           0       -3.864864    1.352962    2.571901
     10          7           0       -5.522456    0.612141    1.621016
     11          6           0       -5.846635   -0.355086    0.747044
     12          6           0       -3.625648   -1.173983    0.505495
     13          7           0       -2.681692   -1.981821    0.018146
     14          1           0       -2.901416   -2.708486   -0.633706
     15          1           0       -1.723224   -1.888277    0.287845
     16          1           0       -8.995200   -0.593299    0.995229
     17          1           0       -8.157325    0.785862    1.240107
     18          1           0       -8.748337    0.442629   -0.241437
     19          7           0       -2.964074    1.744885   -1.397450
     20          6           0       -1.635359    1.864355   -1.068340
     21          6           0       -4.031874    2.680067   -0.990106
     22          7           0        0.923999    3.580408    0.533720
     23          1           0        1.911228    3.484741    0.658092
     24          1           0        0.486701    4.369829    0.965346
     25          7           0       -1.086433    2.848210   -0.323528
     26          6           0        0.217434    2.690583   -0.179640
     27          7           0        0.931027    1.649779   -0.722797
     28          1           0        1.925583    1.609495   -0.560956
     29          6           0        0.386974    0.626333   -1.492489
     30          8           0        1.119461   -0.266781   -1.935844
     31          6           0       -1.013016    0.782054   -1.655793
     32          7           0       -1.932503   -0.001130   -2.339942
     33          6           0       -3.073332    0.607236   -2.159325
     34          1           0       -4.028587    0.267703   -2.561185
     35          1           0       -4.717890    2.191389   -0.452165
     36          1           0       -3.637145    3.413172   -0.437815
     37          1           0       -4.462483    3.071294   -1.802697
     38          1           0        6.716063    1.631196    1.143038
     39          1           0        7.055063    2.334336   -0.436621
     40          1           0        5.509945    2.648275    0.354225
     41          1           0        6.584224   -2.305101   -1.620055
     42          6           0        5.956412   -1.448741   -1.373614
     43          8           0        3.971693   -2.422979   -2.233187
     44          6           0        4.561554   -1.488826   -1.690787
     45          1           0        2.870315   -0.345687   -1.544902
     46          7           0        3.858909   -0.354706   -1.336764
     47          8           0        3.653408    1.727530   -0.454027
     48          6           0        4.356151    0.770885   -0.729040
     49          1           0        7.524764   -0.284527   -0.518821
     50          6           0        6.470599   -0.364872   -0.780810
     51          6           0        6.285672    1.914299    0.193997
     52          7           0        5.709251    0.733631   -0.455242
     53          1           0        4.108890    0.907734    4.032391
     54          1           0        2.983592    1.718970    3.173497
     55          1           0        4.523232    1.645147    2.636683
     56          1           0        0.498033   -3.762700   -0.463641
     57          1           0        2.148065   -3.947874   -0.072265
     58          7           0        1.317014   -3.392609   -0.024964
     59          6           0        1.302644   -2.211220    0.595770
     60          6           0        2.255668   -0.413569    1.829427
     61          7           0        1.125221    0.310454    1.877216
     62          1           0       -0.819373    0.196010    1.239982
     63          6           0        0.137611   -0.323971    1.248695
     64          7           0        0.150014   -1.507237    0.626379
     65          1           0        5.360007   -1.139902    2.365801
     66          6           0        4.313871   -1.134548    2.058384
     67          7           0        3.731877   -2.092389    1.379052
     68          6           0        2.426481   -1.647885    1.227083
     69          6           0        3.799254    1.144536    3.111494
     70          7           0        3.479232   -0.087536    2.364776
 ---------------------------------------------------------------------

 SCF Done:  E(RwB97XD) =  -2048.75128042     A.U. after   15 cycles

 The electronic state is 1-A.
 Alpha  occ. eigenvalues --  -19.26090 -19.21929 -19.20633 -14.52662 -14.51031
 Alpha  occ. eigenvalues --  -14.50069 -14.48439 -14.47833 -14.46712 -14.46594
 Alpha  occ. eigenvalues --  -14.45923 -14.43818 -14.43051 -14.42786 -14.42543
 Alpha  occ. eigenvalues --  -14.42501 -14.42147 -14.41935 -14.41271 -14.40671
 Alpha  occ. eigenvalues --  -10.45659 -10.41086 -10.40039 -10.38209 -10.38002
 Alpha  occ. eigenvalues --  -10.37690 -10.36548 -10.36494 -10.35992 -10.35551
 Alpha  occ. eigenvalues --  -10.35408 -10.34694 -10.34210 -10.34209 -10.34207
 Alpha  occ. eigenvalues --  -10.33094 -10.33057 -10.32019 -10.31062 -10.30866
 Alpha  occ. eigenvalues --  -10.30154 -10.29886 -10.28014  -1.19652  -1.13665
 Alpha  occ. eigenvalues --   -1.13152  -1.12931  -1.12686  -1.10425  -1.09517
 Alpha  occ. eigenvalues --   -1.08498  -1.07357  -1.06167  -1.02895  -1.02515
 Alpha  occ. eigenvalues --   -1.01573  -0.99662  -0.99383  -0.98415  -0.98189
 Alpha  occ. eigenvalues --   -0.96311  -0.95023  -0.93759  -0.91081  -0.86134
 Alpha  occ. eigenvalues --   -0.85182  -0.84649  -0.84084  -0.83868  -0.83495
 Alpha  occ. eigenvalues --   -0.82084  -0.78944  -0.75393  -0.74454  -0.74044
 Alpha  occ. eigenvalues --   -0.73565  -0.73381  -0.73115  -0.72255  -0.68743
 Alpha  occ. eigenvalues --   -0.67456  -0.67262  -0.66615  -0.65052  -0.64480
 Alpha  occ. eigenvalues --   -0.63851  -0.63623  -0.62603  -0.62560  -0.61607
 Alpha  occ. eigenvalues --   -0.61227  -0.60571  -0.59581  -0.58969  -0.58301
 Alpha  occ. eigenvalues --   -0.58199  -0.58033  -0.57664  -0.57421  -0.56435
 Alpha  occ. eigenvalues --   -0.56296  -0.56060  -0.54602  -0.54440  -0.53971
 Alpha  occ. eigenvalues --   -0.53701  -0.53490  -0.52953  -0.52908  -0.52699
 Alpha  occ. eigenvalues --   -0.52250  -0.51961  -0.51736  -0.51368  -0.51225
 Alpha  occ. eigenvalues --   -0.50152  -0.49998  -0.49479  -0.48642  -0.48502
 Alpha  occ. eigenvalues --   -0.48323  -0.48124  -0.48056  -0.47832  -0.47744
 Alpha  occ. eigenvalues --   -0.47351  -0.46106  -0.45066  -0.44153  -0.43010
 Alpha  occ. eigenvalues --   -0.42202  -0.39626  -0.39203  -0.38389  -0.37202
 Alpha  occ. eigenvalues --   -0.37127  -0.36423  -0.35858  -0.35391  -0.34751
 Alpha  occ. eigenvalues --   -0.34676  -0.34376  -0.33196  -0.32972  -0.32832
 Alpha  occ. eigenvalues --   -0.32641  -0.32377  -0.31909  -0.31877  -0.31834
 Alpha  occ. eigenvalues --   -0.31424  -0.28030  -0.26859  -0.25362
 Alpha virt. eigenvalues --    0.03112   0.05475   0.06635   0.08211   0.08856
 Alpha virt. eigenvalues --    0.09001   0.09850   0.10103   0.10828   0.12309
 Alpha virt. eigenvalues --    0.12855   0.13112   0.14700   0.14797   0.15453

 Mulliken charges:
               1
     1  N   -0.310256
     2  C    0.180287
     3  C    0.033264
     4  N   -0.255953
     5  C    0.131175
     6  H    0.030443
     7  N   -0.272567
     8  C    0.125034
     9  H    0.019801
    10  N   -0.288051
    11  C    0.235614
    12  C    0.084161
    13  N   -0.032681
    14  H    0.107632
    15  H    0.091028
    16  H    0.029025
    17  H    0.036426
    18  H    0.026061
    19  N   -0.298946
    20  C    0.245805
    21  C    0.185696
    22  N   -0.116397
    23  H    0.111372
    24  H    0.117146
    25  N   -0.300846
    26  C    0.233855
    27  N   -0.120483
    28  H    0.118352
    29  C    0.148082
    30  O   -0.324815
    31  C    0.000258
    32  N   -0.226783
    33  C    0.118262
    34  H    0.029169
    35  H    0.023228
    36  H    0.027129
    37  H    0.021249
    38  H    0.053708
    39  H    0.066031
    40  H    0.078537
    41  H    0.030967
    42  C   -0.087045
    43  O   -0.269686
    44  C    0.187988
    45  H    0.133823
    46  N   -0.126591
    47  O   -0.349678
    48  C    0.341196
    49  H    0.044602
    50  C    0.155825
    51  C    0.035287
    52  N   -0.288448
    53  H    0.031047
    54  H    0.036545
    55  H    0.004547
    56  H    0.116166
    57  H    0.122178
    58  N   -0.056484
    59  C    0.138692
    60  C    0.229763
    61  N   -0.273447
    62  H    0.040488
    63  C    0.154554
    64  N   -0.305385
    65  H    0.022704
    66  C    0.111916
    67  N   -0.246751
    68  C    0.017559
    69  C    0.185432
    70  N   -0.297821
 Sum of Mulliken charges =  -0.00000

 Dipole moment (field-independent basis, Debye):
    X=              4.3340    Y=              5.4753    Z=              4.5605  Tot=              8.3403
 Quadrupole moment (field-independent basis, Debye-Ang):
   XX=           -139.1599   YY=           -226.8321   ZZ=           -255.8329
   XY=             15.2207   XZ=             24.9836   YZ=              0.5175

 Normal termination of Gaussian 16 at Thu Jan 18 14:41:18 2018.
