 Gaussian 16, Revision A.03,
 Gaussian 16:  EM64L-G16RevA.03 25-Dec-2016

 ---------------------------------------
 #p wb97xd/cc-pvdz sp scf=(maxcycles=20)
 ---------------------------------------

 ------------------
 Base pair stacking
 ------------------
 Symbolic Z-matrix:
 Charge =  0 Multiplicity = 1

                         Standard orientation:
 ---------------------------------------------------------------------
 Center     Atomic      Atomic             Coordinates (Angstroms)
 Number     Number       Type             X           Y           Z
 ---------------------------------------------------------------------
      1          7           0       -6.846108   -0.833107    0.310143
      2          6           0       -8.110820   -0.233719    0.778383
      3          6           0       -4.725088   -1.370792    0.087730
      4          7           0       -5.408503   -2.072933   -0.894455
      5          6           0       -6.658979   -1.720897   -0.721147
      6          1           0       -7.493741   -2.081723   -1.322755
      7          7           0       -3.014146   -0.511401    1.465060
      8          6           0       -3.972282    0.173592    2.097776
      9          1           0       -3.630077    0.800004    2.920441
     10          7           0       -5.283513    0.200858    1.867925
     11          6           0       -5.597919   -0.602263    0.838087
     12          6           0       -3.362737   -1.310579    0.433137
     13          7           0       -2.407728   -1.995161   -0.199701
     14          1           0       -2.620044   -2.598812   -0.968948
     15          1           0       -1.448009   -1.928010    0.073389
     16          1           0       -8.736742   -0.957501    1.069138
     17          1           0       -7.926518    0.375690    1.548947
     18          1           0       -8.529799    0.288365    0.035496
     19          7           0       -3.244170    1.922377   -1.205074
     20          6           0       -1.911703    2.021676   -0.884567
     21          6           0       -4.312580    2.806142   -0.696985
     22          7           0        0.658371    3.601468    0.836120
     23          1           0        1.647967    3.502913    0.937317
     24          1           0        0.221781    4.343181    1.345978
     25          7           0       -1.359032    2.935936   -0.058274
     26          6           0       -0.052124    2.776534    0.052155
     27          7           0        0.660904    1.797356   -0.596153
     28          1           0        1.657967    1.750490   -0.452553
     29          6           0        0.113034    0.846056   -1.450990
     30          8           0        0.845338    0.004719   -1.986337
     31          6           0       -1.290259    1.004567   -1.579604
     32          7           0       -2.213993    0.281264   -2.321535
     33          6           0       -3.356379    0.860330   -2.068849
     34          1           0       -4.314925    0.551928   -2.487597
     35          1           0       -4.987203    2.263372   -0.197903
     36          1           0       -3.915102    3.487519   -0.083781
     37          1           0       -4.757737    3.268218   -1.463225
     38          1           0        6.472430    1.652786    1.179669
     39          1           0        6.783411    2.503850   -0.331494
     40          1           0        5.247757    2.729127    0.506593
     41          1           0        6.328514   -2.007913   -1.938844
     42          6           0        5.698254   -1.183802   -1.604415
     43          8           0        3.708249   -2.089866   -2.524221
     44          6           0        4.299253   -1.205749   -1.904670
     45          1           0        2.602211   -0.095693   -1.628728
     46          7           0        3.593770   -0.115839   -1.436026
     47          8           0        3.386275    1.872592   -0.358863
     48          6           0        4.091761    0.951942   -0.732187
     49          1           0        7.270529   -0.091685   -0.665784
     50          6           0        6.213269   -0.156007   -0.919579
     51          6           0        6.026277    2.020014    0.267447
     52          7           0        5.448915    0.900627   -0.481802
     53          1           0        4.370699    0.295143    4.202938
     54          1           0        3.216070    1.219142    3.513621
     55          1           0        4.749538    1.279874    2.957864
     56          1           0        0.804018   -3.583440   -1.022094
     57          1           0        2.462923   -3.795360   -0.685644
     58          7           0        1.620434   -3.277855   -0.531978
     59          6           0        1.588196   -2.227067    0.290210
     60          6           0        2.517621   -0.656061    1.816588
     61          7           0        1.372088    0.020066    2.003726
     62          1           0       -0.577940   -0.025983    1.374543
     63          6           0        0.390412   -0.515709    1.281129
     64          7           0        0.420700   -1.568124    0.457064
     65          1           0        5.644352   -1.390788    2.185252
     66          6           0        4.594280   -1.356055    1.893573
     67          7           0        4.024581   -2.191010    1.059319
     68          6           0        2.707678   -1.758396    1.001566
     69          6           0        4.043401    0.685036    3.342211
     70          7           0        3.740773   -0.401237    2.390145
 ---------------------------------------------------------------------

 SCF Done:  E(RwB97XD) =  -2048.75279022     A.U. after   15 cycles

 The electronic state is 1-A.
 Alpha  occ. eigenvalues --  -19.25989 -19.22055 -19.20659 -14.52547 -14.51128
 Alpha  occ. eigenvalues --  -14.49888 -14.48550 -14.47831 -14.46883 -14.46639
 Alpha  occ. eigenvalues --  -14.45745 -14.43918 -14.42765 -14.42631 -14.42576
 Alpha  occ. eigenvalues --  -14.42466 -14.41982 -14.41901 -14.41019 -14.40751
 Alpha  occ. eigenvalues --  -10.45570 -10.41180 -10.40099 -10.38244 -10.37942
 Alpha  occ. eigenvalues --  -10.37511 -10.36599 -10.36267 -10.35894 -10.35580
 Alpha  occ. eigenvalues --  -10.35209 -10.34448 -10.34293 -10.34244 -10.33961
 Alpha  occ. eigenvalues --  -10.33155 -10.33140 -10.31919 -10.30921 -10.30903
 Alpha  occ. eigenvalues --  -10.30377 -10.29628 -10.28060  -1.19553  -1.13749
 Alpha  occ. eigenvalues --   -1.13211  -1.13025  -1.12482  -1.10499  -1.09422
 Alpha  occ. eigenvalues --   -1.08564  -1.07331  -1.05898  -1.02846  -1.02539
 Alpha  occ. eigenvalues --   -1.01301  -0.99722  -0.99450  -0.98490  -0.97987
 Alpha  occ. eigenvalues --   -0.96410  -0.94993  -0.93492  -0.90948  -0.86187
 Alpha  occ. eigenvalues --   -0.84981  -0.84691  -0.84023  -0.83927  -0.83310
 Alpha  occ. eigenvalues --   -0.82214  -0.78858  -0.75398  -0.74510  -0.73829
 Alpha  occ. eigenvalues --   -0.73619  -0.73369  -0.73132  -0.72008  -0.68738
 Alpha  occ. eigenvalues --   -0.67323  -0.67220  -0.66566  -0.65039  -0.64444
 Alpha  occ. eigenvalues --   -0.63693  -0.63609  -0.62608  -0.62570  -0.61666
 Alpha  occ. eigenvalues --   -0.61020  -0.60586  -0.59522  -0.58963  -0.58325
 Alpha  occ. eigenvalues --   -0.58116  -0.57976  -0.57545  -0.57252  -0.56391
 Alpha  occ. eigenvalues --   -0.56085  -0.56015  -0.54706  -0.54401  -0.54006
 Alpha  occ. eigenvalues --   -0.53571  -0.53556  -0.52858  -0.52783  -0.52724
 Alpha  occ. eigenvalues --   -0.52201  -0.51984  -0.51688  -0.51355  -0.51066
 Alpha  occ. eigenvalues --   -0.50078  -0.49943  -0.49468  -0.48772  -0.48582
 Alpha  occ. eigenvalues --   -0.48318  -0.48208  -0.47896  -0.47846  -0.47796
 Alpha  occ. eigenvalues --   -0.47394  -0.45882  -0.45156  -0.44000  -0.43008
 Alpha  occ. eigenvalues --   -0.42034  -0.39549  -0.39221  -0.38154  -0.37257
 Alpha  occ. eigenvalues --   -0.37172  -0.36525  -0.35997  -0.35584  -0.34609
 Alpha  occ. eigenvalues --   -0.34476  -0.34295  -0.33250  -0.33013  -0.32713
 Alpha  occ. eigenvalues --   -0.32609  -0.32281  -0.31935  -0.31868  -0.31676
 Alpha  occ. eigenvalues --   -0.31213  -0.28008  -0.26628  -0.25401
 Alpha virt. eigenvalues --    0.03008   0.05701   0.06948   0.08117   0.08940
 Alpha virt. eigenvalues --    0.09172   0.09736   0.10237   0.10793   0.12283
 Alpha virt. eigenvalues --    0.13061   0.13272   0.14472   0.14805   0.15215

 Mulliken charges:
               1
     1  N   -0.310328
     2  C    0.180189
     3  C    0.033193
     4  N   -0.253129
     5  C    0.127780
     6  H    0.029386
     7  N   -0.278933
     8  C    0.131460
     9  H    0.017931
    10  N   -0.290945
    11  C    0.235948
    12  C    0.092491
    13  N   -0.034024
    14  H    0.108658
    15  H    0.089587
    16  H    0.028899
    17  H    0.036184
    18  H    0.024878
    19  N   -0.302667
    20  C    0.255094
    21  C    0.184308
    22  N   -0.119341
    23  H    0.113342
    24  H    0.117881
    25  N   -0.305460
    26  C    0.239485
    27  N   -0.132288
    28  H    0.118231
    29  C    0.165810
    30  O   -0.325816
    31  C   -0.006690
    32  N   -0.228852
    33  C    0.121873
    34  H    0.027496
    35  H    0.024690
    36  H    0.028223
    37  H    0.021216
    38  H    0.052947
    39  H    0.065172
    40  H    0.076337
    41  H    0.028370
    42  C   -0.071270
    43  O   -0.273565
    44  C    0.180170
    45  H    0.134430
    46  N   -0.126932
    47  O   -0.349028
    48  C    0.342676
    49  H    0.042343
    50  C    0.152950
    51  C    0.036791
    52  N   -0.285457
    53  H    0.031915
    54  H    0.038983
    55  H    0.007308
    56  H    0.116924
    57  H    0.120510
    58  N   -0.045061
    59  C    0.123411
    60  C    0.231323
    61  N   -0.276704
    62  H    0.032742
    63  C    0.159981
    64  N   -0.305607
    65  H    0.023820
    66  C    0.118545
    67  N   -0.246717
    68  C    0.012795
    69  C    0.185184
    70  N   -0.301047
 Sum of Mulliken charges =  -0.00000

 Dipole moment (field-independent basis, Debye):
    X=              4.5376    Y=              5.2189    Z=              4.8345  Tot=              8.4379
 Quadrupole moment (field-independent basis, Debye-Ang):
   XX=           -141.0307   YY=           -226.8810   ZZ=           -255.2231
   XY=             11.0835   XZ=             23.7177   YZ=              4.1462

 Normal termination of Gaussian 16 at Thu Jan 18 00:06:26 2018.
