 Gaussian 16, Revision A.03,
 Gaussian 16:  EM64L-G16RevA.03 25-Dec-2016

 ---------------------------------------
 #p wb97xd/cc-pvdz sp scf=(maxcycles=20)
 ---------------------------------------

 ------------------
 Base pair stacking
 ------------------
 Symbolic Z-matrix:
 Charge =  0 Multiplicity = 1

                         Standard orientation:
 ---------------------------------------------------------------------
 Center     Atomic      Atomic             Coordinates (Angstroms)
 Number     Number       Type             X           Y           Z
 ---------------------------------------------------------------------
      1          7           0        6.798625   -0.667027   -0.385291
      2          6           0        8.045420    0.103341   -0.558565
      3          6           0        4.692754   -1.300889   -0.414164
      4          7           0        5.399164   -2.328871    0.193266
      5          6           0        6.639604   -1.905849    0.186345
      6          1           0        7.486621   -2.462169    0.588841
      7          7           0        2.952847    0.008038   -1.321009
      8          6           0        3.890063    0.916701   -1.610050
      9          1           0        3.527587    1.818299   -2.101983
     10          7           0        5.201642    0.879037   -1.383706
     11          6           0        5.541920   -0.269700   -0.776211
     12          6           0        3.327210   -1.137119   -0.709833
     13          7           0        2.393119   -2.045375   -0.420491
     14          1           0        2.624857   -2.907400    0.031633
     15          1           0        1.430368   -1.895202   -0.645669
     16          1           0        8.686965   -0.419969   -1.119580
     17          1           0        7.841538    0.971862   -1.009393
     18          1           0        8.456172    0.282169    0.335465
     19          7           0        3.314285    1.418188    1.415813
     20          6           0        1.987035    1.589042    1.103923
     21          6           0        4.413728    2.304200    0.983498
     22          7           0       -0.522221    3.392740   -0.481024
     23          1           0       -1.514232    3.336658   -0.590612
     24          1           0       -0.059031    4.158928   -0.927261
     25          7           0        1.468457    2.586998    0.356132
     26          6           0        0.157279    2.481895    0.232106
     27          7           0       -0.590698    1.477122    0.796444
     28          1           0       -1.588291    1.476294    0.648887
     29          6           0       -0.078254    0.440055    1.569609
     30          8           0       -0.840445   -0.417395    2.032813
     31          6           0        1.329159    0.539487    1.711726
     32          7           0        2.225349   -0.273907    2.391532
     33          6           0        3.387540    0.284914    2.188457
     34          1           0        4.333665   -0.089630    2.580675
     35          1           0        5.071269    1.782076    0.441438
     36          1           0        4.041645    3.047248    0.428793
     37          1           0        4.871690    2.685671    1.785720
     38          1           0       -6.397742    1.678300   -0.988500
     39          1           0       -6.684831    2.411106    0.587960
     40          1           0       -5.139608    2.652769   -0.227663
     41          1           0       -6.388447   -2.231366    1.815246
     42          6           0       -5.729513   -1.404270    1.550776
     43          8           0       -3.774456   -2.450746    2.393247
     44          6           0       -4.333078   -1.498661    1.848951
     45          1           0       -2.598489   -0.427935    1.667129
     46          7           0       -3.589498   -0.398255    1.472851
     47          8           0       -3.311137    1.664497    0.564697
     48          6           0       -4.048654    0.740586    0.859857
     49          1           0       -7.260715   -0.185136    0.705224
     50          6           0       -6.207097   -0.306248    0.953392
     51          6           0       -5.942498    1.953158   -0.048675
     52          7           0       -5.405920    0.756442    0.605317
     53          1           0       -4.466348    1.690387   -3.513638
     54          1           0       -3.330297    2.275428   -2.499127
     55          1           0       -4.861299    2.063206   -1.974655
     56          1           0       -0.773804   -3.910481   -0.341736
     57          1           0       -2.429126   -4.005499   -0.742966
     58          7           0       -1.600463   -3.450049   -0.665435
     59          6           0       -1.598934   -2.153042   -0.979996
     60          6           0       -2.575844   -0.115379   -1.725194
     61          7           0       -1.448299    0.605799   -1.611296
     62          1           0        0.506152    0.352271   -1.048759
     63          6           0       -0.449385   -0.156121   -1.170238
     64          7           0       -0.448899   -1.455345   -0.854628
     65          1           0       -5.685980   -0.709365   -2.378163
     66          6           0       -4.635272   -0.772233   -2.093571
     67          7           0       -4.040227   -1.862844   -1.676227
     68          6           0       -2.733908   -1.460265   -1.439142
     69          6           0       -4.143295    1.697914   -2.567285
     70          7           0       -3.808385    0.323240   -2.147631
 ---------------------------------------------------------------------

 SCF Done:  E(RwB97XD) =  -2048.72538395     A.U. after   15 cycles

 The electronic state is 1-A.
 Alpha  occ. eigenvalues --  -19.26063 -19.21989 -19.20484 -14.52766 -14.51350
 Alpha  occ. eigenvalues --  -14.50281 -14.48100 -14.47936 -14.46663 -14.46327
 Alpha  occ. eigenvalues --  -14.46213 -14.44213 -14.43309 -14.43045 -14.42897
 Alpha  occ. eigenvalues --  -14.42893 -14.42225 -14.41758 -14.41361 -14.40487
 Alpha  occ. eigenvalues --  -10.45681 -10.40775 -10.40070 -10.38570 -10.37963
 Alpha  occ. eigenvalues --  -10.37749 -10.36900 -10.36701 -10.36252 -10.35960
 Alpha  occ. eigenvalues --  -10.35538 -10.34799 -10.34762 -10.34249 -10.33971
 Alpha  occ. eigenvalues --  -10.33093 -10.32940 -10.32236 -10.31266 -10.31101
 Alpha  occ. eigenvalues --  -10.30055 -10.29099 -10.27800  -1.19739  -1.14054
 Alpha  occ. eigenvalues --   -1.13022  -1.13001  -1.12862  -1.10234  -1.09625
 Alpha  occ. eigenvalues --   -1.08286  -1.07927  -1.06351  -1.03499  -1.02640
 Alpha  occ. eigenvalues --   -1.01850  -0.99814  -0.99361  -0.98379  -0.98225
 Alpha  occ. eigenvalues --   -0.96037  -0.95565  -0.93995  -0.91211  -0.86664
 Alpha  occ. eigenvalues --   -0.85397  -0.85306  -0.84113  -0.83717  -0.83568
 Alpha  occ. eigenvalues --   -0.81615  -0.79046  -0.75918  -0.74333  -0.74131
 Alpha  occ. eigenvalues --   -0.73697  -0.73568  -0.73289  -0.72450  -0.69307
 Alpha  occ. eigenvalues --   -0.67658  -0.67066  -0.66669  -0.65667  -0.64705
 Alpha  occ. eigenvalues --   -0.64059  -0.63398  -0.63131  -0.62517  -0.61747
 Alpha  occ. eigenvalues --   -0.61438  -0.61345  -0.59745  -0.59542  -0.58700
 Alpha  occ. eigenvalues --   -0.58218  -0.57952  -0.57738  -0.57273  -0.56664
 Alpha  occ. eigenvalues --   -0.56410  -0.56030  -0.55686  -0.54532  -0.54314
 Alpha  occ. eigenvalues --   -0.54238  -0.53349  -0.53235  -0.53054  -0.52438
 Alpha  occ. eigenvalues --   -0.52218  -0.51810  -0.51518  -0.51453  -0.51158
 Alpha  occ. eigenvalues --   -0.50335  -0.49817  -0.49500  -0.48758  -0.48510
 Alpha  occ. eigenvalues --   -0.48491  -0.48191  -0.48157  -0.47942  -0.47580
 Alpha  occ. eigenvalues --   -0.47216  -0.45986  -0.45378  -0.44278  -0.43084
 Alpha  occ. eigenvalues --   -0.41614  -0.39844  -0.39596  -0.38599  -0.37146
 Alpha  occ. eigenvalues --   -0.37002  -0.36721  -0.36350  -0.35652  -0.35005
 Alpha  occ. eigenvalues --   -0.34785  -0.34081  -0.33450  -0.33240  -0.33116
 Alpha  occ. eigenvalues --   -0.32521  -0.32474  -0.31784  -0.31738  -0.31674
 Alpha  occ. eigenvalues --   -0.31491  -0.28264  -0.26925  -0.25149
 Alpha virt. eigenvalues --    0.02872   0.05218   0.06400   0.08051   0.08593
 Alpha virt. eigenvalues --    0.08944   0.09765   0.10226   0.11226   0.11909
 Alpha virt. eigenvalues --    0.12472   0.13081   0.14693   0.14894   0.14929

 Mulliken charges:
               1
     1  N   -0.311201
     2  C    0.179612
     3  C    0.047288
     4  N   -0.253126
     5  C    0.130751
     6  H    0.030862
     7  N   -0.262705
     8  C    0.118254
     9  H    0.020370
    10  N   -0.291066
    11  C    0.230495
    12  C    0.086933
    13  N   -0.036804
    14  H    0.107779
    15  H    0.088507
    16  H    0.030418
    17  H    0.036601
    18  H    0.026667
    19  N   -0.294637
    20  C    0.242867
    21  C    0.196295
    22  N   -0.101811
    23  H    0.112015
    24  H    0.113898
    25  N   -0.290401
    26  C    0.207559
    27  N   -0.124084
    28  H    0.127676
    29  C    0.142851
    30  O   -0.324669
    31  C    0.010839
    32  N   -0.225152
    33  C    0.115350
    34  H    0.023750
    35  H    0.017151
    36  H    0.024317
    37  H    0.015331
    38  H    0.050698
    39  H    0.063956
    40  H    0.081706
    41  H    0.031049
    42  C   -0.083983
    43  O   -0.264735
    44  C    0.182107
    45  H    0.132721
    46  N   -0.122405
    47  O   -0.343705
    48  C    0.336250
    49  H    0.043565
    50  C    0.155300
    51  C    0.047888
    52  N   -0.281390
    53  H    0.030486
    54  H    0.033053
    55  H   -0.025506
    56  H    0.117705
    57  H    0.121384
    58  N   -0.064195
    59  C    0.136282
    60  C    0.213591
    61  N   -0.285102
    62  H    0.032220
    63  C    0.173070
    64  N   -0.307141
    65  H    0.025416
    66  C    0.114953
    67  N   -0.248402
    68  C    0.026985
    69  C    0.197945
    70  N   -0.290548
 Sum of Mulliken charges =  -0.00000

 Dipole moment (field-independent basis, Debye):
    X=             -4.0898    Y=              5.3533    Z=             -5.0404  Tot=              8.4137
 Quadrupole moment (field-independent basis, Debye-Ang):
   XX=           -140.2680   YY=           -226.5053   ZZ=           -260.7812
   XY=            -17.8263   XZ=             19.0376   YZ=              3.3216

 Normal termination of Gaussian 16 at Wed Jan 17 23:41:36 2018.
