 Gaussian 16, Revision A.03,
 Gaussian 16:  EM64L-G16RevA.03 25-Dec-2016

 ---------------------------------------
 #p wb97xd/cc-pvdz sp scf=(maxcycles=20)
 ---------------------------------------

 ------------------
 Base pair stacking
 ------------------
 Symbolic Z-matrix:
 Charge =  0 Multiplicity = 1

                         Standard orientation:
 ---------------------------------------------------------------------
 Center     Atomic      Atomic             Coordinates (Angstroms)
 Number     Number       Type             X           Y           Z
 ---------------------------------------------------------------------
      1          7           0        4.512983   -1.214558   -1.743826
      2          6           0        5.775998   -0.622960   -2.226321
      3          6           0        2.389069   -1.571572   -1.297901
      4          7           0        3.084145   -2.645733   -0.761438
      5          6           0        4.335899   -2.387652   -1.051567
      6          1           0        5.178806   -3.024799   -0.782303
      7          7           0        0.659958   -0.102861   -1.942891
      8          6           0        1.613988    0.659003   -2.487834
      9          1           0        1.262581    1.570218   -2.969977
     10          7           0        2.930739    0.465179   -2.526428
     11          6           0        3.256387   -0.681205   -1.906606
     12          6           0        1.019899   -1.249910   -1.326599
     13          7           0        0.069005   -2.011760   -0.782018
     14          1           0        0.289665   -2.869193   -0.315830
     15          1           0       -0.895816   -1.751578   -0.821443
     16          1           0        6.221822   -1.256057   -2.859255
     17          1           0        5.583414    0.237361   -2.697361
     18          1           0        6.382224   -0.447815   -1.450552
     19          7           0        5.676253    0.783011    0.791491
     20          6           0        4.344556    1.120504    0.764379
     21          6           0        6.774717    1.596876    0.233193
     22          7           0        1.820157    3.334190   -0.123745
     23          1           0        0.825652    3.390878   -0.040138
     24          1           0        2.281147    4.095171   -0.581017
     25          7           0        3.819999    2.243277    0.227483
     26          6           0        2.505669    2.285226    0.355496
     27          7           0        1.760188    1.303758    0.962528
     28          1           0        0.759844    1.419898    1.015189
     29          6           0        2.278764    0.140091    1.521836
     30          8           0        1.518348   -0.682952    2.046356
     31          6           0        3.689612    0.080808    1.391997
     32          7           0        4.591981   -0.889861    1.804824
     33          6           0        5.754851   -0.431531    1.428170
     34          1           0        6.705305   -0.941058    1.590342
     35          1           0        7.252338    1.075523   -0.473109
     36          1           0        6.398227    2.431224   -0.167298
     37          1           0        7.416318    1.837712    0.960618
     38          1           0       -4.210208    2.287532    0.383943
     39          1           0       -4.108981    2.863597    2.046036
     40          1           0       -2.724606    3.038730    0.967064
     41          1           0       -4.150733   -1.893538    2.763369
     42          6           0       -3.457738   -1.112463    2.450453
     43          8           0       -1.520623   -2.438370    2.792012
     44          6           0       -2.051923   -1.379787    2.457486
     45          1           0       -0.265284   -0.475383    2.035212
     46          7           0       -1.264229   -0.324500    2.043760
     47          8           0       -0.913239    1.788746    1.289963
     48          6           0       -1.688815    0.916418    1.639542
     49          1           0       -4.961305    0.341831    2.037993
     50          6           0       -3.902310    0.088199    2.061397
     51          6           0       -3.558528    2.407788    1.236528
     52          7           0       -3.057784    1.097258    1.660239
     53          1           0       -6.810587    2.395797   -2.736588
     54          1           0       -5.428215    2.886245   -2.022031
     55          1           0       -6.829853    2.904034   -1.185869
     56          1           0       -3.204104   -3.444379    0.083187
     57          1           0       -4.906451   -3.347503    0.030848
     58          7           0       -4.021763   -2.900274   -0.105306
     59          6           0       -3.937254   -1.634506   -0.519849
     60          6           0       -4.808002    0.466271   -1.220050
     61          7           0       -3.606441    1.041023   -1.394256
     62          1           0       -1.619867    0.569677   -1.215546
     63          6           0       -2.631544    0.182918   -1.100773
     64          7           0       -2.714152   -1.085247   -0.685422
     65          1           0       -8.033059    0.242767   -1.185569
     66          6           0       -6.960379    0.061044   -1.112974
     67          7           0       -6.420367   -1.071608   -0.734601
     68          6           0       -5.055995   -0.828306   -0.798023
     69          6           0       -6.298259    2.415695   -1.878036
     70          7           0       -6.042977    1.035567   -1.421857
 ---------------------------------------------------------------------

 SCF Done:  E(RwB97XD) =  -2048.75002387     A.U. after   15 cycles

 The electronic state is 1-A.
 Alpha  occ. eigenvalues --  -19.25164 -19.21452 -19.20765 -14.52691 -14.51634
 Alpha  occ. eigenvalues --  -14.49514 -14.48965 -14.48203 -14.47119 -14.46927
 Alpha  occ. eigenvalues --  -14.46744 -14.45468 -14.44614 -14.44543 -14.42875
 Alpha  occ. eigenvalues --  -14.42105 -14.41593 -14.41453 -14.41271 -14.40935
 Alpha  occ. eigenvalues --  -10.44736 -10.41357 -10.40123 -10.39497 -10.38451
 Alpha  occ. eigenvalues --  -10.38056 -10.37443 -10.36881 -10.36170 -10.35982
 Alpha  occ. eigenvalues --  -10.34812 -10.34164 -10.34163 -10.33982 -10.33886
 Alpha  occ. eigenvalues --  -10.33732 -10.33616 -10.32855 -10.31807 -10.31342
 Alpha  occ. eigenvalues --  -10.30203 -10.28888 -10.28554  -1.18724  -1.15408
 Alpha  occ. eigenvalues --   -1.13449  -1.12428  -1.11547  -1.11110  -1.09575
 Alpha  occ. eigenvalues --   -1.08724  -1.08452  -1.05595  -1.05044  -1.01759
 Alpha  occ. eigenvalues --   -1.01103  -1.00949  -0.99839  -0.98827  -0.97308
 Alpha  occ. eigenvalues --   -0.97161  -0.96997  -0.93272  -0.90207  -0.87840
 Alpha  occ. eigenvalues --   -0.86115  -0.84781  -0.84179  -0.83243  -0.82657
 Alpha  occ. eigenvalues --   -0.82621  -0.78101  -0.77202  -0.75116  -0.75027
 Alpha  occ. eigenvalues --   -0.73794  -0.73282  -0.72601  -0.71486  -0.70564
 Alpha  occ. eigenvalues --   -0.67618  -0.66977  -0.66711  -0.65817  -0.64697
 Alpha  occ. eigenvalues --   -0.64383  -0.63324  -0.63150  -0.62777  -0.61981
 Alpha  occ. eigenvalues --   -0.60848  -0.60829  -0.60506  -0.59747  -0.58920
 Alpha  occ. eigenvalues --   -0.58878  -0.58811  -0.58429  -0.56978  -0.55983
 Alpha  occ. eigenvalues --   -0.55713  -0.55479  -0.55309  -0.54498  -0.54398
 Alpha  occ. eigenvalues --   -0.54215  -0.53805  -0.53366  -0.53127  -0.53022
 Alpha  occ. eigenvalues --   -0.52716  -0.52063  -0.51488  -0.50730  -0.50616
 Alpha  occ. eigenvalues --   -0.50412  -0.50235  -0.49454  -0.49335  -0.49204
 Alpha  occ. eigenvalues --   -0.48822  -0.48694  -0.48219  -0.47464  -0.47341
 Alpha  occ. eigenvalues --   -0.47189  -0.45990  -0.45165  -0.45019  -0.42873
 Alpha  occ. eigenvalues --   -0.41411  -0.40836  -0.38939  -0.37946  -0.37855
 Alpha  occ. eigenvalues --   -0.37698  -0.37447  -0.37266  -0.35610  -0.34877
 Alpha  occ. eigenvalues --   -0.34533  -0.34176  -0.33773  -0.33705  -0.33136
 Alpha  occ. eigenvalues --   -0.33017  -0.32573  -0.32053  -0.31388  -0.31217
 Alpha  occ. eigenvalues --   -0.30848  -0.29952  -0.26907  -0.25175
 Alpha virt. eigenvalues --    0.03461   0.04322   0.06525   0.07490   0.08566
 Alpha virt. eigenvalues --    0.09123   0.09520   0.10222   0.10579   0.12435
 Alpha virt. eigenvalues --    0.13344   0.13372   0.14051   0.14552   0.14885

 Mulliken charges:
               1
     1  N   -0.298892
     2  C    0.193124
     3  C    0.044266
     4  N   -0.241383
     5  C    0.145863
     6  H    0.025925
     7  N   -0.288150
     8  C    0.121816
     9  H    0.005702
    10  N   -0.274317
    11  C    0.232491
    12  C    0.078529
    13  N   -0.052221
    14  H    0.116535
    15  H    0.087295
    16  H    0.027372
    17  H    0.035257
    18  H   -0.001749
    19  N   -0.301085
    20  C    0.242253
    21  C    0.181868
    22  N   -0.115448
    23  H    0.118962
    24  H    0.119609
    25  N   -0.296488
    26  C    0.233138
    27  N   -0.131199
    28  H    0.119684
    29  C    0.182047
    30  O   -0.318303
    31  C   -0.007812
    32  N   -0.210844
    33  C    0.099565
    34  H    0.022563
    35  H    0.008496
    36  H    0.035994
    37  H    0.029132
    38  H    0.051217
    39  H    0.049738
    40  H    0.073078
    41  H    0.017916
    42  C   -0.100000
    43  O   -0.276572
    44  C    0.176852
    45  H    0.129982
    46  N   -0.117903
    47  O   -0.347063
    48  C    0.324550
    49  H    0.045208
    50  C    0.155358
    51  C    0.051217
    52  N   -0.268203
    53  H    0.037560
    54  H    0.043425
    55  H    0.029248
    56  H    0.126203
    57  H    0.119372
    58  N   -0.056278
    59  C    0.097836
    60  C    0.221558
    61  N   -0.271508
    62  H    0.034408
    63  C    0.163724
    64  N   -0.306497
    65  H    0.039419
    66  C    0.138012
    67  N   -0.256878
    68  C    0.040430
    69  C    0.177449
    70  N   -0.312451
 Sum of Mulliken charges =  -0.00000

 Dipole moment (field-independent basis, Debye):
    X=             -5.0736    Y=              7.0127    Z=             -3.6617  Tot=              9.3983
 Quadrupole moment (field-independent basis, Debye-Ang):
   XX=           -146.1003   YY=           -226.0445   ZZ=           -261.4360
   XY=             -7.8757   XZ=             -8.5216   YZ=              8.1301

 Normal termination of Gaussian 16 at Wed Jan 17 20:09:04 2018.
