 Gaussian 16, Revision A.03,
 Gaussian 16:  EM64L-G16RevA.03 25-Dec-2016

 ---------------------------------------
 #p wb97xd/cc-pvdz sp scf=(maxcycles=20)
 ---------------------------------------

 ------------------
 Base pair stacking
 ------------------
 Symbolic Z-matrix:
 Charge =  0 Multiplicity = 1

                         Standard orientation:
 ---------------------------------------------------------------------
 Center     Atomic      Atomic             Coordinates (Angstroms)
 Number     Number       Type             X           Y           Z
 ---------------------------------------------------------------------
      1          7           0       -6.813154   -0.702369    0.382449
      2          6           0       -8.064708    0.041044    0.625263
      3          6           0       -4.703271   -1.322731    0.353272
      4          7           0       -5.403544   -2.295650   -0.345132
      5          6           0       -6.646640   -1.882962   -0.299605
      6          1           0       -7.490392   -2.405741   -0.750979
      7          7           0       -2.971100   -0.090679    1.375319
      8          6           0       -3.913884    0.781884    1.745974
      9          1           0       -3.556815    1.637250    2.317903
     10          7           0       -5.225354    0.756578    1.517286
     11          6           0       -5.558732   -0.334235    0.807783
     12          6           0       -3.338599   -1.177822    0.662468
     13          7           0       -2.398951   -2.049967    0.291552
     14          1           0       -2.625507   -2.868730   -0.237146
     15          1           0       -1.437015   -1.914755    0.529359
     16          1           0       -8.702525   -0.535266    1.136381
     17          1           0       -7.866053    0.866196    1.153254
     18          1           0       -8.477215    0.297873   -0.248740
     19          7           0       -3.294591    1.523186   -1.401808
     20          6           0       -1.966226    1.681622   -1.088110
     21          6           0       -4.387112    2.415857   -0.965658
     22          7           0        0.556432    3.456630    0.507918
     23          1           0        1.547871    3.391922    0.617901
     24          1           0        0.099155    4.224234    0.957802
     25          7           0       -1.440097    2.671447   -0.334787
     26          6           0       -0.129914    2.555038   -0.210403
     27          7           0        0.610283    1.547157   -0.779428
     28          1           0        1.607729    1.537460   -0.631178
     29          6           0        0.090002    0.518324   -1.558314
     30          8           0        0.845552   -0.342894   -2.025428
     31          6           0       -1.316445    0.629923   -1.700897
     32          7           0       -2.218716   -0.172630   -2.385528
     33          6           0       -3.376478    0.394559   -2.180368
     34          1           0       -4.325333    0.029770   -2.575183
     35          1           0       -5.049281    1.896286   -0.426768
     36          1           0       -4.009408    3.152971   -0.406846
     37          1           0       -4.841369    2.805186   -1.766208
     38          1           0        6.417458    1.691885    1.010576
     39          1           0        6.711655    2.430484   -0.561860
     40          1           0        5.167846    2.680470    0.253930
     41          1           0        6.378462   -2.203001   -1.813422
     42          6           0        5.726074   -1.371956   -1.545118
     43          8           0        3.763205   -2.398128   -2.394371
     44          6           0        4.329151   -1.453446   -1.844760
     45          1           0        2.603180   -0.369614   -1.658578
     46          7           0        3.594256   -0.348998   -1.463477
     47          8           0        3.331987    1.711218   -0.544818
     48          6           0        4.062188    0.782878   -0.844262
     49          1           0        7.266503   -0.169710   -0.692196
     50          6           0        6.212129   -0.280961   -0.941728
     51          6           0        5.965163    1.975295    0.071867
     52          7           0        5.419357    0.786389   -0.588701
     53          1           0        4.438740    1.432536    3.711186
     54          1           0        3.298295    2.100215    2.754282
     55          1           0        4.830259    1.946422    2.212506
     56          1           0        0.779728   -3.879862    0.043000
     57          1           0        2.435897   -4.000406    0.433730
     58          7           0        1.603664   -3.445515    0.407176
     59          6           0        1.594104   -2.182571    0.838498
     60          6           0        2.558532   -0.214985    1.765996
     61          7           0        1.426341    0.506329    1.718345
     62          1           0       -0.526837    0.292550    1.135271
     63          6           0        0.431992   -0.218661    1.209859
     64          7           0        0.439567   -1.483732    0.777297
     65          1           0        5.672838   -0.846037    2.361842
     66          6           0        4.622349   -0.889454    2.072827
     67          7           0        4.033973   -1.941330    1.557989
     68          6           0        2.724960   -1.527209    1.358679
     69          6           0        4.114996    1.524116    2.769490
     70          7           0        3.788548    0.191234    2.226473
 ---------------------------------------------------------------------

 SCF Done:  E(RwB97XD) =  -2048.74224677     A.U. after   15 cycles

 The electronic state is 1-A.
 Alpha  occ. eigenvalues --  -19.26042 -19.21975 -19.20515 -14.52690 -14.51332
 Alpha  occ. eigenvalues --  -14.50171 -14.48233 -14.47887 -14.46491 -14.46476
 Alpha  occ. eigenvalues --  -14.46335 -14.44162 -14.43188 -14.42923 -14.42880
 Alpha  occ. eigenvalues --  -14.42810 -14.42193 -14.41803 -14.41298 -14.40551
 Alpha  occ. eigenvalues --  -10.45640 -10.40884 -10.40050 -10.38442 -10.38031
 Alpha  occ. eigenvalues --  -10.37677 -10.36846 -10.36611 -10.36167 -10.35893
 Alpha  occ. eigenvalues --  -10.35450 -10.34720 -10.34650 -10.34212 -10.34057
 Alpha  occ. eigenvalues --  -10.33253 -10.32990 -10.32146 -10.31205 -10.31041
 Alpha  occ. eigenvalues --  -10.29945 -10.29586 -10.27861  -1.19663  -1.14001
 Alpha  occ. eigenvalues --   -1.13042  -1.12978  -1.12762  -1.10291  -1.09548
 Alpha  occ. eigenvalues --   -1.08336  -1.07808  -1.06234  -1.03355  -1.02585
 Alpha  occ. eigenvalues --   -1.01690  -0.99754  -0.99447  -0.98299  -0.98253
 Alpha  occ. eigenvalues --   -0.96131  -0.95451  -0.93858  -0.91113  -0.86536
 Alpha  occ. eigenvalues --   -0.85271  -0.85103  -0.84130  -0.83716  -0.83557
 Alpha  occ. eigenvalues --   -0.81798  -0.78975  -0.75805  -0.74325  -0.74096
 Alpha  occ. eigenvalues --   -0.73561  -0.73514  -0.73334  -0.72330  -0.69179
 Alpha  occ. eigenvalues --   -0.67543  -0.67113  -0.66628  -0.65510  -0.64563
 Alpha  occ. eigenvalues --   -0.63943  -0.63467  -0.63016  -0.62487  -0.61441
 Alpha  occ. eigenvalues --   -0.61418  -0.61315  -0.59621  -0.59428  -0.58571
 Alpha  occ. eigenvalues --   -0.58077  -0.57949  -0.57629  -0.57478  -0.56535
 Alpha  occ. eigenvalues --   -0.56314  -0.56001  -0.55356  -0.54452  -0.54249
 Alpha  occ. eigenvalues --   -0.54032  -0.53346  -0.53099  -0.53011  -0.52525
 Alpha  occ. eigenvalues --   -0.52235  -0.51898  -0.51605  -0.51469  -0.51304
 Alpha  occ. eigenvalues --   -0.50238  -0.49858  -0.49477  -0.48735  -0.48543
 Alpha  occ. eigenvalues --   -0.48445  -0.48144  -0.48116  -0.47978  -0.47674
 Alpha  occ. eigenvalues --   -0.47266  -0.46000  -0.45300  -0.44219  -0.43134
 Alpha  occ. eigenvalues --   -0.41909  -0.39694  -0.39537  -0.38478  -0.37119
 Alpha  occ. eigenvalues --   -0.37054  -0.36660  -0.36283  -0.35654  -0.34890
 Alpha  occ. eigenvalues --   -0.34718  -0.34130  -0.33358  -0.33172  -0.33060
 Alpha  occ. eigenvalues --   -0.32550  -0.32416  -0.31819  -0.31741  -0.31705
 Alpha  occ. eigenvalues --   -0.31509  -0.28282  -0.26913  -0.25207
 Alpha virt. eigenvalues --    0.02922   0.05335   0.06558   0.08089   0.08714
 Alpha virt. eigenvalues --    0.09001   0.09816   0.10147   0.11170   0.11953
 Alpha virt. eigenvalues --    0.12635   0.13095   0.14739   0.14831   0.15108

 Mulliken charges:
               1
     1  N   -0.310460
     2  C    0.179747
     3  C    0.043549
     4  N   -0.253135
     5  C    0.129931
     6  H    0.030501
     7  N   -0.267545
     8  C    0.123533
     9  H    0.019580
    10  N   -0.289270
    11  C    0.230917
    12  C    0.088395
    13  N   -0.036066
    14  H    0.108058
    15  H    0.088790
    16  H    0.029962
    17  H    0.036262
    18  H    0.026196
    19  N   -0.296535
    20  C    0.247678
    21  C    0.189649
    22  N   -0.108074
    23  H    0.112177
    24  H    0.115162
    25  N   -0.295141
    26  C    0.217882
    27  N   -0.124928
    28  H    0.124040
    29  C    0.146696
    30  O   -0.324686
    31  C    0.005067
    32  N   -0.225655
    33  C    0.116569
    34  H    0.024794
    35  H    0.017455
    36  H    0.026340
    37  H    0.018715
    38  H    0.053720
    39  H    0.065279
    40  H    0.081745
    41  H    0.030370
    42  C   -0.081302
    43  O   -0.266429
    44  C    0.180868
    45  H    0.133106
    46  N   -0.123596
    47  O   -0.344834
    48  C    0.337611
    49  H    0.043242
    50  C    0.154649
    51  C    0.038616
    52  N   -0.281279
    53  H    0.031651
    54  H    0.035466
    55  H   -0.018805
    56  H    0.117814
    57  H    0.121327
    58  N   -0.060885
    59  C    0.134906
    60  C    0.216895
    61  N   -0.280637
    62  H    0.033155
    63  C    0.168255
    64  N   -0.306151
    65  H    0.025015
    66  C    0.115672
    67  N   -0.247757
    68  C    0.023594
    69  C    0.195315
    70  N   -0.292742
 Sum of Mulliken charges =  -0.00000

 Dipole moment (field-independent basis, Debye):
    X=              4.1865    Y=              5.3631    Z=              4.9156  Tot=              8.3936
 Quadrupole moment (field-independent basis, Debye-Ang):
   XX=           -140.6236   YY=           -226.1806   ZZ=           -259.6043
   XY=             16.6298   XZ=             20.3140   YZ=             -1.7438

 Normal termination of Gaussian 16 at Thu Jan 18 13:28:21 2018.
