 Gaussian 16, Revision A.03,
 Gaussian 16:  EM64L-G16RevA.03 25-Dec-2016

 ---------------------------------------
 #p wb97xd/cc-pvdz sp scf=(maxcycles=20)
 ---------------------------------------

 ------------------
 Base pair stacking
 ------------------
 Symbolic Z-matrix:
 Charge =  0 Multiplicity = 1

                         Standard orientation:
 ---------------------------------------------------------------------
 Center     Atomic      Atomic             Coordinates (Angstroms)
 Number     Number       Type             X           Y           Z
 ---------------------------------------------------------------------
      1          7           0        5.712076   -1.220574   -0.883405
      2          6           0        6.986694   -0.616513   -1.317533
      3          6           0        3.574617   -1.662580   -0.612841
      4          7           0        4.262985   -2.589333    0.156572
      5          6           0        5.523172   -2.285952   -0.037231
      6          1           0        6.364183   -2.811155    0.416439
      7          7           0        1.850910   -0.439733   -1.659948
      8          6           0        2.816651    0.299923   -2.214786
      9          1           0        2.472068    1.099650   -2.868982
     10          7           0        4.137920    0.200493   -2.083462
     11          6           0        4.454423   -0.812265   -1.259699
     12          6           0        2.201862   -1.451115   -0.835930
     13          7           0        1.239290   -2.190573   -0.281125
     14          1           0        1.452992   -2.949357    0.335154
     15          1           0        0.272250   -2.011415   -0.462463
     16          1           0        7.537861   -1.302913   -1.792126
     17          1           0        6.801224    0.146473   -1.936071
     18          1           0        7.488356   -0.282220   -0.519669
     19          7           0        4.503876    1.360301    1.026128
     20          6           0        3.167772    1.581667    0.794051
     21          6           0        5.614312    2.099468    0.392672
     22          7           0        0.647013    3.329558   -0.834555
     23          1           0       -0.352283    3.330019   -0.860342
     24          1           0        1.116214    3.993729   -1.417160
     25          7           0        2.649024    2.504204   -0.044912
     26          6           0        1.328122    2.476988   -0.054097
     27          7           0        0.571253    1.613196    0.699904
     28          1           0       -0.433460    1.663539    0.629323
     29          6           0        1.083675    0.655863    1.569857
     30          8           0        0.312995   -0.074944    2.204460
     31          6           0        2.501473    0.673059    1.590464
     32          7           0        3.401175   -0.103120    2.308089
     33          6           0        4.573641    0.339077    1.942039
     34          1           0        5.525187   -0.045651    2.310571
     35          1           0        6.191221    1.463619   -0.118875
     36          1           0        5.242203    2.785641   -0.231002
     37          1           0        6.160360    2.551900    1.096904
     38          1           0       -5.342865    1.985169   -0.654029
     39          1           0       -5.451490    2.942144    0.821449
     40          1           0       -3.968748    2.961125   -0.133784
     41          1           0       -5.332677   -1.501978    2.660519
     42          6           0       -4.649790   -0.767074    2.234138
     43          8           0       -2.697240   -1.827105    3.065402
     44          6           0       -3.241429   -0.919651    2.436774
     45          1           0       -1.467043   -0.009416    1.977036
     46          7           0       -2.467310    0.064325    1.855566
     47          8           0       -2.142826    1.960890    0.649369
     48          6           0       -2.907110    1.140026    1.125509
     49          1           0       -6.170632    0.432999    1.343824
     50          6           0       -5.109066    0.271701    1.526584
     51          6           0       -4.794350    2.350950    0.201181
     52          7           0       -4.277569    1.218075    0.974004
     53          1           0       -5.607823    1.351221   -3.620059
     54          1           0       -4.347320    2.044583   -2.850333
     55          1           0       -5.834869    2.084259   -2.179728
     56          1           0       -2.025125   -3.714881    0.449880
     57          1           0       -3.712775   -3.753237    0.203978
     58          7           0       -2.845132   -3.267374    0.092859
     59          6           0       -2.785371   -2.075676   -0.505026
     60          6           0       -3.687375   -0.174498   -1.615717
     61          7           0       -2.508347    0.454814   -1.750959
     62          1           0       -0.532147    0.164059   -1.291964
     63          6           0       -1.526695   -0.274813   -1.224746
     64          7           0       -1.584523   -1.468611   -0.625496
     65          1           0       -6.876905   -0.628307   -1.886126
     66          6           0       -5.811198   -0.717144   -1.673233
     67          7           0       -5.255019   -1.736838   -1.066127
     68          6           0       -3.908489   -1.405554   -1.023160
     69          6           0       -5.200018    1.537981   -2.726294
     70          7           0       -4.921126    0.264968   -2.033713
 ---------------------------------------------------------------------

 SCF Done:  E(RwB97XD) =  -2048.74108464     A.U. after   15 cycles

 The electronic state is 1-A.
 Alpha  occ. eigenvalues --  -19.25166 -19.21526 -19.20544 -14.52371 -14.52040
 Alpha  occ. eigenvalues --  -14.49545 -14.48750 -14.47355 -14.47353 -14.46741
 Alpha  occ. eigenvalues --  -14.46558 -14.45161 -14.43955 -14.43882 -14.42925
 Alpha  occ. eigenvalues --  -14.41976 -14.41827 -14.41485 -14.40862 -14.40813
 Alpha  occ. eigenvalues --  -10.44884 -10.41065 -10.39633 -10.39399 -10.38170
 Alpha  occ. eigenvalues --  -10.37808 -10.37188 -10.36983 -10.36133 -10.35507
 Alpha  occ. eigenvalues --  -10.34812 -10.34666 -10.34243 -10.34236 -10.34053
 Alpha  occ. eigenvalues --  -10.33727 -10.33325 -10.32310 -10.32063 -10.30820
 Alpha  occ. eigenvalues --  -10.30460 -10.29134 -10.28049  -1.18918  -1.15107
 Alpha  occ. eigenvalues --   -1.13108  -1.12545  -1.12069  -1.10519  -1.08933
 Alpha  occ. eigenvalues --   -1.08763  -1.08445  -1.05700  -1.04322  -1.02064
 Alpha  occ. eigenvalues --   -1.01102  -1.00853  -0.99609  -0.98404  -0.97717
 Alpha  occ. eigenvalues --   -0.96502  -0.96445  -0.93350  -0.90505  -0.87599
 Alpha  occ. eigenvalues --   -0.86140  -0.84776  -0.84011  -0.83366  -0.83216
 Alpha  occ. eigenvalues --   -0.82379  -0.78393  -0.76731  -0.74619  -0.74456
 Alpha  occ. eigenvalues --   -0.73601  -0.73493  -0.72926  -0.71712  -0.70125
 Alpha  occ. eigenvalues --   -0.67288  -0.67009  -0.66499  -0.66128  -0.64289
 Alpha  occ. eigenvalues --   -0.63983  -0.63735  -0.63392  -0.62501  -0.62375
 Alpha  occ. eigenvalues --   -0.61644  -0.60998  -0.60260  -0.59282  -0.59127
 Alpha  occ. eigenvalues --   -0.58589  -0.58252  -0.58092  -0.57265  -0.56178
 Alpha  occ. eigenvalues --   -0.55755  -0.55525  -0.55321  -0.54901  -0.54016
 Alpha  occ. eigenvalues --   -0.53855  -0.53532  -0.53422  -0.52810  -0.52712
 Alpha  occ. eigenvalues --   -0.52570  -0.52254  -0.51415  -0.51226  -0.50931
 Alpha  occ. eigenvalues --   -0.50001  -0.49967  -0.49422  -0.49150  -0.49003
 Alpha  occ. eigenvalues --   -0.48614  -0.48483  -0.48148  -0.47716  -0.47249
 Alpha  occ. eigenvalues --   -0.47179  -0.46086  -0.45407  -0.44016  -0.42769
 Alpha  occ. eigenvalues --   -0.41740  -0.40442  -0.38942  -0.37740  -0.37623
 Alpha  occ. eigenvalues --   -0.37236  -0.37071  -0.36824  -0.36018  -0.34572
 Alpha  occ. eigenvalues --   -0.34470  -0.34225  -0.33783  -0.33633  -0.32861
 Alpha  occ. eigenvalues --   -0.32487  -0.32134  -0.31781  -0.31606  -0.31262
 Alpha  occ. eigenvalues --   -0.31024  -0.29321  -0.26775  -0.25064
 Alpha virt. eigenvalues --    0.03556   0.04242   0.07219   0.07418   0.08774
 Alpha virt. eigenvalues --    0.09213   0.09789   0.10310   0.10564   0.12538
 Alpha virt. eigenvalues --    0.13118   0.13673   0.14341   0.14424   0.14856

 Mulliken charges:
               1
     1  N   -0.306161
     2  C    0.182569
     3  C    0.061133
     4  N   -0.241333
     5  C    0.119597
     6  H    0.026101
     7  N   -0.285136
     8  C    0.140315
     9  H    0.009749
    10  N   -0.279793
    11  C    0.220939
    12  C    0.079600
    13  N   -0.042551
    14  H    0.111825
    15  H    0.088091
    16  H    0.028199
    17  H    0.040655
    18  H    0.026894
    19  N   -0.289302
    20  C    0.236691
    21  C    0.204887
    22  N   -0.117687
    23  H    0.117876
    24  H    0.117557
    25  N   -0.297463
    26  C    0.230273
    27  N   -0.136547
    28  H    0.115882
    29  C    0.178825
    30  O   -0.324101
    31  C   -0.009255
    32  N   -0.214490
    33  C    0.121159
    34  H    0.017557
    35  H   -0.026557
    36  H    0.035521
    37  H    0.023934
    38  H    0.029369
    39  H    0.058099
    40  H    0.077902
    41  H    0.024368
    42  C   -0.086333
    43  O   -0.271066
    44  C    0.158330
    45  H    0.131774
    46  N   -0.111554
    47  O   -0.340176
    48  C    0.331735
    49  H    0.040430
    50  C    0.165364
    51  C    0.046779
    52  N   -0.272224
    53  H    0.031680
    54  H    0.042568
    55  H    0.019607
    56  H    0.123385
    57  H    0.119233
    58  N   -0.046951
    59  C    0.095611
    60  C    0.211483
    61  N   -0.256309
    62  H    0.026511
    63  C    0.155246
    64  N   -0.295062
    65  H    0.034584
    66  C    0.115538
    67  N   -0.245475
    68  C    0.038944
    69  C    0.187098
    70  N   -0.305943
 Sum of Mulliken charges =  -0.00000

 Dipole moment (field-independent basis, Debye):
    X=             -4.6318    Y=              5.2329    Z=             -5.7173  Tot=              9.0291
 Quadrupole moment (field-independent basis, Debye-Ang):
   XX=           -146.1320   YY=           -224.1573   ZZ=           -263.4214
   XY=            -11.7026   XZ=              9.3127   YZ=             -1.7335

 Normal termination of Gaussian 16 at Thu Jan 18 10:32:36 2018.
