 Gaussian 16, Revision A.03,
 Gaussian 16:  EM64L-G16RevA.03 25-Dec-2016

 ---------------------------------------
 #p wb97xd/cc-pvdz sp scf=(maxcycles=20)
 ---------------------------------------

 ------------------
 Base pair stacking
 ------------------
 Symbolic Z-matrix:
 Charge =  0 Multiplicity = 1

                         Standard orientation:
 ---------------------------------------------------------------------
 Center     Atomic      Atomic             Coordinates (Angstroms)
 Number     Number       Type             X           Y           Z
 ---------------------------------------------------------------------
      1          7           0       -7.083516   -0.617905    0.263351
      2          6           0       -8.332464    0.122614    0.527470
      3          6           0       -4.978462   -1.254322    0.231095
      4          7           0       -5.676308   -2.182933   -0.527459
      5          6           0       -6.916601   -1.762354   -0.477665
      6          1           0       -7.757867   -2.253228   -0.967802
      7          7           0       -3.251467   -0.093004    1.340961
      8          6           0       -4.192512    0.767049    1.743890
      9          1           0       -3.836921    1.587947    2.365119
     10          7           0       -5.500693    0.765305    1.495796
     11          6           0       -5.832479   -0.283674    0.725093
     12          6           0       -3.617290   -1.137837    0.566645
     13          7           0       -2.679376   -1.997435    0.163429
     14          1           0       -2.904804   -2.785204   -0.410868
     15          1           0       -1.719935   -1.883357    0.421527
     16          1           0       -8.982206   -0.474198    0.998447
     17          1           0       -8.134877    0.917055    1.101022
     18          1           0       -8.730200    0.428720   -0.337463
     19          7           0       -2.982845    1.621122   -1.441929
     20          6           0       -1.655555    1.758789   -1.114202
     21          6           0       -4.059783    2.552802   -1.050942
     22          7           0        0.886266    3.525932    0.459998
     23          1           0        1.874271    3.441801    0.586462
     24          1           0        0.441171    4.318306    0.878026
     25          7           0       -1.116533    2.760246   -0.385803
     26          6           0        0.188689    2.617512   -0.238614
     27          7           0        0.912522    1.574554   -0.763794
     28          1           0        1.907313    1.546499   -0.600783
     29          6           0        0.378763    0.533129   -1.516388
     30          8           0        1.120027   -0.360296   -1.944259
     31          6           0       -1.022529    0.672711   -1.683005
     32          7           0       -1.934063   -0.130616   -2.354322
     33          6           0       -3.080759    0.469796   -2.184565
     34          1           0       -4.032458    0.114450   -2.581129
     35          1           0       -4.741479    2.066747   -0.505191
     36          1           0       -3.672436    3.298850   -0.510897
     37          1           0       -4.493564    2.926152   -1.870238
     38          1           0        6.696223    1.642620    1.105035
     39          1           0        7.029564    2.322230   -0.486086
     40          1           0        5.481001    2.634698    0.298574
     41          1           0        6.603754   -2.340781   -1.591371
     42          6           0        5.967640   -1.486420   -1.359715
     43          8           0        3.992864   -2.493895   -2.203750
     44          6           0        4.573445   -1.545142   -1.676884
     45          1           0        2.871291   -0.415893   -1.551146
     46          7           0        3.859791   -0.411974   -1.342382
     47          8           0        3.633864    1.682790   -0.494983
     48          6           0        4.345875    0.728396   -0.753471
     49          1           0        7.524258   -0.293048   -0.523883
     50          6           0        6.471085   -0.387849   -0.785013
     51          6           0        6.263797    1.905564    0.151137
     52          7           0        5.699076    0.708673   -0.478396
     53          1           0        4.135727    1.240157    3.857771
     54          1           0        3.014635    1.967255    2.921521
     55          1           0        4.553001    1.828805    2.393948
     56          1           0        0.487817   -3.839454   -0.136707
     57          1           0        2.137138   -3.994906    0.270334
     58          7           0        1.309840   -3.432124    0.261420
     59          6           0        1.304145   -2.193602    0.758627
     60          6           0        2.270754   -0.286122    1.802125
     61          7           0        1.145180    0.446593    1.776725
     62          1           0       -0.800998    0.280923    1.155816
     63          6           0        0.152535   -0.241881    1.216774
     64          7           0        0.156244   -1.482435    0.718186
     65          1           0        5.370954   -0.974904    2.407504
     66          6           0        4.324450   -0.993852    2.101880
     67          7           0        3.735190   -2.011961    1.524033
     68          6           0        2.432560   -1.576475    1.328501
     69          6           0        3.826389    1.384029    2.917768
     70          7           0        3.497181    0.084505    2.300637
 ---------------------------------------------------------------------

 SCF Done:  E(RwB97XD) =  -2048.74777359     A.U. after   15 cycles

 The electronic state is 1-A.
 Alpha  occ. eigenvalues --  -19.26122 -19.21933 -19.20570 -14.52717 -14.51097
 Alpha  occ. eigenvalues --  -14.50157 -14.48320 -14.47868 -14.46552 -14.46491
 Alpha  occ. eigenvalues --  -14.46141 -14.43901 -14.43198 -14.42864 -14.42657
 Alpha  occ. eigenvalues --  -14.42600 -14.42249 -14.41874 -14.41383 -14.40599
 Alpha  occ. eigenvalues --  -10.45697 -10.40974 -10.40042 -10.38149 -10.38125
 Alpha  occ. eigenvalues --  -10.37734 -10.36675 -10.36582 -10.36089 -10.35643
 Alpha  occ. eigenvalues --  -10.35490 -10.34796 -10.34320 -10.34308 -10.34122
 Alpha  occ. eigenvalues --  -10.33165 -10.32992 -10.32088 -10.31105 -10.30970
 Alpha  occ. eigenvalues --  -10.29996 -10.29910 -10.27942  -1.19701  -1.13750
 Alpha  occ. eigenvalues --   -1.13084  -1.12946  -1.12778  -1.10343  -1.09565
 Alpha  occ. eigenvalues --   -1.08410  -1.07508  -1.06290  -1.03055  -1.02549
 Alpha  occ. eigenvalues --   -1.01704  -0.99581  -0.99467  -0.98344  -0.98275
 Alpha  occ. eigenvalues --   -0.96215  -0.95164  -0.93886  -0.91133  -0.86241
 Alpha  occ. eigenvalues --   -0.85281  -0.84770  -0.84141  -0.83786  -0.83582
 Alpha  occ. eigenvalues --   -0.81951  -0.78988  -0.75522  -0.74401  -0.74130
 Alpha  occ. eigenvalues --   -0.73525  -0.73386  -0.73234  -0.72369  -0.68884
 Alpha  occ. eigenvalues --   -0.67564  -0.67191  -0.66640  -0.65204  -0.64514
 Alpha  occ. eigenvalues --   -0.63964  -0.63543  -0.62735  -0.62524  -0.61525
 Alpha  occ. eigenvalues --   -0.61329  -0.60787  -0.59607  -0.59120  -0.58376
 Alpha  occ. eigenvalues --   -0.58178  -0.57972  -0.57777  -0.57541  -0.56525
 Alpha  occ. eigenvalues --   -0.56349  -0.56057  -0.54769  -0.54457  -0.54068
 Alpha  occ. eigenvalues --   -0.53847  -0.53415  -0.53050  -0.52977  -0.52626
 Alpha  occ. eigenvalues --   -0.52290  -0.51974  -0.51656  -0.51461  -0.51312
 Alpha  occ. eigenvalues --   -0.50251  -0.49935  -0.49484  -0.48587  -0.48561
 Alpha  occ. eigenvalues --   -0.48365  -0.48154  -0.48074  -0.47785  -0.47779
 Alpha  occ. eigenvalues --   -0.47314  -0.46156  -0.45155  -0.44202  -0.43034
 Alpha  occ. eigenvalues --   -0.42164  -0.39661  -0.39359  -0.38499  -0.37134
 Alpha  occ. eigenvalues --   -0.37086  -0.36490  -0.35926  -0.35435  -0.34838
 Alpha  occ. eigenvalues --   -0.34774  -0.34351  -0.33192  -0.33070  -0.32933
 Alpha  occ. eigenvalues --   -0.32615  -0.32460  -0.31929  -0.31814  -0.31773
 Alpha  occ. eigenvalues --   -0.31508  -0.28065  -0.26956  -0.25299
 Alpha virt. eigenvalues --    0.03080   0.05341   0.06492   0.08156   0.08769
 Alpha virt. eigenvalues --    0.08967   0.09875   0.10081   0.10951   0.12241
 Alpha virt. eigenvalues --    0.12721   0.13081   0.14700   0.14859   0.15336

 Mulliken charges:
               1
     1  N   -0.310325
     2  C    0.180211
     3  C    0.036149
     4  N   -0.255806
     5  C    0.131846
     6  H    0.030826
     7  N   -0.268495
     8  C    0.120721
     9  H    0.020788
    10  N   -0.286847
    11  C    0.234863
    12  C    0.083097
    13  N   -0.033444
    14  H    0.107625
    15  H    0.090618
    16  H    0.029237
    17  H    0.036341
    18  H    0.026471
    19  N   -0.296682
    20  C    0.242402
    21  C    0.187946
    22  N   -0.111728
    23  H    0.110981
    24  H    0.116152
    25  N   -0.297157
    26  C    0.226558
    27  N   -0.115659
    28  H    0.118810
    29  C    0.140382
    30  O   -0.324292
    31  C    0.004628
    32  N   -0.225834
    33  C    0.116055
    34  H    0.028215
    35  H    0.020501
    36  H    0.026232
    37  H    0.020587
    38  H    0.053856
    39  H    0.066316
    40  H    0.081614
    41  H    0.031428
    42  C   -0.088594
    43  O   -0.267539
    44  C    0.187355
    45  H    0.133551
    46  N   -0.126060
    47  O   -0.348752
    48  C    0.340815
    49  H    0.044847
    50  C    0.156285
    51  C    0.034362
    52  N   -0.287238
    53  H    0.031288
    54  H    0.034599
    55  H   -0.005049
    56  H    0.116381
    57  H    0.122132
    58  N   -0.060442
    59  C    0.140637
    60  C    0.224441
    61  N   -0.273404
    62  H    0.043323
    63  C    0.153756
    64  N   -0.304686
    65  H    0.022758
    66  C    0.110972
    67  N   -0.247428
    68  C    0.021456
    69  C    0.189593
    70  N   -0.294545
 Sum of Mulliken charges =  -0.00000

 Dipole moment (field-independent basis, Debye):
    X=              4.1994    Y=              5.4783    Z=              4.6374  Tot=              8.3158
 Quadrupole moment (field-independent basis, Debye-Ang):
   XX=           -138.8764   YY=           -226.8147   ZZ=           -257.0946
   XY=             16.9474   XZ=             23.8934   YZ=             -1.1504

 Normal termination of Gaussian 16 at Wed Jan 17 20:21:12 2018.
