 Gaussian 16, Revision A.03,
 Gaussian 16:  EM64L-G16RevA.03 25-Dec-2016

 ---------------------------------------
 #p wb97xd/cc-pvdz sp scf=(maxcycles=20)
 ---------------------------------------

 ------------------
 Base pair stacking
 ------------------
 Symbolic Z-matrix:
 Charge =  0 Multiplicity = 1

                         Standard orientation:
 ---------------------------------------------------------------------
 Center     Atomic      Atomic             Coordinates (Angstroms)
 Number     Number       Type             X           Y           Z
 ---------------------------------------------------------------------
      1          7           0        4.852937   -0.509464   -1.658385
      2          6           0        6.131187    0.227575   -1.687588
      3          6           0        2.712958   -1.013882   -1.600244
      4          7           0        3.395437   -2.221215   -1.636160
      5          6           0        4.657378   -1.868999   -1.669753
      6          1           0        5.494976   -2.566280   -1.703863
      7          7           0        0.997137    0.602807   -1.527966
      8          6           0        1.967399    1.522519   -1.545561
      9          1           0        1.627882    2.557142   -1.522177
     10          7           0        3.287890    1.356851   -1.587485
     11          6           0        3.597994    0.050105   -1.613430
     12          6           0        1.341703   -0.703192   -1.554941
     13          7           0        0.374596   -1.622740   -1.537452
     14          1           0        0.583522   -2.601116   -1.556169
     15          1           0       -0.591196   -1.365187   -1.505049
     16          1           0        6.631698   -0.003372   -2.522050
     17          1           0        5.950528    1.210511   -1.669656
     18          1           0        6.681170   -0.023118   -0.890916
     19          7           0        5.364579    0.457589    1.008577
     20          6           0        4.027432    0.773971    1.006949
     21          6           0        6.460024    1.377826    0.642717
     22          7           0        1.481895    3.075866    0.474716
     23          1           0        0.484664    3.100877    0.539164
     24          1           0        1.938730    3.915660    0.180160
     25          7           0        3.493928    1.969061    0.673523
     26          6           0        2.176228    1.966478    0.769796
     27          7           0        1.435747    0.877856    1.162373
     28          1           0        0.432254    0.966952    1.207326
     29          6           0        1.963534   -0.361676    1.510034
     30          8           0        1.207002   -1.279497    1.850600
     31          6           0        3.378110   -0.374300    1.411478
     32          7           0        4.289263   -1.391115    1.662042
     33          6           0        5.451711   -0.853017    1.410302
     34          1           0        6.407894   -1.369377    1.501780
     35          1           0        6.965599    1.004573   -0.134385
     36          1           0        6.076904    2.266394    0.393830
     37          1           0        7.078220    1.488541    1.420136
     38          1           0       -4.536944    1.861566    0.607761
     39          1           0       -4.488992    2.119162    2.350172
     40          1           0       -3.081856    2.513339    1.362268
     41          1           0       -4.452661   -2.688379    2.169008
     42          6           0       -3.767963   -1.852244    2.026552
     43          8           0       -1.813630   -3.189045    2.170398
     44          6           0       -2.357646   -2.094834    2.023600
     45          1           0       -0.579625   -1.100574    1.827679
     46          7           0       -1.581310   -0.969100    1.835814
     47          8           0       -1.254283    1.252692    1.498348
     48          6           0       -2.020595    0.318826    1.657496
     49          1           0       -5.289784   -0.369539    1.849227
     50          6           0       -4.226796   -0.606983    1.855082
     51          6           0       -3.909357    1.830647    1.485966
     52          7           0       -3.393031    0.471864    1.672642
     53          1           0       -6.459798    3.261875   -1.451649
     54          1           0       -5.138635    3.303242   -0.495126
     55          1           0       -6.592105    2.914059    0.137359
     56          1           0       -2.915024   -3.250874   -1.741916
     57          1           0       -4.612032   -3.117338   -1.853450
     58          7           0       -3.730633   -2.675081   -1.683803
     59          6           0       -3.647718   -1.375160   -1.393086
     60          6           0       -4.517873    0.802413   -0.989737
     61          7           0       -3.320761    1.369492   -0.766668
     62          1           0       -1.340035    0.845226   -0.716940
     63          6           0       -2.348084    0.467673   -0.882950
     64          7           0       -2.429098   -0.834733   -1.174058
     65          1           0       -7.732397    0.636857   -1.292382
     66          6           0       -6.662958    0.428614   -1.249185
     67          7           0       -6.123483   -0.746852   -1.461138
     68          6           0       -4.763726   -0.523855   -1.299721
     69          6           0       -6.005410    2.836712   -0.668852
     70          7           0       -5.749505    1.412441   -0.958636
 ---------------------------------------------------------------------

 SCF Done:  E(RwB97XD) =  -2048.60321231     A.U. after   16 cycles

 The electronic state is 1-A.
 Alpha  occ. eigenvalues --  -19.25011 -19.21113 -19.20764 -14.53156 -14.51352
 Alpha  occ. eigenvalues --  -14.49308 -14.49205 -14.48431 -14.47013 -14.46719
 Alpha  occ. eigenvalues --  -14.46571 -14.45734 -14.44616 -14.44213 -14.42925
 Alpha  occ. eigenvalues --  -14.41599 -14.41565 -14.41475 -14.41044 -14.40775
 Alpha  occ. eigenvalues --  -10.44601 -10.40854 -10.40306 -10.39227 -10.38329
 Alpha  occ. eigenvalues --  -10.38296 -10.37506 -10.36913 -10.35971 -10.35835
 Alpha  occ. eigenvalues --  -10.34748 -10.34464 -10.34433 -10.33934 -10.33757
 Alpha  occ. eigenvalues --  -10.33049 -10.32966 -10.32876 -10.31495 -10.30822
 Alpha  occ. eigenvalues --  -10.30059 -10.28820 -10.28453  -1.18816  -1.15930
 Alpha  occ. eigenvalues --   -1.13628  -1.12169  -1.11858  -1.10983  -1.09779
 Alpha  occ. eigenvalues --   -1.09028  -1.08421  -1.05584  -1.05342  -1.01684
 Alpha  occ. eigenvalues --   -1.01555  -1.01220  -1.00063  -0.98764  -0.97915
 Alpha  occ. eigenvalues --   -0.97429  -0.96841  -0.93290  -0.90068  -0.88176
 Alpha  occ. eigenvalues --   -0.86700  -0.86374  -0.84118  -0.83767  -0.82604
 Alpha  occ. eigenvalues --   -0.81995  -0.78016  -0.77532  -0.75560  -0.75074
 Alpha  occ. eigenvalues --   -0.74057  -0.73400  -0.72516  -0.71686  -0.70916
 Alpha  occ. eigenvalues --   -0.68033  -0.67471  -0.66946  -0.65726  -0.64999
 Alpha  occ. eigenvalues --   -0.64763  -0.63520  -0.63344  -0.62746  -0.62212
 Alpha  occ. eigenvalues --   -0.62075  -0.61929  -0.61060  -0.60576  -0.60002
 Alpha  occ. eigenvalues --   -0.59098  -0.58931  -0.58553  -0.57830  -0.56646
 Alpha  occ. eigenvalues --   -0.56333  -0.55940  -0.55604  -0.54510  -0.54360
 Alpha  occ. eigenvalues --   -0.53892  -0.53707  -0.53434  -0.52994  -0.52946
 Alpha  occ. eigenvalues --   -0.52402  -0.52009  -0.51534  -0.51019  -0.50549
 Alpha  occ. eigenvalues --   -0.50394  -0.49948  -0.49499  -0.49288  -0.49142
 Alpha  occ. eigenvalues --   -0.48628  -0.48244  -0.47974  -0.47508  -0.47332
 Alpha  occ. eigenvalues --   -0.46971  -0.46428  -0.44269  -0.43690  -0.42710
 Alpha  occ. eigenvalues --   -0.40942  -0.40620  -0.39022  -0.38541  -0.37981
 Alpha  occ. eigenvalues --   -0.37762  -0.37334  -0.36378  -0.35582  -0.34931
 Alpha  occ. eigenvalues --   -0.34794  -0.34667  -0.33987  -0.33480  -0.32950
 Alpha  occ. eigenvalues --   -0.32573  -0.32359  -0.31987  -0.31580  -0.30920
 Alpha  occ. eigenvalues --   -0.29706  -0.29351  -0.27873  -0.23447
 Alpha virt. eigenvalues --    0.03292   0.04078   0.05496   0.06217   0.07279
 Alpha virt. eigenvalues --    0.09376   0.10082   0.10308   0.11743   0.12571
 Alpha virt. eigenvalues --    0.12631   0.13377   0.14066   0.14597   0.15287

 Mulliken charges:
               1
     1  N   -0.293020
     2  C    0.216246
     3  C    0.075898
     4  N   -0.247806
     5  C    0.136463
     6  H    0.024721
     7  N   -0.273092
     8  C    0.134583
     9  H   -0.001191
    10  N   -0.253483
    11  C    0.199832
    12  C    0.054944
    13  N   -0.050011
    14  H    0.110138
    15  H    0.083705
    16  H    0.020916
    17  H    0.023706
    18  H    0.004411
    19  N   -0.297307
    20  C    0.202294
    21  C    0.178518
    22  N   -0.082252
    23  H    0.122468
    24  H    0.123509
    25  N   -0.219844
    26  C    0.097248
    27  N   -0.081733
    28  H    0.119801
    29  C    0.162443
    30  O   -0.317387
    31  C    0.021584
    32  N   -0.208115
    33  C    0.101517
    34  H    0.023034
    35  H    0.004397
    36  H    0.037531
    37  H    0.016652
    38  H    0.001768
    39  H    0.032335
    40  H    0.074529
    41  H    0.023325
    42  C   -0.103297
    43  O   -0.270731
    44  C    0.175121
    45  H    0.128733
    46  N   -0.107373
    47  O   -0.341864
    48  C    0.297173
    49  H    0.044008
    50  C    0.160219
    51  C    0.107255
    52  N   -0.269763
    53  H    0.032803
    54  H    0.049758
    55  H    0.029699
    56  H    0.123660
    57  H    0.121364
    58  N   -0.062700
    59  C    0.120882
    60  C    0.236116
    61  N   -0.300341
    62  H    0.023846
    63  C    0.179020
    64  N   -0.307840
    65  H    0.039979
    66  C    0.134627
    67  N   -0.253066
    68  C    0.038524
    69  C    0.194356
    70  N   -0.323445
 Sum of Mulliken charges =  -0.00000

 Dipole moment (field-independent basis, Debye):
    X=             -4.9781    Y=              7.7146    Z=             -3.1725  Tot=              9.7140
 Quadrupole moment (field-independent basis, Debye-Ang):
   XX=           -146.3350   YY=           -235.2709   ZZ=           -257.9331
   XY=             -6.7068   XZ=             -7.7354   YZ=             18.3092

 Normal termination of Gaussian 16 at Thu Jan 18 08:17:14 2018.
