 Gaussian 16, Revision A.03,
 Gaussian 16:  EM64L-G16RevA.03 25-Dec-2016

 ---------------------------------------
 #p wb97xd/cc-pvdz sp scf=(maxcycles=20)
 ---------------------------------------

 ------------------
 Base pair stacking
 ------------------
 Symbolic Z-matrix:
 Charge =  0 Multiplicity = 1

                         Standard orientation:
 ---------------------------------------------------------------------
 Center     Atomic      Atomic             Coordinates (Angstroms)
 Number     Number       Type             X           Y           Z
 ---------------------------------------------------------------------
      1          7           0       -6.023215   -1.474917    0.375530
      2          6           0       -7.299119   -1.178824    1.055530
      3          6           0       -3.885101   -1.721771   -0.077100
      4          7           0       -4.570850   -2.109767   -1.218997
      5          6           0       -5.831533   -1.945517   -0.900608
      6          1           0       -6.670939   -2.154096   -1.564557
      7          7           0       -2.165062   -1.230252    1.460050
      8          6           0       -3.132521   -0.882614    2.314883
      9          1           0       -2.790151   -0.541547    3.290956
     10          7           0       -4.453212   -0.892981    2.145830
     11          6           0       -4.766950   -1.327898    0.914232
     12          6           0       -2.513252   -1.663712    0.228807
     13          7           0       -1.548950   -2.011195   -0.625919
     14          1           0       -1.760598   -2.337628   -1.547798
     15          1           0       -0.582625   -1.957085   -0.374050
     16          1           0       -7.854404   -2.009314    1.101619
     17          1           0       -7.115709   -0.849838    1.981414
     18          1           0       -7.795466   -0.475921    0.546071
     19          7           0       -4.166987    1.992340   -0.600563
     20          6           0       -2.827777    2.103861   -0.313987
     21          6           0       -5.258538    2.638008    0.155948
     22          7           0       -0.270246    3.378259    1.660022
     23          1           0        0.727529    3.329618    1.696463
     24          1           0       -0.723305    3.932500    2.358790
     25          7           0       -2.288379    2.816297    0.698698
     26          6           0       -0.970125    2.729747    0.716889
     27          7           0       -0.234487    2.001734   -0.186623
     28          1           0        0.769863    1.992724   -0.096241
     29          6           0       -0.768368    1.261156   -1.236574
     30          8           0       -0.015860    0.638846   -1.996297
     31          6           0       -2.183608    1.344442   -1.269040
     32          7           0       -3.099966    0.767762   -2.137729
     33          6           0       -4.260369    1.178948   -1.703435
     34          1           0       -5.219400    0.917904   -2.152182
     35          1           0       -5.870901    1.938714    0.523102
     36          1           0       -4.871049    3.168590    0.908686
     37          1           0       -5.771679    3.245680   -0.449215
     38          1           0        5.662102    1.835073    1.279921
     39          1           0        5.838746    3.062034    0.027712
     40          1           0        4.339500    2.954800    0.950832
     41          1           0        5.574687   -0.915015   -2.666719
     42          6           0        4.914135   -0.250896   -2.109172
     43          8           0        2.936643   -1.036418   -3.157794
     44          6           0        3.504975   -0.297806   -2.353903
     45          1           0        1.760557    0.579240   -1.740614
     46          7           0        2.760410    0.583154   -1.595743
     47          8           0        2.490003    2.212631   -0.037266
     48          6           0        3.229341    1.470753   -0.659889
     49          1           0        6.464921    0.678870   -0.979385
     50          6           0        5.401450    0.604199   -1.202563
     51          6           0        5.145924    2.388239    0.509449
     52          7           0        4.598592    1.456590   -0.480614
     53          1           0        5.285740   -0.755611    4.094920
     54          1           0        4.031114    0.242906    3.793302
     55          1           0        5.522603    0.618598    3.247054
     56          1           0        1.716592   -2.948191   -2.030383
     57          1           0        3.402702   -3.116836   -1.833720
     58          7           0        2.535400   -2.755595   -1.489466
     59          6           0        2.474560   -2.048567   -0.359161
     60          6           0        3.373902   -1.006922    1.581933
     61          7           0        2.195370   -0.534244    2.020199
     62          1           0        0.221285   -0.534452    1.469201
     63          6           0        1.215334   -0.879008    1.187391
     64          7           0        1.274250   -1.587100    0.054820
     65          1           0        6.560896   -1.550243    1.589298
     66          6           0        5.496274   -1.510328    1.357092
     67          7           0        4.941580   -2.062746    0.305985
     68          6           0        3.595989   -1.751096    0.436341
     69          6           0        4.883503   -0.129259    3.427174
     70          7           0        4.606086   -0.854876    2.172369
 ---------------------------------------------------------------------

 SCF Done:  E(RwB97XD) =  -2048.73772178     A.U. after   15 cycles

 The electronic state is 1-A.
 Alpha  occ. eigenvalues --  -19.25649 -19.21898 -19.20761 -14.52381 -14.51629
 Alpha  occ. eigenvalues --  -14.49380 -14.48820 -14.47643 -14.46998 -14.46709
 Alpha  occ. eigenvalues --  -14.45942 -14.44447 -14.43185 -14.42922 -14.42419
 Alpha  occ. eigenvalues --  -14.42033 -14.41869 -14.41338 -14.40820 -14.40601
 Alpha  occ. eigenvalues --  -10.45309 -10.41267 -10.39835 -10.38355 -10.38339
 Alpha  occ. eigenvalues --  -10.37260 -10.37016 -10.36230 -10.35800 -10.35540
 Alpha  occ. eigenvalues --  -10.34803 -10.34580 -10.34375 -10.33893 -10.33512
 Alpha  occ. eigenvalues --  -10.33489 -10.33313 -10.31696 -10.31496 -10.30928
 Alpha  occ. eigenvalues --  -10.30551 -10.28988 -10.28147  -1.19270  -1.14290
 Alpha  occ. eigenvalues --   -1.13272  -1.13175  -1.11913  -1.10632  -1.09215
 Alpha  occ. eigenvalues --   -1.08634  -1.07851  -1.05417  -1.03389  -1.02436
 Alpha  occ. eigenvalues --   -1.00791  -0.99953  -0.99790  -0.98568  -0.97463
 Alpha  occ. eigenvalues --   -0.96601  -0.95512  -0.93036  -0.90678  -0.86698
 Alpha  occ. eigenvalues --   -0.85162  -0.84492  -0.84125  -0.83726  -0.82876
 Alpha  occ. eigenvalues --   -0.82529  -0.78648  -0.75894  -0.74654  -0.73738
 Alpha  occ. eigenvalues --   -0.73616  -0.73354  -0.73210  -0.71486  -0.69225
 Alpha  occ. eigenvalues --   -0.67408  -0.66737  -0.66358  -0.65571  -0.64393
 Alpha  occ. eigenvalues --   -0.63756  -0.63216  -0.62925  -0.62651  -0.61769
 Alpha  occ. eigenvalues --   -0.60789  -0.60624  -0.59410  -0.59258  -0.58416
 Alpha  occ. eigenvalues --   -0.58401  -0.58182  -0.57450  -0.56941  -0.56366
 Alpha  occ. eigenvalues --   -0.55864  -0.55701  -0.55219  -0.54466  -0.54282
 Alpha  occ. eigenvalues --   -0.53703  -0.53569  -0.52959  -0.52776  -0.52464
 Alpha  occ. eigenvalues --   -0.52277  -0.51931  -0.51825  -0.51339  -0.50679
 Alpha  occ. eigenvalues --   -0.50290  -0.49813  -0.49568  -0.49299  -0.48915
 Alpha  occ. eigenvalues --   -0.48815  -0.48395  -0.47764  -0.47600  -0.47464
 Alpha  occ. eigenvalues --   -0.47380  -0.45896  -0.45327  -0.43294  -0.42606
 Alpha  occ. eigenvalues --   -0.41554  -0.39728  -0.39303  -0.37588  -0.37551
 Alpha  occ. eigenvalues --   -0.37262  -0.37182  -0.36510  -0.35817  -0.34339
 Alpha  occ. eigenvalues --   -0.34044  -0.33767  -0.33670  -0.33369  -0.33151
 Alpha  occ. eigenvalues --   -0.32733  -0.32403  -0.31942  -0.31388  -0.30925
 Alpha  occ. eigenvalues --   -0.30750  -0.27962  -0.26215  -0.25448
 Alpha virt. eigenvalues --    0.03132   0.04839   0.07457   0.07716   0.08916
 Alpha virt. eigenvalues --    0.09384   0.09761   0.10602   0.10929   0.12032
 Alpha virt. eigenvalues --    0.13274   0.13738   0.13958   0.14563   0.14787

 Mulliken charges:
               1
     1  N   -0.309754
     2  C    0.179048
     3  C    0.042247
     4  N   -0.239855
     5  C    0.116035
     6  H    0.025959
     7  N   -0.289815
     8  C    0.138555
     9  H    0.013702
    10  N   -0.291011
    11  C    0.237260
    12  C    0.090167
    13  N   -0.039338
    14  H    0.113336
    15  H    0.093434
    16  H    0.029099
    17  H    0.035551
    18  H    0.021642
    19  N   -0.304417
    20  C    0.257102
    21  C    0.183715
    22  N   -0.123175
    23  H    0.116954
    24  H    0.118824
    25  N   -0.309686
    26  C    0.245166
    27  N   -0.147822
    28  H    0.121088
    29  C    0.187025
    30  O   -0.327707
    31  C   -0.024772
    32  N   -0.219804
    33  C    0.132248
    34  H    0.021751
    35  H    0.021794
    36  H    0.031104
    37  H    0.022763
    38  H    0.042835
    39  H    0.062382
    40  H    0.077117
    41  H    0.021180
    42  C   -0.057973
    43  O   -0.279246
    44  C    0.141986
    45  H    0.135755
    46  N   -0.117653
    47  O   -0.347269
    48  C    0.345560
    49  H    0.040136
    50  C    0.166275
    51  C    0.044704
    52  N   -0.281196
    53  H    0.033677
    54  H    0.041894
    55  H    0.015018
    56  H    0.122190
    57  H    0.114559
    58  N   -0.010619
    59  C    0.079121
    60  C    0.237095
    61  N   -0.271845
    62  H    0.029179
    63  C    0.156984
    64  N   -0.301181
    65  H    0.029420
    66  C    0.112756
    67  N   -0.245578
    68  C    0.015912
    69  C    0.181333
    70  N   -0.302921
 Sum of Mulliken charges =  -0.00000

 Dipole moment (field-independent basis, Debye):
    X=              4.7516    Y=              4.3212    Z=              5.8227  Tot=              8.6692
 Quadrupole moment (field-independent basis, Debye-Ang):
   XX=           -144.8646   YY=           -230.0746   ZZ=           -252.8242
   XY=              5.8779   XZ=             15.8027   YZ=             12.3711

 Normal termination of Gaussian 16 at Thu Jan 18 02:10:35 2018.
