 Gaussian 16, Revision A.03,
 Gaussian 16:  EM64L-G16RevA.03 25-Dec-2016

 ---------------------------------------
 #p wb97xd/cc-pvdz sp scf=(maxcycles=20)
 ---------------------------------------

 ------------------
 Base pair stacking
 ------------------
 Symbolic Z-matrix:
 Charge =  0 Multiplicity = 1

                         Standard orientation:
 ---------------------------------------------------------------------
 Center     Atomic      Atomic             Coordinates (Angstroms)
 Number     Number       Type             X           Y           Z
 ---------------------------------------------------------------------
      1          7           0       -6.579796   -1.005046    0.380158
      2          6           0       -7.849447   -0.466629    0.905616
      3          6           0       -4.451759   -1.480710    0.092910
      4          7           0       -5.135047   -2.127447   -0.926684
      5          6           0       -6.389763   -1.814988   -0.712823
      6          1           0       -7.225727   -2.150935   -1.327033
      7          7           0       -2.738684   -0.682636    1.504083
      8          6           0       -3.701202   -0.063719    2.195519
      9          1           0       -3.359810    0.511290    3.055221
     10          7           0       -5.015939   -0.048522    1.985431
     11          6           0       -5.328969   -0.784820    0.906405
     12          6           0       -3.086017   -1.415576    0.423694
     13          7           0       -2.126643   -2.034133   -0.267802
     14          1           0       -2.337869   -2.587379   -1.074349
     15          1           0       -1.164597   -1.965652   -0.003369
     16          1           0       -8.456213   -1.221994    1.153493
     17          1           0       -7.666335    0.091670    1.714254
     18          1           0       -8.289786    0.096664    0.206477
     19          7           0       -3.548937    1.938740   -1.065043
     20          6           0       -2.214219    2.043936   -0.755985
     21          6           0       -4.627549    2.762195   -0.482627
     22          7           0        0.348092    3.554998    1.036493
     23          1           0        1.340861    3.470764    1.117534
     24          1           0       -0.095986    4.250106    1.602466
     25          7           0       -1.668228    2.910262    0.124592
     26          6           0       -0.356871    2.771470    0.206428
     27          7           0        0.366361    1.855010   -0.517823
     28          1           0        1.366165    1.819548   -0.390986
     29          6           0       -0.174506    0.953820   -1.429528
     30          8           0        0.566853    0.167407   -2.031763
     31          6           0       -1.582455    1.090931   -1.528295
     32          7           0       -2.502041    0.401310   -2.306546
     33          6           0       -3.652150    0.936983   -1.999120
     34          1           0       -4.610248    0.638016   -2.425666
     35          1           0       -5.283627    2.171871   -0.013707
     36          1           0       -4.235083    3.407717    0.171235
     37          1           0       -5.093168    3.266700   -1.208902
     38          1           0        6.204973    1.711468    1.166886
     39          1           0        6.476453    2.671703   -0.285314
     40          1           0        4.948957    2.805566    0.586587
     41          1           0        6.089926   -1.726424   -2.196774
     42          6           0        5.447998   -0.941097   -1.797501
     43          8           0        3.463589   -1.823381   -2.751846
     44          6           0        4.045491   -0.971966   -2.080094
     45          1           0        2.330447    0.079886   -1.705195
     46          7           0        3.324924    0.067560   -1.527440
     47          8           0        3.092818    1.971646   -0.311803
     48          6           0        3.811342    1.094333   -0.757587
     49          1           0        7.011304    0.116560   -0.805902
     50          6           0        5.951970    0.047476   -1.049610
     51          6           0        5.738154    2.131486    0.288410
     52          7           0        5.172775    1.054700   -0.529287
     53          1           0        4.667476    0.089244    4.193912
     54          1           0        3.484341    1.034010    3.585878
     55          1           0        5.007967    1.165789    3.015545
     56          1           0        1.104361   -3.492800   -1.241027
     57          1           0        2.771975   -3.692156   -0.942038
     58          7           0        1.921477   -3.204609   -0.741633
     59          6           0        1.879908   -2.214284    0.152077
     60          6           0        2.799431   -0.733457    1.771754
     61          7           0        1.643236   -0.096488    2.020602
     62          1           0       -0.314444   -0.140321    1.415482
     63          6           0        0.662195   -0.601654    1.275444
     64          7           0        0.701820   -1.593514    0.379775
     65          1           0        5.945501   -1.425212    2.047143
     66          6           0        4.890785   -1.392722    1.772447
     67          7           0        4.326054   -2.179756    0.889658
     68          6           0        2.999913   -1.772325    0.879525
     69          6           0        4.319768    0.530827    3.366814
     70          7           0        4.025407   -0.493019    2.345495
 ---------------------------------------------------------------------

 SCF Done:  E(RwB97XD) =  -2048.75121671     A.U. after   15 cycles

 The electronic state is 1-A.
 Alpha  occ. eigenvalues --  -19.25870 -19.22118 -19.20663 -14.52461 -14.51321
 Alpha  occ. eigenvalues --  -14.49779 -14.48584 -14.47764 -14.46900 -14.46612
 Alpha  occ. eigenvalues --  -14.45893 -14.44120 -14.42857 -14.42686 -14.42657
 Alpha  occ. eigenvalues --  -14.42407 -14.41952 -14.41763 -14.40912 -14.40738
 Alpha  occ. eigenvalues --  -10.45479 -10.41166 -10.40066 -10.38216 -10.38126
 Alpha  occ. eigenvalues --  -10.37388 -10.36730 -10.36139 -10.35826 -10.35759
 Alpha  occ. eigenvalues --  -10.35064 -10.34436 -10.34294 -10.34268 -10.33825
 Alpha  occ. eigenvalues --  -10.33304 -10.33186 -10.31885 -10.31127 -10.30781
 Alpha  occ. eigenvalues --  -10.30482 -10.29458 -10.28028  -1.19453  -1.13941
 Alpha  occ. eigenvalues --   -1.13193  -1.13082  -1.12350  -1.10502  -1.09341
 Alpha  occ. eigenvalues --   -1.08548  -1.07537  -1.05767  -1.03037  -1.02528
 Alpha  occ. eigenvalues --   -1.01168  -0.99705  -0.99640  -0.98477  -0.97866
 Alpha  occ. eigenvalues --   -0.96426  -0.95187  -0.93372  -0.90840  -0.86378
 Alpha  occ. eigenvalues --   -0.84906  -0.84834  -0.83992  -0.83894  -0.83208
 Alpha  occ. eigenvalues --   -0.82258  -0.78785  -0.75572  -0.74513  -0.73713
 Alpha  occ. eigenvalues --   -0.73611  -0.73343  -0.73302  -0.71872  -0.68923
 Alpha  occ. eigenvalues --   -0.67304  -0.67102  -0.66502  -0.65234  -0.64404
 Alpha  occ. eigenvalues --   -0.63688  -0.63500  -0.62731  -0.62587  -0.61657
 Alpha  occ. eigenvalues --   -0.60927  -0.60775  -0.59457  -0.59125  -0.58305
 Alpha  occ. eigenvalues --   -0.58218  -0.57907  -0.57539  -0.57206  -0.56365
 Alpha  occ. eigenvalues --   -0.55996  -0.55932  -0.54955  -0.54355  -0.54165
 Alpha  occ. eigenvalues --   -0.53573  -0.53515  -0.52839  -0.52723  -0.52673
 Alpha  occ. eigenvalues --   -0.52300  -0.51910  -0.51605  -0.51527  -0.50978
 Alpha  occ. eigenvalues --   -0.50094  -0.49850  -0.49443  -0.48868  -0.48747
 Alpha  occ. eigenvalues --   -0.48511  -0.48262  -0.47942  -0.47751  -0.47700
 Alpha  occ. eigenvalues --   -0.47408  -0.45781  -0.45322  -0.43777  -0.43017
 Alpha  occ. eigenvalues --   -0.41922  -0.39463  -0.39404  -0.38003  -0.37223
 Alpha  occ. eigenvalues --   -0.37165  -0.36780  -0.36251  -0.35804  -0.34488
 Alpha  occ. eigenvalues --   -0.34341  -0.34170  -0.33298  -0.33274  -0.32847
 Alpha  occ. eigenvalues --   -0.32668  -0.32165  -0.31875  -0.31781  -0.31402
 Alpha  occ. eigenvalues --   -0.31102  -0.28088  -0.26565  -0.25339
 Alpha virt. eigenvalues --    0.02860   0.05662   0.07105   0.07808   0.09053
 Alpha virt. eigenvalues --    0.09410   0.09772   0.10268   0.10890   0.12170
 Alpha virt. eigenvalues --    0.13198   0.13406   0.14209   0.14790   0.14996

 Mulliken charges:
               1
     1  N   -0.310678
     2  C    0.179737
     3  C    0.037409
     4  N   -0.249222
     5  C    0.124272
     6  H    0.028559
     7  N   -0.282358
     8  C    0.134415
     9  H    0.016433
    10  N   -0.291263
    11  C    0.235227
    12  C    0.096137
    13  N   -0.037129
    14  H    0.110133
    15  H    0.090031
    16  H    0.029192
    17  H    0.036007
    18  H    0.023959
    19  N   -0.303257
    20  C    0.256725
    21  C    0.184858
    22  N   -0.120170
    23  H    0.114943
    24  H    0.118019
    25  N   -0.306654
    26  C    0.239736
    27  N   -0.140476
    28  H    0.120574
    29  C    0.171082
    30  O   -0.325897
    31  C   -0.008533
    32  N   -0.229499
    33  C    0.127911
    34  H    0.025154
    35  H    0.022636
    36  H    0.029168
    37  H    0.020941
    38  H    0.050230
    39  H    0.064593
    40  H    0.076021
    41  H    0.025742
    42  C   -0.060536
    43  O   -0.274043
    44  C    0.168947
    45  H    0.135211
    46  N   -0.126149
    47  O   -0.346812
    48  C    0.342931
    49  H    0.041061
    50  C    0.152991
    51  C    0.038790
    52  N   -0.282546
    53  H    0.033143
    54  H    0.040244
    55  H    0.004695
    56  H    0.118095
    57  H    0.118687
    58  N   -0.035878
    59  C    0.111004
    60  C    0.224849
    61  N   -0.274235
    62  H    0.031440
    63  C    0.157511
    64  N   -0.304795
    65  H    0.026008
    66  C    0.120754
    67  N   -0.245165
    68  C    0.012487
    69  C    0.186265
    70  N   -0.299661
 Sum of Mulliken charges =  -0.00000

 Dipole moment (field-independent basis, Debye):
    X=              4.5713    Y=              4.9495    Z=              5.1307  Tot=              8.4687
 Quadrupole moment (field-independent basis, Debye-Ang):
   XX=           -142.6675   YY=           -226.8958   ZZ=           -255.8042
   XY=              9.4143   XZ=             21.0594   YZ=              6.2571

 Normal termination of Gaussian 16 at Wed Jan 17 23:16:58 2018.
