 Gaussian 16, Revision A.03,
 Gaussian 16:  EM64L-G16RevA.03 25-Dec-2016

 ---------------------------------------
 #p wb97xd/cc-pvdz sp scf=(maxcycles=20)
 ---------------------------------------

 ------------------
 Base pair stacking
 ------------------
 Symbolic Z-matrix:
 Charge =  0 Multiplicity = 1

                         Standard orientation:
 ---------------------------------------------------------------------
 Center     Atomic      Atomic             Coordinates (Angstroms)
 Number     Number       Type             X           Y           Z
 ---------------------------------------------------------------------
      1          7           0       -4.872852   -2.197752    1.145005
      2          6           0       -6.206449   -1.917529    1.711552
      3          6           0       -2.709684   -2.193825    0.747502
      4          7           0       -3.269260   -3.082370   -0.159181
      5          6           0       -4.550098   -3.049175    0.116581
      6          1           0       -5.311576   -3.630943   -0.403635
      7          7           0       -1.167732   -0.879946    1.955424
      8          6           0       -2.214306   -0.433606    2.657583
      9          1           0       -1.977258    0.289875    3.436452
     10          7           0       -3.503697   -0.745331    2.542626
     11          6           0       -3.685766   -1.640739    1.557981
     12          6           0       -1.383934   -1.780203    0.971616
     13          7           0       -0.340486   -2.226925    0.269591
     14          1           0       -0.453813   -2.893737   -0.467802
     15          1           0        0.589568   -1.910494    0.456693
     16          1           0       -6.603114   -2.763522    2.068113
     17          1           0       -6.121489   -1.252138    2.452608
     18          1           0       -6.802216   -1.546395    0.999294
     19          7           0       -5.036249    2.113713   -0.436840
     20          6           0       -3.666257    2.176438   -0.521882
     21          6           0       -5.901252    3.140226    0.178578
     22          7           0       -0.687326    3.849058    0.102653
     23          1           0        0.288375    3.703059   -0.058373
     24          1           0       -0.948564    4.693915    0.570313
     25          7           0       -2.886421    3.178280   -0.061228
     26          6           0       -1.604937    2.952776   -0.290499
     27          7           0       -1.122034    1.832498   -0.922395
     28          1           0       -0.126247    1.743998   -1.054861
     29          6           0       -1.905999    0.789069   -1.404601
     30          8           0       -1.370206   -0.177842   -1.960235
     31          6           0       -3.285047    1.017076   -1.165601
     32          7           0       -4.393413    0.242106   -1.478394
     33          6           0       -5.406999    0.930719   -1.028205
     34          1           0       -6.449980    0.620748   -1.101629
     35          1           0       -6.414543    2.736136    0.934926
     36          1           0       -5.334631    3.887408    0.523421
     37          1           0       -6.538632    3.494690   -0.504738
     38          1           0        4.951438    1.601966   -0.831970
     39          1           0        4.832970    2.162238   -2.498316
     40          1           0        3.603426    2.628377   -1.322602
     41          1           0        3.866075   -2.515790   -3.070869
     42          6           0        3.370606   -1.606652   -2.729980
     43          8           0        1.186636   -2.520076   -2.881825
     44          6           0        1.943852   -1.585424   -2.621405
     45          1           0        0.413890   -0.333632   -2.091752
     46          7           0        1.418811   -0.387181   -2.181199
     47          8           0        1.558927    1.764250   -1.467796
     48          6           0        2.113858    0.748573   -1.848740
     49          1           0        5.162567   -0.479131   -2.478268
     50          6           0        4.075909   -0.514582   -2.412927
     51          6           0        4.270007    1.838521   -1.635565
     52          7           0        3.485106    0.649657   -1.979491
     53          1           0        5.966415    1.859851    4.024187
     54          1           0        4.563892    2.437076    3.422643
     55          1           0        5.982266    2.859425    2.734218
     56          1           0        3.092352   -2.988396   -0.802799
     57          1           0        4.772259   -2.763872   -0.608859
     58          7           0        3.841231   -2.468952   -0.391085
     59          6           0        3.609709   -1.429039    0.412762
     60          6           0        4.229850    0.382616    1.825229
     61          7           0        2.969160    0.756150    2.100092
     62          1           0        1.050537    0.197757    1.644369
     63          6           0        2.100683   -0.036379    1.475155
     64          7           0        2.330582   -1.078421    0.669631
     65          1           0        7.459846    0.471263    1.932047
     66          6           0        6.415372    0.229956    1.732579
     67          7           0        6.010943   -0.752802    0.965568
     68          6           0        4.627141   -0.667253    1.015613
     69          6           0        5.483092    2.121610    3.188794
     70          7           0        5.390380    0.958299    2.285413
 ---------------------------------------------------------------------

 SCF Done:  E(RwB97XD) =  -2048.73230795     A.U. after   15 cycles

 The electronic state is 1-A.
 Alpha  occ. eigenvalues --  -19.25757 -19.22527 -19.20831 -14.52382 -14.52368
 Alpha  occ. eigenvalues --  -14.49206 -14.48038 -14.47806 -14.47787 -14.47122
 Alpha  occ. eigenvalues --  -14.46938 -14.45399 -14.44292 -14.44237 -14.42282
 Alpha  occ. eigenvalues --  -14.41866 -14.41414 -14.40578 -14.40483 -14.40038
 Alpha  occ. eigenvalues --  -10.45332 -10.41520 -10.40401 -10.39783 -10.38484
 Alpha  occ. eigenvalues --  -10.37911 -10.37309 -10.37158 -10.35767 -10.35043
 Alpha  occ. eigenvalues --  -10.35029 -10.34720 -10.33837 -10.33759 -10.33297
 Alpha  occ. eigenvalues --  -10.32809 -10.32756 -10.32672 -10.31284 -10.31105
 Alpha  occ. eigenvalues --  -10.30579 -10.28485 -10.27958  -1.19328  -1.15140
 Alpha  occ. eigenvalues --   -1.13475  -1.13428  -1.10959  -1.10618  -1.09519
 Alpha  occ. eigenvalues --   -1.09051  -1.08819  -1.04850  -1.04659  -1.02513
 Alpha  occ. eigenvalues --   -1.00929  -1.00036  -0.99993  -0.98847  -0.96984
 Alpha  occ. eigenvalues --   -0.96897  -0.96245  -0.92348  -0.91042  -0.87567
 Alpha  occ. eigenvalues --   -0.85809  -0.84496  -0.83542  -0.83378  -0.82864
 Alpha  occ. eigenvalues --   -0.81807  -0.78917  -0.77000  -0.74976  -0.74786
 Alpha  occ. eigenvalues --   -0.73919  -0.73383  -0.72397  -0.70603  -0.70369
 Alpha  occ. eigenvalues --   -0.67701  -0.66940  -0.66413  -0.65798  -0.64837
 Alpha  occ. eigenvalues --   -0.64331  -0.63760  -0.62906  -0.62234  -0.62087
 Alpha  occ. eigenvalues --   -0.60657  -0.60324  -0.60131  -0.59388  -0.59263
 Alpha  occ. eigenvalues --   -0.59120  -0.58650  -0.57022  -0.56138  -0.56074
 Alpha  occ. eigenvalues --   -0.55823  -0.55263  -0.54974  -0.54478  -0.54105
 Alpha  occ. eigenvalues --   -0.53896  -0.53804  -0.53545  -0.53448  -0.53291
 Alpha  occ. eigenvalues --   -0.52705  -0.52420  -0.51291  -0.50511  -0.50316
 Alpha  occ. eigenvalues --   -0.49987  -0.49715  -0.49614  -0.49430  -0.49150
 Alpha  occ. eigenvalues --   -0.48753  -0.48599  -0.48250  -0.48075  -0.47548
 Alpha  occ. eigenvalues --   -0.46491  -0.45969  -0.45697  -0.44462  -0.42725
 Alpha  occ. eigenvalues --   -0.40690  -0.40636  -0.39417  -0.38091  -0.37622
 Alpha  occ. eigenvalues --   -0.37550  -0.37503  -0.36605  -0.36018  -0.34660
 Alpha  occ. eigenvalues --   -0.34355  -0.34109  -0.33665  -0.33046  -0.32968
 Alpha  occ. eigenvalues --   -0.32929  -0.32747  -0.32394  -0.32089  -0.30417
 Alpha  occ. eigenvalues --   -0.30049  -0.28782  -0.25938  -0.25213
 Alpha virt. eigenvalues --    0.02601   0.04168   0.07015   0.08308   0.08801
 Alpha virt. eigenvalues --    0.08929   0.09454   0.10488   0.11418   0.11788
 Alpha virt. eigenvalues --    0.13047   0.13735   0.14269   0.14703   0.15150

 Mulliken charges:
               1
     1  N   -0.308205
     2  C    0.181548
     3  C    0.053383
     4  N   -0.251057
     5  C    0.146271
     6  H    0.024622
     7  N   -0.297800
     8  C    0.131526
     9  H    0.009266
    10  N   -0.288095
    11  C    0.242943
    12  C    0.088976
    13  N   -0.054831
    14  H    0.118368
    15  H    0.085945
    16  H    0.024377
    17  H    0.030934
    18  H    0.018914
    19  N   -0.310597
    20  C    0.260290
    21  C    0.181757
    22  N   -0.124471
    23  H    0.118159
    24  H    0.119226
    25  N   -0.312564
    26  C    0.251092
    27  N   -0.149661
    28  H    0.120255
    29  C    0.196010
    30  O   -0.320687
    31  C   -0.016129
    32  N   -0.222829
    33  C    0.118982
    34  H    0.022600
    35  H    0.027052
    36  H    0.030990
    37  H    0.025028
    38  H    0.062618
    39  H    0.059501
    40  H    0.074584
    41  H    0.020825
    42  C   -0.118339
    43  O   -0.272691
    44  C    0.164355
    45  H    0.130444
    46  N   -0.113074
    47  O   -0.350290
    48  C    0.344709
    49  H    0.043279
    50  C    0.170859
    51  C    0.041905
    52  N   -0.275684
    53  H    0.034107
    54  H    0.042588
    55  H    0.027410
    56  H    0.124743
    57  H    0.113515
    58  N   -0.040673
    59  C    0.081756
    60  C    0.238754
    61  N   -0.269769
    62  H    0.033578
    63  C    0.169948
    64  N   -0.312529
    65  H    0.037408
    66  C    0.132462
    67  N   -0.260653
    68  C    0.019878
    69  C    0.180784
    70  N   -0.307900
 Sum of Mulliken charges =  -0.00000

 Dipole moment (field-independent basis, Debye):
    X=              6.7742    Y=              7.2518    Z=              2.6820  Tot=             10.2797
 Quadrupole moment (field-independent basis, Debye-Ang):
   XX=           -151.9510   YY=           -223.4331   ZZ=           -253.4904
   XY=              5.3867   XZ=             -6.9357   YZ=              2.1805

 Normal termination of Gaussian 16 at Sun Jan 21 16:33:29 2018.
