 Gaussian 16, Revision A.03,
 Gaussian 16:  EM64L-G16RevA.03 25-Dec-2016

 ---------------------------------------
 #p wb97xd/cc-pvdz sp scf=(maxcycles=20)
 ---------------------------------------

 ------------------
 Base pair stacking
 ------------------
 Symbolic Z-matrix:
 Charge =  0 Multiplicity = 1

                         Standard orientation:
 ---------------------------------------------------------------------
 Center     Atomic      Atomic             Coordinates (Angstroms)
 Number     Number       Type             X           Y           Z
 ---------------------------------------------------------------------
      1          7           0       -5.513474   -1.864255    0.943257
      2          6           0       -6.865480   -1.453368    1.369002
      3          6           0       -3.331160   -2.009862    0.711716
      4          7           0       -3.874971   -2.980518   -0.117033
      5          6           0       -5.167973   -2.853945    0.055624
      6          1           0       -5.922642   -3.462055   -0.443979
      7          7           0       -1.806169   -0.624151    1.859393
      8          6           0       -2.872483   -0.044457    2.420219
      9          1           0       -2.650200    0.761038    3.118813
     10          7           0       -4.166054   -0.309144    2.248471
     11          6           0       -4.328837   -1.313784    1.371757
     12          6           0       -2.003275   -1.631920    0.981545
     13          7           0       -0.940120   -2.211834    0.420680
     14          1           0       -1.038888   -2.961526   -0.234631
     15          1           0       -0.009174   -1.916858    0.636268
     16          1           0       -7.331395   -2.227877    1.797069
     17          1           0       -6.795293   -0.703319    2.025977
     18          1           0       -7.389740   -1.149493    0.573505
     19          7           0       -4.404472    2.260560   -0.849359
     20          6           0       -3.030439    2.255665   -0.842068
     21          6           0       -5.256996    3.352366   -0.337647
     22          7           0       -0.021061    3.813862   -0.082180
     23          1           0        0.954834    3.615654   -0.169325
     24          1           0       -0.270988    4.689770    0.331384
     25          7           0       -2.234675    3.239524   -0.369997
     26          6           0       -0.953420    2.944745   -0.500801
     27          7           0       -0.485198    1.776407   -1.051502
     28          1           0        0.511636    1.635915   -1.111135
     29          6           0       -1.285690    0.750304   -1.543626
     30          8           0       -0.762287   -0.264078   -2.020940
     31          6           0       -2.664699    1.052531   -1.409975
     32          7           0       -3.786554    0.316912   -1.766631
     33          6           0       -4.792764    1.071132   -1.416051
     34          1           0       -5.842510    0.807065   -1.548607
     35          1           0       -5.839161    3.006391    0.397333
     36          1           0       -4.678521    4.086881    0.014676
     37          1           0       -5.828842    3.705573   -1.077274
     38          1           0        5.549721    1.267824   -0.532457
     39          1           0        5.571042    1.758867   -2.224517
     40          1           0        4.290001    2.333161   -1.156580
     41          1           0        4.414711   -2.889828   -2.670743
     42          6           0        3.943031   -1.944455   -2.402331
     43          8           0        1.731692   -2.761124   -2.667191
     44          6           0        2.515016   -1.852109   -2.393520
     45          1           0        1.016722   -0.508345   -2.022430
     46          7           0        2.021498   -0.612472   -2.039994
     47          8           0        2.219632    1.559502   -1.407182
     48          6           0        2.747977    0.503287   -1.707046
     49          1           0        5.767614   -0.891500   -2.073773
     50          6           0        4.678612   -0.873441   -2.082251
     51          6           0        4.936211    1.500114   -1.390191
     52          7           0        4.118339    0.335021   -1.738608
     53          1           0        5.308374    2.029114    4.101215
     54          1           0        3.984157    2.588128    3.329171
     55          1           0        5.467422    2.853895    2.701977
     56          1           0        2.511402   -3.259936   -0.288366
     57          1           0        4.183797   -3.089364    0.001654
     58          7           0        3.257559   -2.726858    0.110677
     59          6           0        3.028663   -1.583288    0.759546
     60          6           0        3.648615    0.363804    1.978666
     61          7           0        2.394370    0.826533    2.109684
     62          1           0        0.483875    0.302613    1.584215
     63          6           0        1.528763    0.001107    1.524613
     64          7           0        1.756041   -1.144724    0.874228
     65          1           0        6.863662    0.317891    2.315624
     66          6           0        5.823707    0.100988    2.069872
     67          7           0        5.419691   -0.952232    1.402660
     68          6           0        4.042486   -0.797934    1.337757
     69          6           0        4.898591    2.203768    3.205909
     70          7           0        4.804582    0.940004    2.449558
 ---------------------------------------------------------------------

 SCF Done:  E(RwB97XD) =  -2048.74390397     A.U. after   15 cycles

 The electronic state is 1-A.
 Alpha  occ. eigenvalues --  -19.25835 -19.22404 -19.20754 -14.52269 -14.52266
 Alpha  occ. eigenvalues --  -14.48918 -14.48433 -14.47858 -14.47560 -14.47049
 Alpha  occ. eigenvalues --  -14.46812 -14.45349 -14.44021 -14.43998 -14.42144
 Alpha  occ. eigenvalues --  -14.41935 -14.41084 -14.40897 -14.40747 -14.40084
 Alpha  occ. eigenvalues --  -10.45389 -10.41386 -10.40431 -10.39564 -10.38378
 Alpha  occ. eigenvalues --  -10.37834 -10.37354 -10.36946 -10.35491 -10.35151
 Alpha  occ. eigenvalues --  -10.35087 -10.34501 -10.33751 -10.33657 -10.33536
 Alpha  occ. eigenvalues --  -10.33039 -10.32901 -10.32462 -10.31092 -10.30994
 Alpha  occ. eigenvalues --  -10.30942 -10.28264 -10.28160  -1.19391  -1.15011
 Alpha  occ. eigenvalues --   -1.13435  -1.13336  -1.10966  -1.10732  -1.09251
 Alpha  occ. eigenvalues --   -1.08983  -1.08704  -1.04794  -1.04525  -1.02566
 Alpha  occ. eigenvalues --   -1.00791  -1.00158  -0.99884  -0.98684  -0.96741
 Alpha  occ. eigenvalues --   -0.96697  -0.96465  -0.92460  -0.90967  -0.87410
 Alpha  occ. eigenvalues --   -0.85717  -0.84258  -0.83672  -0.83558  -0.82625
 Alpha  occ. eigenvalues --   -0.82089  -0.78794  -0.76792  -0.74778  -0.74570
 Alpha  occ. eigenvalues --   -0.73782  -0.73401  -0.72620  -0.70790  -0.70153
 Alpha  occ. eigenvalues --   -0.67534  -0.66666  -0.66388  -0.66017  -0.64578
 Alpha  occ. eigenvalues --   -0.64063  -0.63760  -0.62766  -0.62443  -0.61915
 Alpha  occ. eigenvalues --   -0.60616  -0.60264  -0.60136  -0.59323  -0.59221
 Alpha  occ. eigenvalues --   -0.58955  -0.58511  -0.56800  -0.56337  -0.56164
 Alpha  occ. eigenvalues --   -0.56019  -0.55264  -0.55011  -0.54404  -0.54301
 Alpha  occ. eigenvalues --   -0.53784  -0.53648  -0.53417  -0.53321  -0.53100
 Alpha  occ. eigenvalues --   -0.52571  -0.52424  -0.51584  -0.50564  -0.50331
 Alpha  occ. eigenvalues --   -0.50062  -0.49667  -0.49564  -0.49275  -0.49033
 Alpha  occ. eigenvalues --   -0.48645  -0.48560  -0.48077  -0.47745  -0.47504
 Alpha  occ. eigenvalues --   -0.46713  -0.45952  -0.44902  -0.44612  -0.43294
 Alpha  occ. eigenvalues --   -0.40820  -0.40489  -0.39430  -0.37821  -0.37429
 Alpha  occ. eigenvalues --   -0.37393  -0.37256  -0.36851  -0.36241  -0.34451
 Alpha  occ. eigenvalues --   -0.34246  -0.33948  -0.33582  -0.33208  -0.33157
 Alpha  occ. eigenvalues --   -0.32772  -0.32515  -0.32381  -0.32009  -0.30640
 Alpha  occ. eigenvalues --   -0.30226  -0.29017  -0.25769  -0.25255
 Alpha virt. eigenvalues --    0.03028   0.04338   0.07397   0.08011   0.08272
 Alpha virt. eigenvalues --    0.09187   0.09621   0.10585   0.11281   0.12215
 Alpha virt. eigenvalues --    0.13039   0.13915   0.14471   0.14553   0.15198

 Mulliken charges:
               1
     1  N   -0.310676
     2  C    0.180021
     3  C    0.062719
     4  N   -0.252780
     5  C    0.136254
     6  H    0.024896
     7  N   -0.296758
     8  C    0.134395
     9  H    0.010391
    10  N   -0.290999
    11  C    0.238230
    12  C    0.095741
    13  N   -0.046793
    14  H    0.114530
    15  H    0.084345
    16  H    0.025815
    17  H    0.031758
    18  H    0.020773
    19  N   -0.308356
    20  C    0.258346
    21  C    0.181530
    22  N   -0.122683
    23  H    0.116958
    24  H    0.118433
    25  N   -0.311334
    26  C    0.247142
    27  N   -0.149336
    28  H    0.120461
    29  C    0.194132
    30  O   -0.323776
    31  C   -0.017737
    32  N   -0.220943
    33  C    0.125783
    34  H    0.019776
    35  H    0.028929
    36  H    0.029662
    37  H    0.023575
    38  H    0.058131
    39  H    0.060298
    40  H    0.073479
    41  H    0.022199
    42  C   -0.110564
    43  O   -0.274093
    44  C    0.152014
    45  H    0.130716
    46  N   -0.104967
    47  O   -0.344866
    48  C    0.335369
    49  H    0.046071
    50  C    0.174658
    51  C    0.040444
    52  N   -0.277697
    53  H    0.033950
    54  H    0.041642
    55  H    0.025410
    56  H    0.126924
    57  H    0.114831
    58  N   -0.045352
    59  C    0.077627
    60  C    0.239790
    61  N   -0.271439
    62  H    0.033713
    63  C    0.165291
    64  N   -0.302602
    65  H    0.035768
    66  C    0.123283
    67  N   -0.260757
    68  C    0.033979
    69  C    0.181631
    70  N   -0.307308
 Sum of Mulliken charges =  -0.00000

 Dipole moment (field-independent basis, Debye):
    X=              6.8500    Y=              6.7600    Z=              2.9440  Tot=             10.0641
 Quadrupole moment (field-independent basis, Debye-Ang):
   XX=           -149.4339   YY=           -223.1529   ZZ=           -255.4288
   XY=              5.5329   XZ=              0.4591   YZ=              0.1655

 Normal termination of Gaussian 16 at Sun Jan 21 10:36:09 2018.
