 Gaussian 16, Revision A.03,
 Gaussian 16:  EM64L-G16RevA.03 25-Dec-2016

 ---------------------------------------
 #p wb97xd/cc-pvdz sp scf=(maxcycles=20)
 ---------------------------------------

 ------------------
 Base pair stacking
 ------------------
 Symbolic Z-matrix:
 Charge =  0 Multiplicity = 1

                         Standard orientation:
 ---------------------------------------------------------------------
 Center     Atomic      Atomic             Coordinates (Angstroms)
 Number     Number       Type             X           Y           Z
 ---------------------------------------------------------------------
      1          7           0        5.482054   -1.305082   -1.238466
      2          6           0        6.836063   -0.718975   -1.204573
      3          6           0        3.299189   -1.561982   -1.318556
      4          7           0        3.837912   -2.838584   -1.249214
      5          6           0        5.131442   -2.632706   -1.203737
      6          1           0        5.882897   -3.420528   -1.143749
      7          7           0        1.781526    0.238863   -1.447467
      8          6           0        2.850743    1.041458   -1.433266
      9          1           0        2.632665    2.107466   -1.481658
     10          7           0        4.142824    0.726435   -1.368586
     11          6           0        4.300382   -0.606424   -1.312810
     12          6           0        1.973390   -1.097172   -1.390164
     13          7           0        0.907327   -1.899971   -1.404218
     14          1           0        1.002194   -2.895242   -1.363512
     15          1           0       -0.021997   -1.534138   -1.455899
     16          1           0        7.363129   -1.048562   -1.987994
     17          1           0        6.769770    0.277599   -1.244160
     18          1           0        7.296624   -0.987361   -0.358501
     19          7           0        4.457108    1.667218    1.201121
     20          6           0        3.084940    1.664302    1.128981
     21          6           0        5.328723    2.802125    0.836496
     22          7           0        0.108844    3.290712    0.381072
     23          1           0       -0.869345    3.085994    0.403049
     24          1           0        0.374705    4.201891    0.065177
     25          7           0        2.308613    2.689482    0.716205
     26          6           0        1.023703    2.384734    0.758062
     27          7           0        0.534415    1.169564    1.172161
     28          1           0       -0.463599    1.024932    1.171316
     29          6           0        1.314677    0.100413    1.601073
     30          8           0        0.773153   -0.954447    1.954318
     31          6           0        2.697335    0.412761    1.561675
     32          7           0        3.803901   -0.354599    1.898679
     33          6           0        4.822709    0.428741    1.669263
     34          1           0        5.866055    0.152256    1.825062
     35          1           0        5.945842    2.527399    0.099955
     36          1           0        4.764740    3.567463    0.529161
     37          1           0        5.864103    3.082543    1.632449
     38          1           0       -5.467786    0.718431    0.324595
     39          1           0       -5.569940    1.045620    2.052925
     40          1           0       -4.242429    1.718123    1.105928
     41          1           0       -4.419168   -3.625498    2.107083
     42          6           0       -3.938833   -2.659259    1.952547
     43          8           0       -1.739397   -3.499515    2.241613
     44          6           0       -2.512307   -2.567804    2.019556
     45          1           0       -1.003102   -1.196094    1.849078
     46          7           0       -2.007220   -1.300514    1.809496
     47          8           0       -2.183296    0.922158    1.378312
     48          6           0       -2.721313   -0.157389    1.550883
     49          1           0       -5.749809   -1.578055    1.640823
     50          6           0       -4.662451   -1.561882    1.702037
     51          6           0       -4.895877    0.867152    1.228396
     52          7           0       -4.091046   -0.326643    1.501969
     53          1           0       -5.304012    3.719509   -2.049582
     54          1           0       -4.056576    3.662701   -0.999450
     55          1           0       -5.585741    3.473388   -0.461028
     56          1           0       -2.526701   -3.156566   -1.781978
     57          1           0       -4.184919   -2.839232   -2.026342
     58          7           0       -3.272113   -2.490486   -1.810988
     59          6           0       -3.059415   -1.194568   -1.573210
     60          6           0       -3.697118    1.085297   -1.333919
     61          7           0       -2.460720    1.525239   -1.047225
     62          1           0       -0.562401    0.785033   -0.825691
     63          6           0       -1.593452    0.514917   -1.049823
     64          7           0       -1.804525   -0.783707   -1.287735
     65          1           0       -6.880348    1.266294   -1.869159
     66          6           0       -5.847853    0.941750   -1.736609
     67          7           0       -5.434906   -0.296468   -1.854778
     68          6           0       -4.072965   -0.219477   -1.601936
     69          6           0       -4.957426    3.288010   -1.216701
     70          7           0       -4.848888    1.830676   -1.422575
 ---------------------------------------------------------------------

 SCF Done:  E(RwB97XD) =  -2048.71589681     A.U. after   15 cycles

 The electronic state is 1-A.
 Alpha  occ. eigenvalues --  -19.25152 -19.21418 -19.20510 -14.52671 -14.51826
 Alpha  occ. eigenvalues --  -14.48899 -14.48471 -14.48228 -14.47278 -14.46609
 Alpha  occ. eigenvalues --  -14.46343 -14.46037 -14.44703 -14.44558 -14.42817
 Alpha  occ. eigenvalues --  -14.41817 -14.41490 -14.41080 -14.40773 -14.40382
 Alpha  occ. eigenvalues --  -10.44754 -10.41023 -10.40317 -10.39544 -10.38354
 Alpha  occ. eigenvalues --  -10.38077 -10.37529 -10.37223 -10.36142 -10.35755
 Alpha  occ. eigenvalues --  -10.34471 -10.34268 -10.34196 -10.34001 -10.33558
 Alpha  occ. eigenvalues --  -10.33167 -10.33067 -10.32966 -10.31468 -10.30571
 Alpha  occ. eigenvalues --  -10.30358 -10.28648 -10.27916  -1.19090  -1.15792
 Alpha  occ. eigenvalues --   -1.13061  -1.12482  -1.11485  -1.10313  -1.09685
 Alpha  occ. eigenvalues --   -1.08808  -1.08384  -1.05348  -1.05159  -1.01937
 Alpha  occ. eigenvalues --   -1.01484  -1.00841  -0.99494  -0.98444  -0.97329
 Alpha  occ. eigenvalues --   -0.97089  -0.96314  -0.93040  -0.90534  -0.88132
 Alpha  occ. eigenvalues --   -0.86437  -0.84221  -0.83856  -0.83233  -0.82633
 Alpha  occ. eigenvalues --   -0.82120  -0.78354  -0.77482  -0.75391  -0.74397
 Alpha  occ. eigenvalues --   -0.73458  -0.73184  -0.72873  -0.71329  -0.70846
 Alpha  occ. eigenvalues --   -0.67274  -0.67151  -0.66656  -0.66068  -0.64720
 Alpha  occ. eigenvalues --   -0.64247  -0.63621  -0.63076  -0.62610  -0.61800
 Alpha  occ. eigenvalues --   -0.61544  -0.60917  -0.60770  -0.59919  -0.59146
 Alpha  occ. eigenvalues --   -0.58413  -0.58106  -0.57501  -0.56897  -0.56199
 Alpha  occ. eigenvalues --   -0.55999  -0.55824  -0.55574  -0.54398  -0.54198
 Alpha  occ. eigenvalues --   -0.53959  -0.53703  -0.53354  -0.53238  -0.53049
 Alpha  occ. eigenvalues --   -0.52697  -0.52160  -0.52140  -0.51045  -0.50422
 Alpha  occ. eigenvalues --   -0.50160  -0.49801  -0.49232  -0.49037  -0.48808
 Alpha  occ. eigenvalues --   -0.48448  -0.48289  -0.48026  -0.47471  -0.47124
 Alpha  occ. eigenvalues --   -0.47023  -0.45693  -0.44918  -0.44366  -0.42843
 Alpha  occ. eigenvalues --   -0.41326  -0.40833  -0.39155  -0.38141  -0.38086
 Alpha  occ. eigenvalues --   -0.37872  -0.37234  -0.36742  -0.36029  -0.35139
 Alpha  occ. eigenvalues --   -0.34702  -0.34120  -0.33738  -0.33355  -0.32791
 Alpha  occ. eigenvalues --   -0.32413  -0.32030  -0.31772  -0.31679  -0.30904
 Alpha  occ. eigenvalues --   -0.30559  -0.29324  -0.25828  -0.25262
 Alpha virt. eigenvalues --    0.03343   0.03631   0.06610   0.07432   0.09006
 Alpha virt. eigenvalues --    0.09115   0.09753   0.10004   0.11279   0.12448
 Alpha virt. eigenvalues --    0.12917   0.13899   0.14081   0.14212   0.14769

 Mulliken charges:
               1
     1  N   -0.310448
     2  C    0.174837
     3  C    0.074090
     4  N   -0.260382
     5  C    0.138321
     6  H    0.026673
     7  N   -0.286064
     8  C    0.136780
     9  H    0.021046
    10  N   -0.286431
    11  C    0.237372
    12  C    0.081137
    13  N   -0.052123
    14  H    0.108242
    15  H    0.082886
    16  H    0.028803
    17  H    0.029999
    18  H    0.026398
    19  N   -0.263062
    20  C    0.191933
    21  C    0.184350
    22  N   -0.104971
    23  H    0.113129
    24  H    0.114783
    25  N   -0.292422
    26  C    0.220784
    27  N   -0.127877
    28  H    0.115144
    29  C    0.174320
    30  O   -0.320988
    31  C    0.007861
    32  N   -0.216941
    33  C    0.109301
    34  H    0.014166
    35  H    0.019112
    36  H    0.027534
    37  H    0.020735
    38  H    0.043388
    39  H    0.053759
    40  H    0.068326
    41  H    0.026490
    42  C   -0.107523
    43  O   -0.267138
    44  C    0.173774
    45  H    0.129867
    46  N   -0.118273
    47  O   -0.329621
    48  C    0.329820
    49  H    0.046154
    50  C    0.166652
    51  C    0.066457
    52  N   -0.279122
    53  H    0.038389
    54  H    0.038738
    55  H    0.025914
    56  H    0.123029
    57  H    0.119235
    58  N   -0.061725
    59  C    0.095667
    60  C    0.171506
    61  N   -0.245372
    62  H    0.029524
    63  C    0.151285
    64  N   -0.295993
    65  H    0.036290
    66  C    0.112189
    67  N   -0.246362
    68  C    0.052052
    69  C    0.181762
    70  N   -0.287166
 Sum of Mulliken charges =  -0.00000

 Dipole moment (field-independent basis, Debye):
    X=             -6.6105    Y=              6.8121    Z=             -3.5983  Tot=             10.1514
 Quadrupole moment (field-independent basis, Debye-Ang):
   XX=           -150.1286   YY=           -228.0768   ZZ=           -258.3875
   XY=             -5.5589   XZ=             -3.2310   YZ=             14.4202

 Normal termination of Gaussian 16 at Sun Jan 21 14:34:40 2018.
