 Gaussian 16, Revision A.03,
 Gaussian 16:  EM64L-G16RevA.03 25-Dec-2016

 ---------------------------------------
 #p wb97xd/cc-pvdz sp scf=(maxcycles=20)
 ---------------------------------------

 ------------------
 Base pair stacking
 ------------------
 Symbolic Z-matrix:
 Charge =  0 Multiplicity = 1

                         Standard orientation:
 ---------------------------------------------------------------------
 Center     Atomic      Atomic             Coordinates (Angstroms)
 Number     Number       Type             X           Y           Z
 ---------------------------------------------------------------------
      1          7           0        4.550959   -2.020437   -1.558238
      2          6           0        5.881169   -1.652579   -2.080949
      3          6           0        2.393891   -2.064773   -1.131156
      4          7           0        2.950729   -3.122554   -0.427070
      5          6           0        4.227998   -3.053507   -0.712551
      6          1           0        4.986580   -3.737122   -0.330228
      7          7           0        0.857996   -0.516858   -2.030011
      8          6           0        1.902214    0.044614   -2.648036
      9          1           0        1.666760    0.910852   -3.264840
     10          7           0        3.187557   -0.301677   -2.618661
     11          6           0        3.367946   -1.376295   -1.833113
     12          6           0        1.072407   -1.596536   -1.246813
     13          7           0        0.031322   -2.158401   -0.629055
     14          1           0        0.143460   -2.959166   -0.039636
     15          1           0       -0.895701   -1.798268   -0.734306
     16          1           0        6.258352   -2.417017   -2.603980
     17          1           0        5.797308   -0.852879   -2.674730
     18          1           0        6.492997   -1.437723   -1.319706
     19          7           0        5.342381    1.884403    0.549767
     20          6           0        3.975614    1.954330    0.672666
     21          6           0        6.209664    2.963694    0.036301
     22          7           0        1.009920    3.725265    0.311842
     23          1           0        0.035740    3.574135    0.477324
     24          1           0        1.274009    4.614814   -0.061892
     25          7           0        3.201529    3.012244    0.347637
     26          6           0        1.921907    2.778204    0.578772
     27          7           0        1.435514    1.599027    1.089146
     28          1           0        0.441537    1.508547    1.233304
     29          6           0        2.213565    0.497289    1.430731
     30          8           0        1.675011   -0.520125    1.884138
     31          6           0        3.590541    0.733683    1.187993
     32          7           0        4.693372   -0.086063    1.384643
     33          6           0        5.707544    0.636743    0.993210
     34          1           0        6.746999    0.307171    1.006853
     35          1           0        6.700572    2.642604   -0.772846
     36          1           0        5.647283    3.752649   -0.207735
     37          1           0        6.866717    3.229271    0.740972
     38          1           0       -4.641309    1.457508    1.111572
     39          1           0       -4.478999    1.821282    2.827954
     40          1           0       -3.267722    2.403633    1.685569
     41          1           0       -3.571515   -2.903434    2.839088
     42          6           0       -3.069595   -1.967550    2.593274
     43          8           0       -0.897061   -2.920011    2.589692
     44          6           0       -1.645320   -1.952113    2.455311
     45          1           0       -0.108052   -0.667321    2.037636
     46          7           0       -1.111539   -0.718023    2.143271
     47          8           0       -1.233997    1.502668    1.684196
     48          6           0       -1.796114    0.457106    1.958953
     49          1           0       -4.849125   -0.795933    2.513239
     50          6           0       -3.764762   -0.837438    2.419488
     51          6           0       -3.939456    1.591606    1.921192
     52          7           0       -3.165631    0.361267    2.108784
     53          1           0       -6.256335    2.676983   -3.396751
     54          1           0       -4.835973    3.104419   -2.717074
     55          1           0       -6.237251    3.402373   -1.934947
     56          1           0       -3.398816   -3.068443    0.330204
     57          1           0       -5.077172   -2.786563    0.212839
     58          7           0       -4.144356   -2.467517    0.041734
     59          6           0       -3.906284   -1.292731   -0.545115
     60          6           0       -4.514932    0.770591   -1.561960
     61          7           0       -3.251981    1.173348   -1.779112
     62          1           0       -1.337034    0.509178   -1.475023
     63          6           0       -2.388574    0.260974   -1.337510
     64          7           0       -2.625044   -0.916256   -0.749464
     65          1           0       -7.744118    0.923783   -1.594430
     66          6           0       -6.701252    0.633252   -1.464186
     67          7           0       -6.303051   -0.487134   -0.912955
     68          6           0       -4.918825   -0.412767   -0.968607
     69          6           0       -5.757085    2.761902   -2.534464
     70          7           0       -5.671731    1.441968   -1.879864
 ---------------------------------------------------------------------

 SCF Done:  E(RwB97XD) =  -2048.74282590     A.U. after   15 cycles

 The electronic state is 1-A.
 Alpha  occ. eigenvalues --  -19.25612 -19.21958 -19.20779 -14.52541 -14.52199
 Alpha  occ. eigenvalues --  -14.49293 -14.48125 -14.48016 -14.47534 -14.47072
 Alpha  occ. eigenvalues --  -14.46899 -14.45487 -14.44588 -14.44526 -14.42266
 Alpha  occ. eigenvalues --  -14.42185 -14.41548 -14.40709 -14.40492 -14.40225
 Alpha  occ. eigenvalues --  -10.45184 -10.41497 -10.40090 -10.40012 -10.38462
 Alpha  occ. eigenvalues --  -10.38052 -10.37501 -10.37389 -10.36034 -10.35246
 Alpha  occ. eigenvalues --  -10.34837 -10.34764 -10.33940 -10.33874 -10.33308
 Alpha  occ. eigenvalues --  -10.32896 -10.32886 -10.32882 -10.31363 -10.30770
 Alpha  occ. eigenvalues --  -10.30461 -10.28526 -10.28067  -1.19155  -1.15313
 Alpha  occ. eigenvalues --   -1.13461  -1.12949  -1.11006  -1.10641  -1.09622
 Alpha  occ. eigenvalues --   -1.08988  -1.08784  -1.05030  -1.04827  -1.02215
 Alpha  occ. eigenvalues --   -1.01052  -1.00211  -0.99985  -0.98857  -0.97103
 Alpha  occ. eigenvalues --   -0.97047  -0.96284  -0.92528  -0.90840  -0.87766
 Alpha  occ. eigenvalues --   -0.85951  -0.84552  -0.83412  -0.83344  -0.82914
 Alpha  occ. eigenvalues --   -0.81818  -0.78694  -0.77175  -0.75008  -0.74988
 Alpha  occ. eigenvalues --   -0.73901  -0.73127  -0.72502  -0.70720  -0.70524
 Alpha  occ. eigenvalues --   -0.67694  -0.66970  -0.66337  -0.65913  -0.64680
 Alpha  occ. eigenvalues --   -0.64382  -0.63776  -0.62886  -0.62359  -0.62089
 Alpha  occ. eigenvalues --   -0.60717  -0.60448  -0.60215  -0.59422  -0.59304
 Alpha  occ. eigenvalues --   -0.59109  -0.58623  -0.57121  -0.56225  -0.55967
 Alpha  occ. eigenvalues --   -0.55734  -0.55404  -0.55148  -0.54494  -0.54249
 Alpha  occ. eigenvalues --   -0.53810  -0.53729  -0.53692  -0.53277  -0.53111
 Alpha  occ. eigenvalues --   -0.52830  -0.52185  -0.51296  -0.50495  -0.50345
 Alpha  occ. eigenvalues --   -0.50113  -0.49757  -0.49568  -0.49381  -0.49096
 Alpha  occ. eigenvalues --   -0.48624  -0.48510  -0.48228  -0.48132  -0.47413
 Alpha  occ. eigenvalues --   -0.46559  -0.45865  -0.45708  -0.44621  -0.42769
 Alpha  occ. eigenvalues --   -0.40881  -0.40809  -0.39289  -0.38111  -0.37718
 Alpha  occ. eigenvalues --   -0.37649  -0.37550  -0.36685  -0.35757  -0.34954
 Alpha  occ. eigenvalues --   -0.34513  -0.34234  -0.33344  -0.33075  -0.33013
 Alpha  occ. eigenvalues --   -0.32943  -0.32780  -0.32096  -0.31936  -0.30460
 Alpha  occ. eigenvalues --   -0.30167  -0.29650  -0.25929  -0.25428
 Alpha virt. eigenvalues --    0.02671   0.04067   0.06744   0.08305   0.08731
 Alpha virt. eigenvalues --    0.08945   0.09507   0.10403   0.11275   0.11814
 Alpha virt. eigenvalues --    0.13163   0.13720   0.14224   0.14765   0.15045

 Mulliken charges:
               1
     1  N   -0.306039
     2  C    0.182713
     3  C    0.052235
     4  N   -0.251566
     5  C    0.151001
     6  H    0.025956
     7  N   -0.297369
     8  C    0.129646
     9  H    0.009244
    10  N   -0.285098
    11  C    0.242360
    12  C    0.085299
    13  N   -0.062061
    14  H    0.118349
    15  H    0.087718
    16  H    0.023795
    17  H    0.029963
    18  H    0.019088
    19  N   -0.310667
    20  C    0.261861
    21  C    0.182083
    22  N   -0.124290
    23  H    0.118862
    24  H    0.119211
    25  N   -0.312877
    26  C    0.250984
    27  N   -0.147274
    28  H    0.120993
    29  C    0.195649
    30  O   -0.319369
    31  C   -0.016689
    32  N   -0.225532
    33  C    0.115319
    34  H    0.024492
    35  H    0.025893
    36  H    0.031583
    37  H    0.025437
    38  H    0.064065
    39  H    0.058660
    40  H    0.075220
    41  H    0.019809
    42  C   -0.121967
    43  O   -0.272431
    44  C    0.170073
    45  H    0.131755
    46  N   -0.121483
    47  O   -0.351704
    48  C    0.349366
    49  H    0.043507
    50  C    0.173309
    51  C    0.041157
    52  N   -0.275893
    53  H    0.034435
    54  H    0.042455
    55  H    0.028531
    56  H    0.126337
    57  H    0.114693
    58  N   -0.048593
    59  C    0.082758
    60  C    0.231345
    61  N   -0.265786
    62  H    0.033258
    63  C    0.170527
    64  N   -0.312541
    65  H    0.038938
    66  C    0.136271
    67  N   -0.258862
    68  C    0.019314
    69  C    0.180276
    70  N   -0.307705
 Sum of Mulliken charges =  -0.00000

 Dipole moment (field-independent basis, Debye):
    X=             -6.7863    Y=              7.6180    Z=             -1.8485  Tot=             10.3684
 Quadrupole moment (field-independent basis, Debye-Ang):
   XX=           -153.0764   YY=           -223.2894   ZZ=           -253.9452
   XY=             -3.6295   XZ=            -11.6425   YZ=              3.0621

 Normal termination of Gaussian 16 at Sun Jan 21 12:58:33 2018.
