 Gaussian 16, Revision A.03,
 Gaussian 16:  EM64L-G16RevA.03 25-Dec-2016

 ---------------------------------------
 #p wb97xd/cc-pvdz sp scf=(maxcycles=20)
 ---------------------------------------

 ------------------
 Base pair stacking
 ------------------
 Symbolic Z-matrix:
 Charge =  0 Multiplicity = 1

                         Standard orientation:
 ---------------------------------------------------------------------
 Center     Atomic      Atomic             Coordinates (Angstroms)
 Number     Number       Type             X           Y           Z
 ---------------------------------------------------------------------
      1          7           0        4.886722   -1.411843   -1.619189
      2          6           0        6.244654   -0.853003   -1.766555
      3          6           0        2.702478   -1.632286   -1.485803
      4          7           0        3.231913   -2.903326   -1.315804
      5          6           0        4.526655   -2.719644   -1.402972
      6          1           0        5.272280   -3.510502   -1.316194
      7          7           0        1.198087    0.172400   -1.692808
      8          6           0        2.272839    0.949782   -1.860631
      9          1           0        2.062465    2.007561   -2.012616
     10          7           0        3.562383    0.618243   -1.868849
     11          6           0        3.710329   -0.702552   -1.673841
     12          6           0        1.380299   -1.152081   -1.498793
     13          7           0        0.308696   -1.929705   -1.331079
     14          1           0        0.396394   -2.915635   -1.184477
     15          1           0       -0.617800   -1.553525   -1.346252
     16          1           0        6.699232   -1.279909   -2.548392
     17          1           0        6.185544    0.133774   -1.914595
     18          1           0        6.773199   -1.032799   -0.936906
     19          7           0        5.044882    1.633782    0.976378
     20          6           0        3.671328    1.654445    1.007641
     21          6           0        5.907650    2.774157    0.607746
     22          7           0        0.678202    3.361450    0.572882
     23          1           0       -0.299227    3.169885    0.657541
     24          1           0        0.936507    4.284487    0.286516
     25          7           0        2.885403    2.711482    0.709263
     26          6           0        1.601790    2.423368    0.831496
     27          7           0        1.122440    1.194714    1.216373
     28          1           0        0.124635    1.064659    1.282981
     29          6           0        1.912683    0.092832    1.528204
     30          8           0        1.379672   -0.971728    1.864882
     31          6           0        3.294093    0.387006    1.401455
     32          7           0        4.408394   -0.413250    1.613173
     33          6           0        5.421516    0.366665    1.349502
     34          1           0        6.468297    0.067230    1.411522
     35          1           0        6.463143    2.530878   -0.186644
     36          1           0        5.336512    3.563015    0.384645
     37          1           0        6.505795    3.003379    1.374883
     38          1           0       -4.933438    0.876199    0.800163
     39          1           0       -4.900756    1.110791    2.546170
     40          1           0       -3.635234    1.814462    1.538875
     41          1           0       -3.835042   -3.572431    2.266395
     42          6           0       -3.349878   -2.606225    2.127492
     43          8           0       -1.150816   -3.492336    2.205387
     44          6           0       -1.920879   -2.538987    2.091703
     45          1           0       -0.403616   -1.181843    1.880966
     46          7           0       -1.409645   -1.269556    1.911582
     47          8           0       -1.576487    0.975490    1.613055
     48          6           0       -2.119905   -0.103993    1.768272
     49          1           0       -5.158874   -1.483883    2.010553
     50          6           0       -4.069864   -1.486641    1.990536
     51          6           0       -4.293266    0.967573    1.664979
     52          7           0       -3.492353   -0.250697    1.813673
     53          1           0       -5.876564    3.703796   -2.093860
     54          1           0       -4.544416    3.741526   -1.152549
     55          1           0       -6.023721    3.645306   -0.469558
     56          1           0       -3.157891   -3.151842   -1.272573
     57          1           0       -4.827567   -2.831055   -1.411745
     58          7           0       -3.896102   -2.478513   -1.315209
     59          6           0       -3.650421   -1.168520   -1.246486
     60          6           0       -4.241640    1.136112   -1.217873
     61          7           0       -2.980738    1.580838   -1.088346
     62          1           0       -1.078188    0.832581   -0.943365
     63          6           0       -2.127383    0.559543   -1.047700
     64          7           0       -2.371489   -0.753194   -1.116382
     65          1           0       -7.456966    1.319094   -1.501333
     66          6           0       -6.420331    0.991021   -1.419508
     67          7           0       -6.031870   -0.260652   -1.428975
     68          6           0       -4.652551   -0.182831   -1.301818
     69          6           0       -5.464401    3.362765   -1.248989
     70          7           0       -5.388986    1.889590   -1.294555
 ---------------------------------------------------------------------

 SCF Done:  E(RwB97XD) =  -2048.74293352     A.U. after   15 cycles

 The electronic state is 1-A.
 Alpha  occ. eigenvalues --  -19.25242 -19.21507 -19.20491 -14.52821 -14.51844
 Alpha  occ. eigenvalues --  -14.48888 -14.48581 -14.48532 -14.47277 -14.46595
 Alpha  occ. eigenvalues --  -14.46577 -14.45809 -14.44710 -14.44601 -14.42830
 Alpha  occ. eigenvalues --  -14.41884 -14.41184 -14.41167 -14.41150 -14.40677
 Alpha  occ. eigenvalues --  -10.44883 -10.41080 -10.40387 -10.39605 -10.38306
 Alpha  occ. eigenvalues --  -10.38120 -10.37551 -10.37240 -10.36291 -10.35783
 Alpha  occ. eigenvalues --  -10.34350 -10.34218 -10.34131 -10.33915 -10.33625
 Alpha  occ. eigenvalues --  -10.33383 -10.33252 -10.32972 -10.31038 -10.31029
 Alpha  occ. eigenvalues --  -10.30598 -10.28583 -10.28119  -1.18940  -1.15674
 Alpha  occ. eigenvalues --   -1.13105  -1.12519  -1.11200  -1.10623  -1.09729
 Alpha  occ. eigenvalues --   -1.08749  -1.08452  -1.05360  -1.05201  -1.01915
 Alpha  occ. eigenvalues --   -1.01337  -1.00767  -0.99617  -0.98472  -0.97315
 Alpha  occ. eigenvalues --   -0.96873  -0.96664  -0.93055  -0.90504  -0.88076
 Alpha  occ. eigenvalues --   -0.86253  -0.84192  -0.83945  -0.83011  -0.82561
 Alpha  occ. eigenvalues --   -0.82389  -0.78337  -0.77432  -0.75246  -0.74628
 Alpha  occ. eigenvalues --   -0.73531  -0.73063  -0.72813  -0.71231  -0.70781
 Alpha  occ. eigenvalues --   -0.67339  -0.67166  -0.66475  -0.66050  -0.64628
 Alpha  occ. eigenvalues --   -0.64276  -0.63576  -0.62934  -0.62542  -0.61759
 Alpha  occ. eigenvalues --   -0.61450  -0.60843  -0.60676  -0.59819  -0.59071
 Alpha  occ. eigenvalues --   -0.58746  -0.58289  -0.57292  -0.56744  -0.55934
 Alpha  occ. eigenvalues --   -0.55915  -0.55651  -0.55551  -0.54564  -0.54080
 Alpha  occ. eigenvalues --   -0.53913  -0.53854  -0.53379  -0.53142  -0.52907
 Alpha  occ. eigenvalues --   -0.52478  -0.51871  -0.51846  -0.50640  -0.50436
 Alpha  occ. eigenvalues --   -0.50165  -0.50065  -0.49350  -0.49108  -0.48941
 Alpha  occ. eigenvalues --   -0.48704  -0.48243  -0.48080  -0.47892  -0.47095
 Alpha  occ. eigenvalues --   -0.47050  -0.45781  -0.45385  -0.44766  -0.42560
 Alpha  occ. eigenvalues --   -0.41286  -0.41095  -0.38984  -0.38160  -0.38000
 Alpha  occ. eigenvalues --   -0.37416  -0.37205  -0.37101  -0.35710  -0.35091
 Alpha  occ. eigenvalues --   -0.34650  -0.34241  -0.33614  -0.33323  -0.32877
 Alpha  occ. eigenvalues --   -0.32544  -0.32517  -0.31830  -0.31530  -0.30825
 Alpha  occ. eigenvalues --   -0.30612  -0.30125  -0.25962  -0.25498
 Alpha virt. eigenvalues --    0.03358   0.03737   0.06532   0.07686   0.08866
 Alpha virt. eigenvalues --    0.09260   0.09789   0.10122   0.10833   0.12460
 Alpha virt. eigenvalues --    0.12863   0.13935   0.14276   0.14370   0.14481

 Mulliken charges:
               1
     1  N   -0.305895
     2  C    0.179330
     3  C    0.065680
     4  N   -0.258839
     5  C    0.146204
     6  H    0.027289
     7  N   -0.285031
     8  C    0.125529
     9  H    0.013323
    10  N   -0.275201
    11  C    0.240569
    12  C    0.077684
    13  N   -0.055797
    14  H    0.112476
    15  H    0.083312
    16  H    0.027757
    17  H    0.029258
    18  H    0.020369
    19  N   -0.299735
    20  C    0.264479
    21  C    0.184560
    22  N   -0.116637
    23  H    0.121430
    24  H    0.117343
    25  N   -0.295692
    26  C    0.215146
    27  N   -0.119113
    28  H    0.115424
    29  C    0.172724
    30  O   -0.321496
    31  C   -0.015053
    32  N   -0.218961
    33  C    0.102136
    34  H    0.022318
    35  H    0.021905
    36  H    0.031227
    37  H    0.023412
    38  H    0.059268
    39  H    0.052646
    40  H    0.076490
    41  H    0.023861
    42  C   -0.102077
    43  O   -0.267482
    44  C    0.171842
    45  H    0.130227
    46  N   -0.119532
    47  O   -0.343089
    48  C    0.336457
    49  H    0.045219
    50  C    0.159097
    51  C    0.056666
    52  N   -0.276523
    53  H    0.036158
    54  H    0.040479
    55  H    0.027826
    56  H    0.122315
    57  H    0.118309
    58  N   -0.057285
    59  C    0.097528
    60  C    0.191131
    61  N   -0.257795
    62  H    0.014655
    63  C    0.181173
    64  N   -0.309417
    65  H    0.036853
    66  C    0.122430
    67  N   -0.247614
    68  C    0.019737
    69  C    0.181716
    70  N   -0.294701
 Sum of Mulliken charges =  -0.00000

 Dipole moment (field-independent basis, Debye):
    X=             -6.7345    Y=              7.1524    Z=             -2.4510  Tot=             10.1251
 Quadrupole moment (field-independent basis, Debye-Ang):
   XX=           -152.5705   YY=           -226.7265   ZZ=           -256.1768
   XY=             -1.7813   XZ=            -10.3892   YZ=             13.0668

 Normal termination of Gaussian 16 at Sun Jan 21 07:27:13 2018.
