 Gaussian 16, Revision A.03,
 Gaussian 16:  EM64L-G16RevA.03 25-Dec-2016

 ---------------------------------------
 #p wb97xd/cc-pvdz sp scf=(maxcycles=20)
 ---------------------------------------

 ------------------
 Base pair stacking
 ------------------
 Symbolic Z-matrix:
 Charge =  0 Multiplicity = 1

                         Standard orientation:
 ---------------------------------------------------------------------
 Center     Atomic      Atomic             Coordinates (Angstroms)
 Number     Number       Type             X           Y           Z
 ---------------------------------------------------------------------
      1          7           0        5.191994   -1.300226   -1.421550
      2          6           0        6.550090   -0.722694   -1.417692
      3          6           0        3.006130   -1.542999   -1.441167
      4          7           0        3.538580   -2.823722   -1.410234
      5          6           0        4.834175   -2.626208   -1.399652
      6          1           0        5.582068   -3.419325   -1.375832
      7          7           0        1.496754    0.268629   -1.493363
      8          6           0        2.570975    1.064631   -1.496927
      9          1           0        2.358310    2.132564   -1.520142
     10          7           0        3.862383    0.741002   -1.476215
     11          6           0        4.013085   -0.593516   -1.448490
     12          6           0        1.681756   -1.069302   -1.465184
     13          7           0        0.610690   -1.865528   -1.461571
     14          1           0        0.700417   -2.861891   -1.441120
     15          1           0       -0.317423   -1.493447   -1.479183
     16          1           0        7.051620   -1.041440   -2.222084
     17          1           0        6.488977    0.274792   -1.437840
     18          1           0        7.033823   -1.008663   -0.590505
     19          7           0        4.750169    1.604859    1.094936
     20          6           0        3.376481    1.611183    1.063598
     21          6           0        5.617764    2.740955    0.724470
     22          7           0        0.389878    3.267831    0.433105
     23          1           0       -0.588501    3.068436    0.480580
     24          1           0        0.652031    4.182888    0.125442
     25          7           0        2.594770    2.647993    0.692096
     26          6           0        1.309761    2.350020    0.766806
     27          7           0        0.825268    1.130587    1.173937
     28          1           0       -0.173228    0.991792    1.200241
     29          6           0        1.611120    0.049499    1.560685
     30          8           0        1.073635   -1.008266    1.911356
     31          6           0        2.993961    0.354466    1.485657
     32          7           0        4.105138   -0.425153    1.776126
     33          6           0        5.121640    0.356190    1.530258
     34          1           0        6.167365    0.070950    1.650101
     35          1           0        6.211036    2.475714   -0.034793
     36          1           0        5.049782    3.514869    0.447496
     37          1           0        6.178259    3.004141    1.508934
     38          1           0       -5.202141    0.729373    0.497480
     39          1           0       -5.250966    1.026545    2.233554
     40          1           0       -3.947866    1.707960    1.259403
     41          1           0       -4.128692   -3.651403    2.171698
     42          6           0       -3.647036   -2.685391    2.019893
     43          8           0       -1.445362   -3.543386    2.228674
     44          6           0       -2.218605   -2.603421    2.046026
     45          1           0       -0.706454   -1.237705    1.854779
     46          7           0       -1.711945   -1.335576    1.843254
     47          8           0       -1.886646    0.895358    1.456461
     48          6           0       -2.426137   -0.183929    1.626036
     49          1           0       -5.459578   -1.588338    1.781126
     50          6           0       -4.370795   -1.579576    1.810247
     51          6           0       -4.602780    0.858778    1.386342
     52          7           0       -3.797767   -0.344328    1.614917
     53          1           0       -5.581346    3.800466   -1.823494
     54          1           0       -4.303726    3.717872   -0.812076
     55          1           0       -5.817432    3.527949   -0.231822
     56          1           0       -2.840909   -3.095281   -1.758975
     57          1           0       -4.503590   -2.764044   -1.948330
     58          7           0       -3.582615   -2.424468   -1.754147
     59          6           0       -3.354772   -1.134220   -1.500154
     60          6           0       -3.970666    1.144730   -1.202148
     61          7           0       -2.723549    1.572339   -0.944688
     62          1           0       -0.824225    0.817324   -0.792685
     63          6           0       -1.863153    0.557218   -0.990756
     64          7           0       -2.089393   -0.735754   -1.244971
     65          1           0       -7.167136    1.353653   -1.639227
     66          6           0       -6.133249    1.020831   -1.543145
     67          7           0       -5.731829   -0.217487   -1.695202
     68          6           0       -4.362537   -0.152898   -1.481649
     69          6           0       -5.212964    3.352309   -1.008969
     70          7           0       -5.119802    1.898237   -1.243453
 ---------------------------------------------------------------------

 SCF Done:  E(RwB97XD) =  -2048.71160618     A.U. after   15 cycles

 The electronic state is 1-A.
 Alpha  occ. eigenvalues --  -19.25079 -19.21441 -19.20445 -14.52705 -14.51842
 Alpha  occ. eigenvalues --  -14.48730 -14.48577 -14.48500 -14.47287 -14.46600
 Alpha  occ. eigenvalues --  -14.46524 -14.46006 -14.44752 -14.44504 -14.42891
 Alpha  occ. eigenvalues --  -14.41842 -14.41346 -14.40984 -14.40943 -14.40544
 Alpha  occ. eigenvalues --  -10.44798 -10.41048 -10.40419 -10.39559 -10.38378
 Alpha  occ. eigenvalues --  -10.38048 -10.37536 -10.37231 -10.36424 -10.35795
 Alpha  occ. eigenvalues --  -10.34391 -10.34173 -10.34072 -10.34019 -10.33465
 Alpha  occ. eigenvalues --  -10.33400 -10.32966 -10.32945 -10.31334 -10.30710
 Alpha  occ. eigenvalues --  -10.30623 -10.28610 -10.27962  -1.19069  -1.15846
 Alpha  occ. eigenvalues --   -1.13092  -1.12491  -1.11347  -1.10418  -1.09751
 Alpha  occ. eigenvalues --   -1.08807  -1.08460  -1.05391  -1.05243  -1.01925
 Alpha  occ. eigenvalues --   -1.01475  -1.00847  -0.99617  -0.98463  -0.97368
 Alpha  occ. eigenvalues --   -0.97029  -0.96476  -0.93091  -0.90547  -0.88167
 Alpha  occ. eigenvalues --   -0.86391  -0.84106  -0.84033  -0.83141  -0.82564
 Alpha  occ. eigenvalues --   -0.82336  -0.78361  -0.77516  -0.75401  -0.74503
 Alpha  occ. eigenvalues --   -0.73511  -0.73167  -0.72850  -0.71323  -0.70870
 Alpha  occ. eigenvalues --   -0.67333  -0.67263  -0.66605  -0.66103  -0.64754
 Alpha  occ. eigenvalues --   -0.64279  -0.63717  -0.63055  -0.62596  -0.61864
 Alpha  occ. eigenvalues --   -0.61676  -0.60947  -0.60793  -0.59957  -0.59149
 Alpha  occ. eigenvalues --   -0.58534  -0.58257  -0.57598  -0.56858  -0.56157
 Alpha  occ. eigenvalues --   -0.55958  -0.55795  -0.55562  -0.54626  -0.54147
 Alpha  occ. eigenvalues --   -0.53932  -0.53907  -0.53357  -0.53178  -0.52866
 Alpha  occ. eigenvalues --   -0.52650  -0.52109  -0.52025  -0.50905  -0.50458
 Alpha  occ. eigenvalues --   -0.50092  -0.49910  -0.49244  -0.49147  -0.48825
 Alpha  occ. eigenvalues --   -0.48544  -0.48313  -0.48058  -0.47720  -0.47217
 Alpha  occ. eigenvalues --   -0.47036  -0.45540  -0.44793  -0.44631  -0.42494
 Alpha  occ. eigenvalues --   -0.41333  -0.41002  -0.39047  -0.38108  -0.38058
 Alpha  occ. eigenvalues --   -0.37725  -0.37185  -0.36953  -0.35844  -0.35235
 Alpha  occ. eigenvalues --   -0.34769  -0.34361  -0.33711  -0.33285  -0.32809
 Alpha  occ. eigenvalues --   -0.32465  -0.31965  -0.31752  -0.31631  -0.30908
 Alpha  occ. eigenvalues --   -0.30522  -0.29663  -0.25844  -0.25364
 Alpha virt. eigenvalues --    0.03366   0.03655   0.06551   0.07825   0.08986
 Alpha virt. eigenvalues --    0.09373   0.09628   0.09912   0.10904   0.12675
 Alpha virt. eigenvalues --    0.12743   0.13900   0.14150   0.14197   0.14588

 Mulliken charges:
               1
     1  N   -0.308777
     2  C    0.176778
     3  C    0.071891
     4  N   -0.261094
     5  C    0.141212
     6  H    0.026716
     7  N   -0.280055
     8  C    0.123557
     9  H    0.021824
    10  N   -0.280469
    11  C    0.240823
    12  C    0.075078
    13  N   -0.052635
    14  H    0.109167
    15  H    0.082239
    16  H    0.029323
    17  H    0.026919
    18  H    0.024208
    19  N   -0.274997
    20  C    0.226245
    21  C    0.184804
    22  N   -0.107020
    23  H    0.118015
    24  H    0.116414
    25  N   -0.287448
    26  C    0.204927
    27  N   -0.108485
    28  H    0.112568
    29  C    0.165378
    30  O   -0.321399
    31  C    0.000898
    32  N   -0.215866
    33  C    0.100607
    34  H    0.016814
    35  H    0.019059
    36  H    0.029498
    37  H    0.022132
    38  H    0.049972
    39  H    0.049044
    40  H    0.073566
    41  H    0.026609
    42  C   -0.103135
    43  O   -0.266370
    44  C    0.174202
    45  H    0.129562
    46  N   -0.117281
    47  O   -0.335009
    48  C    0.330457
    49  H    0.046268
    50  C    0.162560
    51  C    0.074303
    52  N   -0.278654
    53  H    0.037908
    54  H    0.039939
    55  H    0.026515
    56  H    0.122057
    57  H    0.119290
    58  N   -0.060659
    59  C    0.097534
    60  C    0.164187
    61  N   -0.251033
    62  H    0.005158
    63  C    0.180322
    64  N   -0.302363
    65  H    0.035286
    66  C    0.113505
    67  N   -0.245437
    68  C    0.039909
    69  C    0.181504
    70  N   -0.288564
 Sum of Mulliken charges =  -0.00000

 Dipole moment (field-independent basis, Debye):
    X=             -6.6360    Y=              7.0118    Z=             -3.1778  Tot=             10.1637
 Quadrupole moment (field-independent basis, Debye-Ang):
   XX=           -151.8851   YY=           -228.2656   ZZ=           -257.5782
   XY=             -2.9746   XZ=             -7.2085   YZ=             15.0982

 Normal termination of Gaussian 16 at Sun Jan 21 15:22:58 2018.
