 Gaussian 16, Revision A.03,
 Gaussian 16:  EM64L-G16RevA.03 25-Dec-2016

 ---------------------------------------
 #p wb97xd/cc-pvdz sp scf=(maxcycles=20)
 ---------------------------------------

 ------------------
 Base pair stacking
 ------------------
 Symbolic Z-matrix:
 Charge =  0 Multiplicity = 1

                         Standard orientation:
 ---------------------------------------------------------------------
 Center     Atomic      Atomic             Coordinates (Angstroms)
 Number     Number       Type             X           Y           Z
 ---------------------------------------------------------------------
      1          7           0       -6.670652   -1.299237    0.381958
      2          6           0       -8.018839   -0.722640    0.549070
      3          6           0       -4.497798   -1.631836    0.455487
      4          7           0       -5.032821   -2.712458   -0.230608
      5          6           0       -6.320479   -2.468829   -0.247452
      6          1           0       -7.067675   -3.114663   -0.709555
      7          7           0       -2.988926   -0.145516    1.493308
      8          6           0       -4.053860    0.604617    1.794643
      9          1           0       -3.837789    1.518632    2.346151
     10          7           0       -5.339587    0.396205    1.518291
     11          6           0       -5.495173   -0.752388    0.839348
     12          6           0       -3.178656   -1.295137    0.809622
     13          7           0       -2.116860   -2.045291    0.507895
     14          1           0       -2.210371   -2.904118    0.003025
     15          1           0       -1.192238   -1.774564    0.776079
     16          1           0       -8.595571   -1.361965    1.057815
     17          1           0       -7.953780    0.138753    1.051953
     18          1           0       -8.424566   -0.552551   -0.348962
     19          7           0       -3.122231    2.313911   -1.460844
     20          6           0       -1.762121    2.224634   -1.287126
     21          6           0       -3.941945    3.509866   -1.180745
     22          7           0        1.251598    3.672674   -0.347738
     23          1           0        2.213274    3.405281   -0.293733
     24          1           0        1.023629    4.605560   -0.067610
     25          7           0       -0.952515    3.206561   -0.835011
     26          6           0        0.309306    2.819305   -0.776421
     27          7           0        0.746890    1.566710   -1.132854
     28          1           0        1.730573    1.358491   -1.055622
     29          6           0       -0.068335    0.540812   -1.600620
     30          8           0        0.427276   -0.553882   -1.895172
     31          6           0       -1.426776    0.941869   -1.669042
     32          7           0       -2.553678    0.239952   -2.074371
     33          6           0       -3.533026    1.091668   -1.934156
     34          1           0       -4.578083    0.879330   -2.162275
     35          1           0       -4.627787    3.291048   -0.487517
     36          1           0       -3.352985    4.243900   -0.845205
     37          1           0       -4.398355    3.806916   -2.018750
     38          1           0        6.628874    0.750210    0.164773
     39          1           0        6.877972    1.033150   -1.556433
     40          1           0        5.531823    1.809405   -0.721766
     41          1           0        5.430896   -3.554751   -1.618153
     42          6           0        5.004859   -2.556631   -1.515730
     43          8           0        2.782073   -3.260245   -1.953078
     44          6           0        3.596063   -2.375429   -1.689828
     45          1           0        2.171491   -0.906532   -1.654530
     46          7           0        3.161063   -1.074188   -1.538878
     47          8           0        3.450351    1.141353   -1.132810
     48          6           0        3.927690    0.026119   -1.247058
     49          1           0        6.855168   -1.587247   -1.088599
     50          6           0        5.778567   -1.502765   -1.230523
     51          6           0        6.135351    0.915907   -0.781301
     52          7           0        5.276189   -0.229455   -1.093914
     53          1           0        4.048423    2.433757    4.043868
     54          1           0        2.870864    2.910441    3.020038
     55          1           0        4.431151    2.945481    2.542167
     56          1           0        1.284018   -3.439860    0.448844
     57          1           0        2.923589   -3.324312    0.905493
     58          7           0        2.026990   -2.887169    0.826537
     59          6           0        1.831877   -1.623286    1.208263
     60          6           0        2.486944    0.485473    2.094688
     61          7           0        1.272132    1.046563    1.977064
     62          1           0       -0.609141    0.553696    1.330122
     63          6           0        0.405013    0.178374    1.460092
     64          7           0        0.598485   -1.087920    1.077132
     65          1           0        5.629525    0.297651    2.830269
     66          6           0        4.607193    0.104255    2.504111
     67          7           0        4.185709   -1.033476    2.008537
     68          6           0        2.842923   -0.805384    1.744690
     69          6           0        3.755371    2.449829    3.087909
     70          7           0        3.631726    1.067942    2.584791
 ---------------------------------------------------------------------

 SCF Done:  E(RwB97XD) =  -2048.74971677     A.U. after   15 cycles

 The electronic state is 1-A.
 Alpha  occ. eigenvalues --  -19.26048 -19.22184 -19.20713 -14.52522 -14.51505
 Alpha  occ. eigenvalues --  -14.49162 -14.48694 -14.48018 -14.46967 -14.46786
 Alpha  occ. eigenvalues --  -14.46381 -14.44558 -14.42987 -14.42886 -14.42316
 Alpha  occ. eigenvalues --  -14.42085 -14.41765 -14.41307 -14.40805 -14.40456
 Alpha  occ. eigenvalues --  -10.45638 -10.41275 -10.40299 -10.38502 -10.38290
 Alpha  occ. eigenvalues --  -10.37827 -10.37096 -10.36046 -10.35672 -10.35588
 Alpha  occ. eigenvalues --  -10.34600 -10.34425 -10.34362 -10.33724 -10.33428
 Alpha  occ. eigenvalues --  -10.33372 -10.33255 -10.31444 -10.31360 -10.31072
 Alpha  occ. eigenvalues --  -10.30632 -10.28861 -10.28127  -1.19591  -1.14173
 Alpha  occ. eigenvalues --   -1.13276  -1.13255  -1.11728  -1.10571  -1.09412
 Alpha  occ. eigenvalues --   -1.08628  -1.07862  -1.05285  -1.03409  -1.02664
 Alpha  occ. eigenvalues --   -1.00689  -0.99954  -0.99827  -0.98577  -0.97290
 Alpha  occ. eigenvalues --   -0.96518  -0.95465  -0.92922  -0.91090  -0.86597
 Alpha  occ. eigenvalues --   -0.85051  -0.84302  -0.84072  -0.83865  -0.82662
 Alpha  occ. eigenvalues --   -0.82379  -0.78955  -0.75853  -0.74618  -0.73725
 Alpha  occ. eigenvalues --   -0.73606  -0.73494  -0.73195  -0.71375  -0.69217
 Alpha  occ. eigenvalues --   -0.67430  -0.66665  -0.66591  -0.65563  -0.64554
 Alpha  occ. eigenvalues --   -0.63793  -0.63149  -0.62879  -0.62715  -0.61780
 Alpha  occ. eigenvalues --   -0.60473  -0.60144  -0.59594  -0.59373  -0.58678
 Alpha  occ. eigenvalues --   -0.58460  -0.58439  -0.56849  -0.56797  -0.56475
 Alpha  occ. eigenvalues --   -0.56103  -0.55615  -0.54579  -0.54490  -0.54378
 Alpha  occ. eigenvalues --   -0.53678  -0.53555  -0.52944  -0.52749  -0.52677
 Alpha  occ. eigenvalues --   -0.52461  -0.52072  -0.51759  -0.51140  -0.50509
 Alpha  occ. eigenvalues --   -0.50197  -0.49587  -0.49421  -0.49140  -0.48885
 Alpha  occ. eigenvalues --   -0.48632  -0.48321  -0.47851  -0.47593  -0.47454
 Alpha  occ. eigenvalues --   -0.47274  -0.45431  -0.45300  -0.44082  -0.43419
 Alpha  occ. eigenvalues --   -0.41516  -0.39687  -0.39588  -0.37506  -0.37314
 Alpha  occ. eigenvalues --   -0.37243  -0.36728  -0.36441  -0.35845  -0.34295
 Alpha  occ. eigenvalues --   -0.33923  -0.33806  -0.33467  -0.33412  -0.32973
 Alpha  occ. eigenvalues --   -0.32748  -0.32287  -0.32115  -0.31879  -0.31302
 Alpha  occ. eigenvalues --   -0.30680  -0.28527  -0.26109  -0.25435
 Alpha virt. eigenvalues --    0.02945   0.05073   0.07686   0.08025   0.08724
 Alpha virt. eigenvalues --    0.09051   0.09672   0.10626   0.10840   0.11692
 Alpha virt. eigenvalues --    0.12942   0.13770   0.14539   0.14627   0.15614

 Mulliken charges:
               1
     1  N   -0.311194
     2  C    0.180430
     3  C    0.046020
     4  N   -0.255524
     5  C    0.130900
     6  H    0.027172
     7  N   -0.285975
     8  C    0.130538
     9  H    0.013537
    10  N   -0.291219
    11  C    0.229652
    12  C    0.108959
    13  N   -0.045353
    14  H    0.109673
    15  H    0.090052
    16  H    0.027024
    17  H    0.034161
    18  H    0.024491
    19  N   -0.307364
    20  C    0.253198
    21  C    0.179913
    22  N   -0.116889
    23  H    0.111838
    24  H    0.116860
    25  N   -0.306108
    26  C    0.240467
    27  N   -0.134553
    28  H    0.116315
    29  C    0.162634
    30  O   -0.322590
    31  C    0.000986
    32  N   -0.224893
    33  C    0.126927
    34  H    0.026334
    35  H    0.031972
    36  H    0.027510
    37  H    0.022719
    38  H    0.053405
    39  H    0.062853
    40  H    0.072163
    41  H    0.028769
    42  C   -0.106409
    43  O   -0.278253
    44  C    0.161556
    45  H    0.137653
    46  N   -0.127053
    47  O   -0.349110
    48  C    0.352669
    49  H    0.047188
    50  C    0.186259
    51  C    0.040446
    52  N   -0.285730
    53  H    0.032787
    54  H    0.039772
    55  H    0.020807
    56  H    0.125170
    57  H    0.116912
    58  N   -0.042443
    59  C    0.104460
    60  C    0.243793
    61  N   -0.273441
    62  H    0.037834
    63  C    0.165105
    64  N   -0.301663
    65  H    0.030338
    66  C    0.121829
    67  N   -0.256014
    68  C    0.000067
    69  C    0.179167
    70  N   -0.309504
 Sum of Mulliken charges =  -0.00000

 Dipole moment (field-independent basis, Debye):
    X=              6.7639    Y=              6.1747    Z=              2.7956  Tot=              9.5756
 Quadrupole moment (field-independent basis, Debye-Ang):
   XX=           -142.8298   YY=           -224.5286   ZZ=           -254.2630
   XY=              8.9939   XZ=             13.1740   YZ=             -3.8610

 Normal termination of Gaussian 16 at Sun Jan 21 07:38:44 2018.
