 Gaussian 16, Revision A.03,
 Gaussian 16:  EM64L-G16RevA.03 25-Dec-2016

 ---------------------------------------
 #p wb97xd/cc-pvdz sp scf=(maxcycles=20)
 ---------------------------------------

 ------------------
 Base pair stacking
 ------------------
 Symbolic Z-matrix:
 Charge =  0 Multiplicity = 1

                         Standard orientation:
 ---------------------------------------------------------------------
 Center     Atomic      Atomic             Coordinates (Angstroms)
 Number     Number       Type             X           Y           Z
 ---------------------------------------------------------------------
      1          7           0       -6.839621   -1.129198    0.338935
      2          6           0       -8.156439   -0.490918    0.147693
      3          6           0       -4.694864   -1.471187    0.685934
      4          7           0       -5.266705   -2.724906    0.524932
      5          6           0       -6.535949   -2.468690    0.322329
      6          1           0       -7.302079   -3.226000    0.153593
      7          7           0       -3.140901    0.267735    1.038512
      8          6           0       -4.169978    1.111052    0.906605
      9          1           0       -3.921062    2.167023    1.002670
     10          7           0       -5.454311    0.847040    0.674946
     11          6           0       -5.652001   -0.477772    0.573890
     12          6           0       -3.372515   -1.058924    0.931601
     13          7           0       -2.346561   -1.902332    1.062980
     14          1           0       -2.471704   -2.892489    0.991298
     15          1           0       -1.418387   -1.573388    1.237439
     16          1           0       -8.789314   -0.811545    0.852579
     17          1           0       -8.059446    0.501665    0.214724
     18          1           0       -8.516625   -0.728773   -0.754348
     19          7           0       -2.974196    1.873947   -1.531178
     20          6           0       -1.622961    1.817083   -1.288338
     21          6           0       -3.842830    3.036072   -1.256135
     22          7           0        1.292899    3.316349   -0.143024
     23          1           0        2.258014    3.074426   -0.046686
     24          1           0        1.022810    4.232310    0.154947
     25          7           0       -0.867813    2.805352   -0.761900
     26          6           0        0.400241    2.451977   -0.648930
     27          7           0        0.893115    1.225137   -1.022352
     28          1           0        1.877212    1.042152   -0.899720
     29          6           0        0.134493    0.193314   -1.566155
     30          8           0        0.677341   -0.876262   -1.869554
     31          6           0       -1.229900    0.558097   -1.693619
     32          7           0       -2.312589   -0.160969   -2.181091
     33          6           0       -3.322956    0.657552   -2.065426
     34          1           0       -4.347847    0.423830   -2.355661
     35          1           0       -4.557090    2.774429   -0.607929
     36          1           0       -3.294423    3.774466   -0.865899
     37          1           0       -4.263508    3.348679   -2.107079
     38          1           0        6.721056    0.530516    0.559082
     39          1           0        7.051170    0.879130   -1.136247
     40          1           0        5.640638    1.588162   -0.349458
     41          1           0        5.747164   -3.742856   -1.424933
     42          6           0        5.286683   -2.761224   -1.312738
     43          8           0        3.111830   -3.511717   -1.890555
     44          6           0        3.884133   -2.613878   -1.555545
     45          1           0        2.416367   -1.187722   -1.548089
     46          7           0        3.403114   -1.331328   -1.385476
     47          8           0        3.604391    0.876270   -0.892334
     48          6           0        4.120189   -0.220529   -1.017435
     49          1           0        7.082339   -1.755339   -0.756253
     50          6           0        6.012581   -1.696383   -0.952431
     51          6           0        6.272903    0.714572   -0.405979
     52          7           0        5.465886   -0.443140   -0.801177
     53          1           0        3.934907    3.463436    2.588585
     54          1           0        2.827905    3.470332    1.389991
     55          1           0        4.404648    3.230237    1.043141
     56          1           0        0.964892   -3.295791    1.841952
     57          1           0        2.589759   -3.046238    2.297624
     58          7           0        1.724490   -2.659427    1.976826
     59          6           0        1.590611   -1.352892    1.739724
     60          6           0        2.335805    0.904006    1.626533
     61          7           0        1.161997    1.395468    1.196348
     62          1           0       -0.719164    0.732328    0.725071
     63          6           0        0.265086    0.419399    1.070881
     64          7           0        0.397247   -0.889784    1.307858
     65          1           0        5.431136    0.954258    2.558498
     66          6           0        4.412328    0.671743    2.291742
     67          7           0        3.943049   -0.551264    2.333210
     68          6           0        2.627334   -0.418109    1.913827
     69          6           0        3.680133    3.058025    1.710667
     70          7           0        3.493670    1.603052    1.872860
 ---------------------------------------------------------------------

 SCF Done:  E(RwB97XD) =  -2048.65349937     A.U. after   15 cycles

 The electronic state is 1-A.
 Alpha  occ. eigenvalues --  -19.26048 -19.21887 -19.20488 -14.52514 -14.51616
 Alpha  occ. eigenvalues --  -14.49756 -14.48363 -14.47895 -14.47149 -14.46129
 Alpha  occ. eigenvalues --  -14.45365 -14.44695 -14.43405 -14.43150 -14.42388
 Alpha  occ. eigenvalues --  -14.42155 -14.42136 -14.41852 -14.41038 -14.40649
 Alpha  occ. eigenvalues --  -10.45609 -10.40790 -10.40015 -10.38896 -10.37989
 Alpha  occ. eigenvalues --  -10.37709 -10.37327 -10.36430 -10.36227 -10.35832
 Alpha  occ. eigenvalues --  -10.35017 -10.34902 -10.34466 -10.34164 -10.34131
 Alpha  occ. eigenvalues --  -10.34117 -10.33036 -10.31789 -10.31547 -10.31006
 Alpha  occ. eigenvalues --  -10.29940 -10.29560 -10.27996  -1.19659  -1.14572
 Alpha  occ. eigenvalues --   -1.13346  -1.12944  -1.12359  -1.10428  -1.09409
 Alpha  occ. eigenvalues --   -1.08888  -1.08052  -1.06030  -1.03874  -1.02520
 Alpha  occ. eigenvalues --   -1.01520  -1.00529  -0.99456  -0.98553  -0.97924
 Alpha  occ. eigenvalues --   -0.96474  -0.95774  -0.93691  -0.91050  -0.87169
 Alpha  occ. eigenvalues --   -0.85801  -0.85003  -0.84018  -0.83857  -0.83274
 Alpha  occ. eigenvalues --   -0.82124  -0.78891  -0.76414  -0.74906  -0.74126
 Alpha  occ. eigenvalues --   -0.73908  -0.73441  -0.73389  -0.72224  -0.69885
 Alpha  occ. eigenvalues --   -0.67476  -0.67347  -0.66617  -0.66266  -0.64482
 Alpha  occ. eigenvalues --   -0.63907  -0.63802  -0.63462  -0.62928  -0.61756
 Alpha  occ. eigenvalues --   -0.61285  -0.60755  -0.59980  -0.59577  -0.59333
 Alpha  occ. eigenvalues --   -0.58975  -0.58255  -0.57956  -0.57333  -0.57019
 Alpha  occ. eigenvalues --   -0.56263  -0.55956  -0.55546  -0.54690  -0.54442
 Alpha  occ. eigenvalues --   -0.54227  -0.53471  -0.53144  -0.52778  -0.52670
 Alpha  occ. eigenvalues --   -0.52531  -0.52324  -0.51787  -0.51590  -0.50897
 Alpha  occ. eigenvalues --   -0.50034  -0.49918  -0.49493  -0.49316  -0.48569
 Alpha  occ. eigenvalues --   -0.48462  -0.48434  -0.48129  -0.47670  -0.47328
 Alpha  occ. eigenvalues --   -0.47244  -0.46012  -0.45688  -0.43979  -0.42839
 Alpha  occ. eigenvalues --   -0.42156  -0.40380  -0.39679  -0.38329  -0.37516
 Alpha  occ. eigenvalues --   -0.37262  -0.37138  -0.36076  -0.35527  -0.34728
 Alpha  occ. eigenvalues --   -0.34552  -0.34483  -0.33415  -0.33088  -0.32592
 Alpha  occ. eigenvalues --   -0.32522  -0.31895  -0.31782  -0.31632  -0.31481
 Alpha  occ. eigenvalues --   -0.30691  -0.27600  -0.26828  -0.25276
 Alpha virt. eigenvalues --    0.03209   0.04416   0.06952   0.07867   0.08737
 Alpha virt. eigenvalues --    0.09000   0.09516   0.09962   0.11330   0.11906
 Alpha virt. eigenvalues --    0.13162   0.13266   0.14334   0.14450   0.14696

 Mulliken charges:
               1
     1  N   -0.312675
     2  C    0.180252
     3  C    0.049095
     4  N   -0.258243
     5  C    0.134191
     6  H    0.029633
     7  N   -0.269794
     8  C    0.127769
     9  H    0.016909
    10  N   -0.292742
    11  C    0.233023
    12  C    0.104729
    13  N   -0.050358
    14  H    0.107335
    15  H    0.087425
    16  H    0.028003
    17  H    0.033923
    18  H    0.027641
    19  N   -0.291855
    20  C    0.228942
    21  C    0.170806
    22  N   -0.063133
    23  H    0.090569
    24  H    0.112203
    25  N   -0.277320
    26  C    0.194312
    27  N   -0.110583
    28  H    0.122870
    29  C    0.124581
    30  O   -0.319939
    31  C    0.028900
    32  N   -0.218986
    33  C    0.112202
    34  H    0.026314
    35  H    0.029245
    36  H    0.026169
    37  H    0.019592
    38  H    0.054838
    39  H    0.066169
    40  H    0.068462
    41  H    0.031423
    42  C   -0.110509
    43  O   -0.265109
    44  C    0.182181
    45  H    0.134682
    46  N   -0.134223
    47  O   -0.349445
    48  C    0.358840
    49  H    0.046897
    50  C    0.177130
    51  C    0.036605
    52  N   -0.289449
    53  H    0.035850
    54  H    0.010308
    55  H    0.027872
    56  H    0.119274
    57  H    0.118662
    58  N   -0.069612
    59  C    0.124310
    60  C    0.233556
    61  N   -0.300909
    62  H    0.057631
    63  C    0.181994
    64  N   -0.305441
    65  H    0.028431
    66  C    0.110203
    67  N   -0.253093
    68  C    0.007272
    69  C    0.178975
    70  N   -0.294778
 Sum of Mulliken charges =  -0.00000

 Dipole moment (field-independent basis, Debye):
    X=              5.7583    Y=              5.8120    Z=              4.1974  Tot=              9.1954
 Quadrupole moment (field-independent basis, Debye-Ang):
   XX=           -141.0174   YY=           -229.2367   ZZ=           -257.1267
   XY=             13.4882   XZ=             12.6122   YZ=            -11.2549

 Normal termination of Gaussian 16 at Sun Jan 21 16:45:49 2018.
