 Gaussian 16, Revision A.03,
 Gaussian 16:  EM64L-G16RevA.03 25-Dec-2016

 ---------------------------------------
 #p wb97xd/cc-pvdz sp scf=(maxcycles=20)
 ---------------------------------------

 ------------------
 Base pair stacking
 ------------------
 Symbolic Z-matrix:
 Charge =  0 Multiplicity = 1

                         Standard orientation:
 ---------------------------------------------------------------------
 Center     Atomic      Atomic             Coordinates (Angstroms)
 Number     Number       Type             X           Y           Z
 ---------------------------------------------------------------------
      1          7           0       -6.659454   -1.273848    0.420190
      2          6           0       -8.004328   -0.675725    0.527727
      3          6           0       -4.489347   -1.612733    0.534704
      4          7           0       -5.028749   -2.747160   -0.054234
      5          6           0       -6.314564   -2.497592   -0.099652
      6          1           0       -7.064126   -3.177462   -0.505711
      7          7           0       -2.974913   -0.049004    1.442552
      8          6           0       -4.035944    0.732165    1.669632
      9          1           0       -3.816027    1.690640    2.137844
     10          7           0       -5.321814    0.508164    1.406414
     11          6           0       -5.482302   -0.695799    0.832699
     12          6           0       -3.169523   -1.254210    0.864023
     13          7           0       -2.111627   -2.035411    0.636535
     14          1           0       -2.208815   -2.935532    0.210453
     15          1           0       -1.186378   -1.747713    0.884117
     16          1           0       -8.587871   -1.262900    1.088873
     17          1           0       -7.935570    0.226964    0.951454
     18          1           0       -8.404690   -0.584449   -0.384075
     19          7           0       -3.143836    2.213500   -1.503400
     20          6           0       -1.784312    2.134377   -1.320406
     21          6           0       -3.973185    3.405820   -1.236471
     22          7           0        1.213698    3.608460   -0.371326
     23          1           0        2.176745    3.347798   -0.309404
     24          1           0        0.977805    4.541634   -0.098837
     25          7           0       -0.984109    3.124586   -0.869610
     26          6           0        0.279825    2.746077   -0.800382
     27          7           0        0.727921    1.494088   -1.145723
     28          1           0        1.712434    1.292896   -1.060816
     29          6           0       -0.077508    0.459774   -1.611909
     30          8           0        0.427177   -0.633524   -1.896028
     31          6           0       -1.438081    0.851378   -1.691674
     32          7           0       -2.557711    0.139366   -2.099557
     33          6           0       -3.543521    0.985491   -1.971257
     34          1           0       -4.585669    0.764740   -2.204646
     35          1           0       -4.662020    3.187028   -0.546222
     36          1           0       -3.391240    4.145922   -0.902026
     37          1           0       -4.426128    3.694335   -2.079333
     38          1           0        6.606660    0.725070    0.194906
     39          1           0        6.864977    0.998332   -1.526502
     40          1           0        5.508409    1.771135   -0.705612
     41          1           0        5.448524   -3.599340   -1.567151
     42          6           0        5.015288   -2.603413   -1.474062
     43          8           0        2.800038   -3.324578   -1.920976
     44          6           0        3.606486   -2.432680   -1.658365
     45          1           0        2.172083   -0.973040   -1.641898
     46          7           0        3.161965   -1.133383   -1.518808
     47          8           0        3.434064    1.086641   -1.125554
     48          6           0        3.919453   -0.026147   -1.229373
     49          1           0        6.856396   -1.619016   -1.041514
     50          6           0        5.780199   -1.542601   -1.190870
     51          6           0        6.118172    0.881276   -0.755371
     52          7           0        5.268581   -0.271775   -1.065916
     53          1           0        4.068471    2.703018    3.787635
     54          1           0        2.899022    3.093390    2.718944
     55          1           0        4.461701    3.075074    2.248036
     56          1           0        1.279633   -3.451911    0.720915
     57          1           0        2.917860   -3.306502    1.173898
     58          7           0        2.024713   -2.872369    1.051268
     59          6           0        1.836695   -1.578017    1.316768
     60          6           0        2.502403    0.597597    2.013398
     61          7           0        1.292100    1.153778    1.839440
     62          1           0       -0.589561    0.617068    1.229610
     63          6           0        0.421326    0.248307    1.398108
     64          7           0        0.607698   -1.048539    1.131581
     65          1           0        5.640161    0.456099    2.779318
     66          6           0        4.618013    0.240849    2.466533
     67          7           0        4.190875   -0.934066    2.073075
     68          6           0        2.850946   -0.721827    1.782770
     69          6           0        3.779956    2.634954    2.832581
     70          7           0        3.648961    1.214255    2.455134
 ---------------------------------------------------------------------

 SCF Done:  E(RwB97XD) =  -2048.75048231     A.U. after   15 cycles

 The electronic state is 1-A.
 Alpha  occ. eigenvalues --  -19.26004 -19.22099 -19.20649 -14.52474 -14.51603
 Alpha  occ. eigenvalues --  -14.49246 -14.48625 -14.47950 -14.46858 -14.46679
 Alpha  occ. eigenvalues --  -14.46651 -14.44644 -14.43076 -14.43050 -14.42462
 Alpha  occ. eigenvalues --  -14.42029 -14.41849 -14.41437 -14.40749 -14.40564
 Alpha  occ. eigenvalues --  -10.45589 -10.41176 -10.40213 -10.38681 -10.38216
 Alpha  occ. eigenvalues --  -10.37768 -10.37193 -10.36168 -10.35793 -10.35583
 Alpha  occ. eigenvalues --  -10.34745 -10.34507 -10.34296 -10.33821 -10.33541
 Alpha  occ. eigenvalues --  -10.33512 -10.33201 -10.31552 -10.31426 -10.31026
 Alpha  occ. eigenvalues --  -10.30529 -10.28961 -10.28062  -1.19549  -1.14278
 Alpha  occ. eigenvalues --   -1.13209  -1.13140  -1.11815  -1.10506  -1.09363
 Alpha  occ. eigenvalues --   -1.08547  -1.08023  -1.05397  -1.03571  -1.02591
 Alpha  occ. eigenvalues --   -1.00812  -1.00073  -0.99738  -0.98512  -0.97382
 Alpha  occ. eigenvalues --   -0.96448  -0.95621  -0.93040  -0.91041  -0.86725
 Alpha  occ. eigenvalues --   -0.85186  -0.84390  -0.84004  -0.83833  -0.82748
 Alpha  occ. eigenvalues --   -0.82297  -0.78898  -0.75998  -0.74552  -0.73748
 Alpha  occ. eigenvalues --   -0.73649  -0.73429  -0.73296  -0.71483  -0.69371
 Alpha  occ. eigenvalues --   -0.67353  -0.66699  -0.66602  -0.65712  -0.64492
 Alpha  occ. eigenvalues --   -0.63723  -0.63296  -0.63009  -0.62662  -0.61702
 Alpha  occ. eigenvalues --   -0.60581  -0.60217  -0.59564  -0.59502  -0.58717
 Alpha  occ. eigenvalues --   -0.58606  -0.58350  -0.56934  -0.56896  -0.56441
 Alpha  occ. eigenvalues --   -0.56049  -0.55729  -0.54644  -0.54505  -0.54414
 Alpha  occ. eigenvalues --   -0.53606  -0.53591  -0.52882  -0.52803  -0.52658
 Alpha  occ. eigenvalues --   -0.52502  -0.52158  -0.51876  -0.51223  -0.50604
 Alpha  occ. eigenvalues --   -0.50113  -0.49547  -0.49490  -0.49030  -0.48790
 Alpha  occ. eigenvalues --   -0.48723  -0.48260  -0.47885  -0.47570  -0.47412
 Alpha  occ. eigenvalues --   -0.47370  -0.45445  -0.45353  -0.44009  -0.43576
 Alpha  occ. eigenvalues --   -0.41627  -0.39828  -0.39546  -0.37616  -0.37261
 Alpha  occ. eigenvalues --   -0.37206  -0.36802  -0.36527  -0.35820  -0.34211
 Alpha  occ. eigenvalues --   -0.34029  -0.33892  -0.33557  -0.33308  -0.33103
 Alpha  occ. eigenvalues --   -0.32687  -0.32225  -0.32033  -0.31829  -0.31399
 Alpha  occ. eigenvalues --   -0.30793  -0.28687  -0.26209  -0.25377
 Alpha virt. eigenvalues --    0.03031   0.04954   0.07581   0.07960   0.08759
 Alpha virt. eigenvalues --    0.09078   0.09704   0.10501   0.10815   0.11508
 Alpha virt. eigenvalues --    0.12963   0.13732   0.14501   0.14657   0.15307

 Mulliken charges:
               1
     1  N   -0.311370
     2  C    0.180361
     3  C    0.047891
     4  N   -0.256038
     5  C    0.131621
     6  H    0.027564
     7  N   -0.283841
     8  C    0.130381
     9  H    0.014005
    10  N   -0.291376
    11  C    0.229448
    12  C    0.108347
    13  N   -0.046085
    14  H    0.109413
    15  H    0.089634
    16  H    0.027185
    17  H    0.033974
    18  H    0.024947
    19  N   -0.305422
    20  C    0.251916
    21  C    0.179938
    22  N   -0.112337
    23  H    0.111345
    24  H    0.115977
    25  N   -0.303768
    26  C    0.235293
    27  N   -0.131657
    28  H    0.116335
    29  C    0.156101
    30  O   -0.321941
    31  C    0.004735
    32  N   -0.224370
    33  C    0.124986
    34  H    0.025713
    35  H    0.030446
    36  H    0.027018
    37  H    0.022407
    38  H    0.052550
    39  H    0.063320
    40  H    0.071991
    41  H    0.028940
    42  C   -0.108806
    43  O   -0.274781
    44  C    0.166860
    45  H    0.136919
    46  N   -0.128882
    47  O   -0.348580
    48  C    0.352196
    49  H    0.046943
    50  C    0.184492
    51  C    0.039707
    52  N   -0.285551
    53  H    0.033506
    54  H    0.038118
    55  H    0.020938
    56  H    0.124426
    57  H    0.117616
    58  N   -0.049472
    59  C    0.109215
    60  C    0.241627
    61  N   -0.273212
    62  H    0.038778
    63  C    0.166610
    64  N   -0.301560
    65  H    0.031378
    66  C    0.119985
    67  N   -0.254898
    68  C    0.000730
    69  C    0.178259
    70  N   -0.308136
 Sum of Mulliken charges =  -0.00000

 Dipole moment (field-independent basis, Debye):
    X=              6.6092    Y=              6.1364    Z=              2.9702  Tot=              9.4952
 Quadrupole moment (field-independent basis, Debye-Ang):
   XX=           -142.9172   YY=           -224.8517   ZZ=           -255.0140
   XY=              9.9323   XZ=             12.6513   YZ=             -5.5283

 Normal termination of Gaussian 16 at Sun Jan 21 20:42:45 2018.
