 Gaussian 16, Revision A.03,
 Gaussian 16:  EM64L-G16RevA.03 25-Dec-2016

 ---------------------------------------
 #p wb97xd/cc-pvdz sp scf=(maxcycles=20)
 ---------------------------------------

 ------------------
 Base pair stacking
 ------------------
 Symbolic Z-matrix:
 Charge =  0 Multiplicity = 1

                         Standard orientation:
 ---------------------------------------------------------------------
 Center     Atomic      Atomic             Coordinates (Angstroms)
 Number     Number       Type             X           Y           Z
 ---------------------------------------------------------------------
      1          7           0       -6.949998   -1.233960    0.147344
      2          6           0       -8.301647   -0.693524    0.390198
      3          6           0       -4.777194   -1.572096    0.191367
      4          7           0       -5.301238   -2.527032   -0.667833
      5          6           0       -6.589289   -2.285089   -0.659960
      6          1           0       -7.329296   -2.847724   -1.229863
      7          7           0       -3.284566   -0.273278    1.475128
      8          6           0       -4.355012    0.416784    1.882015
      9          1           0       -4.147877    1.228950    2.577528
     10          7           0       -5.636879    0.254977    1.560243
     11          6           0       -5.781402   -0.767830    0.701528
     12          6           0       -3.463165   -1.296364    0.611144
     13          7           0       -2.395855   -1.986380    0.203841
     14          1           0       -2.481115   -2.751585   -0.435229
     15          1           0       -1.475142   -1.762092    0.523427
     16          1           0       -8.882366   -1.407706    0.781192
     17          1           0       -8.244815    0.074515    1.027390
     18          1           0       -8.697488   -0.379803   -0.472867
     19          7           0       -2.774371    2.522275   -1.409149
     20          6           0       -1.418095    2.395935   -1.228586
     21          6           0       -3.562165    3.740957   -1.135490
     22          7           0        1.629792    3.762417   -0.277330
     23          1           0        2.583469    3.468748   -0.218064
     24          1           0        1.426266    4.701825   -0.000194
     25          7           0       -0.583936    3.356156   -0.774480
     26          6           0        0.666443    2.934409   -0.708909
     27          7           0        1.071053    1.669473   -1.060663
     28          1           0        2.048241    1.434396   -0.978180
     29          6           0        0.230145    0.665422   -1.530363
     30          8           0        0.696826   -0.443143   -1.820265
     31          6           0       -1.116374    1.103598   -1.606257
     32          7           0       -2.260218    0.432120   -2.015692
     33          6           0       -3.216391    1.310800   -1.882013
     34          1           0       -4.265784    1.126837   -2.114830
     35          1           0       -4.257125    3.542615   -0.445204
     36          1           0       -2.954825    4.459205   -0.798547
     37          1           0       -4.006142    4.048665   -1.976328
     38          1           0        6.921938    0.694032    0.267466
     39          1           0        7.187082    0.966292   -1.453060
     40          1           0        5.858814    1.781141   -0.626573
     41          1           0        5.614440   -3.580114   -1.512636
     42          6           0        5.215573   -2.570420   -1.414320
     43          8           0        2.976393   -3.213473   -1.861151
     44          6           0        3.813176   -2.350850   -1.595692
     45          1           0        2.429468   -0.843186   -1.570349
     46          7           0        3.413469   -1.037790   -1.449502
     47          8           0        3.761735    1.169800   -1.046493
     48          6           0        4.208706    0.041588   -1.156144
     49          1           0        7.089806   -1.651456   -0.980068
     50          6           0        6.016641   -1.537656   -1.127436
     51          6           0        6.437765    0.871227   -0.681339
     52          7           0        5.548890   -0.250705   -0.995865
     53          1           0        3.715679    1.862589    4.494568
     54          1           0        2.548620    2.498586    3.548222
     55          1           0        4.114186    2.612420    3.100887
     56          1           0        1.009411   -3.349572   -0.041406
     57          1           0        2.643301   -3.308437    0.447296
     58          7           0        1.746423   -2.865097    0.430004
     59          6           0        1.543363   -1.680451    1.010136
     60          6           0        2.182224    0.256375    2.235831
     61          7           0        0.967260    0.828004    2.196822
     62          1           0       -0.905047    0.445364    1.456091
     63          6           0        0.108604    0.054817    1.535162
     64          7           0        0.310046   -1.132008    0.953395
     65          1           0        5.316658   -0.045857    2.968041
     66          6           0        4.298694   -0.184488    2.602702
     67          7           0        3.886165   -1.226703    1.923508
     68          6           0        2.545854   -0.959912    1.684506
     69          6           0        3.433588    2.033874    3.550596
     70          7           0        3.319642    0.752280    2.827731
 ---------------------------------------------------------------------

 SCF Done:  E(RwB97XD) =  -2048.74415769     A.U. after   15 cycles

 The electronic state is 1-A.
 Alpha  occ. eigenvalues --  -19.26168 -19.22519 -19.20871 -14.52653 -14.51039
 Alpha  occ. eigenvalues --  -14.49153 -14.48824 -14.48214 -14.47194 -14.47048
 Alpha  occ. eigenvalues --  -14.45438 -14.44113 -14.42414 -14.42255 -14.42216
 Alpha  occ. eigenvalues --  -14.42119 -14.41799 -14.41192 -14.40927 -14.40365
 Alpha  occ. eigenvalues --  -10.45769 -10.41495 -10.40549 -10.38487 -10.37922
 Alpha  occ. eigenvalues --  -10.37763 -10.36660 -10.35678 -10.35577 -10.35499
 Alpha  occ. eigenvalues --  -10.34529 -10.34447 -10.33982 -10.33718 -10.33353
 Alpha  occ. eigenvalues --  -10.33348 -10.32938 -10.31315 -10.31202 -10.30910
 Alpha  occ. eigenvalues --  -10.30804 -10.28864 -10.28297  -1.19710  -1.13725
 Alpha  occ. eigenvalues --   -1.13636  -1.13446  -1.11729  -1.10729  -1.09566
 Alpha  occ. eigenvalues --   -1.08842  -1.07175  -1.05209  -1.02888  -1.02715
 Alpha  occ. eigenvalues --   -1.00589  -1.00066  -0.99422  -0.98745  -0.97263
 Alpha  occ. eigenvalues --   -0.96669  -0.94805  -0.92823  -0.91204  -0.86082
 Alpha  occ. eigenvalues --   -0.84552  -0.84278  -0.84233  -0.83985  -0.82636
 Alpha  occ. eigenvalues --   -0.82541  -0.79100  -0.75279  -0.74774  -0.73918
 Alpha  occ. eigenvalues --   -0.73672  -0.73148  -0.73007  -0.71321  -0.68624
 Alpha  occ. eigenvalues --   -0.67622  -0.66819  -0.66532  -0.64995  -0.64705
 Alpha  occ. eigenvalues --   -0.63954  -0.62956  -0.62873  -0.62385  -0.61967
 Alpha  occ. eigenvalues --   -0.60372  -0.59976  -0.59744  -0.58822  -0.58683
 Alpha  occ. eigenvalues --   -0.58427  -0.57938  -0.56805  -0.56684  -0.56616
 Alpha  occ. eigenvalues --   -0.56250  -0.55486  -0.54670  -0.54442  -0.53919
 Alpha  occ. eigenvalues --   -0.53832  -0.53596  -0.53100  -0.52792  -0.52450
 Alpha  occ. eigenvalues --   -0.52143  -0.51951  -0.51248  -0.51100  -0.50444
 Alpha  occ. eigenvalues --   -0.50411  -0.49766  -0.49322  -0.49199  -0.49021
 Alpha  occ. eigenvalues --   -0.48465  -0.48228  -0.47813  -0.47795  -0.47446
 Alpha  occ. eigenvalues --   -0.47218  -0.45349  -0.45210  -0.44209  -0.42885
 Alpha  occ. eigenvalues --   -0.41458  -0.39731  -0.39175  -0.37486  -0.37454
 Alpha  occ. eigenvalues --   -0.37382  -0.36751  -0.35953  -0.35606  -0.34628
 Alpha  occ. eigenvalues --   -0.33861  -0.33794  -0.33682  -0.33033  -0.32796
 Alpha  occ. eigenvalues --   -0.32461  -0.32395  -0.32169  -0.32012  -0.31274
 Alpha  occ. eigenvalues --   -0.30570  -0.27796  -0.26043  -0.25602
 Alpha virt. eigenvalues --    0.02805   0.05530   0.07727   0.08167   0.08673
 Alpha virt. eigenvalues --    0.09253   0.09566   0.10704   0.11143   0.12298
 Alpha virt. eigenvalues --    0.12855   0.13723   0.14457   0.14624   0.16153

 Mulliken charges:
               1
     1  N   -0.310517
     2  C    0.180697
     3  C    0.034023
     4  N   -0.255349
     5  C    0.130196
     6  H    0.027053
     7  N   -0.286890
     8  C    0.129222
     9  H    0.013903
    10  N   -0.289972
    11  C    0.231995
    12  C    0.110418
    13  N   -0.041752
    14  H    0.108811
    15  H    0.089556
    16  H    0.026896
    17  H    0.035104
    18  H    0.024388
    19  N   -0.309393
    20  C    0.251060
    21  C    0.180393
    22  N   -0.123953
    23  H    0.112569
    24  H    0.118353
    25  N   -0.307705
    26  C    0.248328
    27  N   -0.136040
    28  H    0.116988
    29  C    0.171078
    30  O   -0.324499
    31  C   -0.005280
    32  N   -0.225347
    33  C    0.129761
    34  H    0.029546
    35  H    0.033142
    36  H    0.028108
    37  H    0.023683
    38  H    0.056208
    39  H    0.062333
    40  H    0.072928
    41  H    0.029651
    42  C   -0.093113
    43  O   -0.286960
    44  C    0.156747
    45  H    0.139252
    46  N   -0.125794
    47  O   -0.351938
    48  C    0.358765
    49  H    0.047865
    50  C    0.183175
    51  C    0.040597
    52  N   -0.289840
    53  H    0.030997
    54  H    0.041361
    55  H    0.019586
    56  H    0.122286
    57  H    0.116303
    58  N   -0.024548
    59  C    0.096294
    60  C    0.244093
    61  N   -0.273728
    62  H    0.036933
    63  C    0.158274
    64  N   -0.301704
    65  H    0.025967
    66  C    0.124450
    67  N   -0.261170
    68  C    0.006550
    69  C    0.180412
    70  N   -0.310805
 Sum of Mulliken charges =  -0.00000

 Dipole moment (field-independent basis, Debye):
    X=              7.0563    Y=              6.1448    Z=              2.3879  Tot=              9.6567
 Quadrupole moment (field-independent basis, Debye-Ang):
   XX=           -140.7651   YY=           -224.8880   ZZ=           -251.3416
   XY=              7.7486   XZ=             16.6015   YZ=             -1.0171

 Normal termination of Gaussian 16 at Sun Jan 21 17:09:18 2018.
