 Gaussian 16, Revision A.03,
 Gaussian 16:  EM64L-G16RevA.03 25-Dec-2016

 ---------------------------------------
 #p wb97xd/cc-pvdz sp scf=(maxcycles=20)
 ---------------------------------------

 ------------------
 Base pair stacking
 ------------------
 Symbolic Z-matrix:
 Charge =  0 Multiplicity = 1

                         Standard orientation:
 ---------------------------------------------------------------------
 Center     Atomic      Atomic             Coordinates (Angstroms)
 Number     Number       Type             X           Y           Z
 ---------------------------------------------------------------------
      1          7           0       -7.189554   -1.119708    0.110169
      2          6           0       -8.529313   -0.506821    0.196323
      3          6           0       -5.028828   -1.492993    0.281098
      4          7           0       -5.563736   -2.598319   -0.364549
      5          6           0       -6.844090   -2.329187   -0.441681
      6          1           0       -7.588995   -2.983737   -0.895139
      7          7           0       -3.524131    0.016382    1.291363
      8          6           0       -4.581674    0.803988    1.512405
      9          1           0       -4.364463    1.742236    2.021109
     10          7           0       -5.861222    0.607537    1.200881
     11          6           0       -6.018843   -0.573166    0.579954
     12          6           0       -3.715705   -1.164896    0.664498
     13          7           0       -2.661291   -1.952487    0.442950
     14          1           0       -2.756429   -2.835633   -0.017720
     15          1           0       -1.740801   -1.686749    0.729720
     16          1           0       -9.138141   -1.105034    0.717523
     17          1           0       -8.462473    0.379386    0.653821
     18          1           0       -8.898994   -0.377943   -0.723854
     19          7           0       -2.520609    2.277001   -1.597608
     20          6           0       -1.169892    2.169077   -1.369651
     21          6           0       -3.322227    3.503377   -1.412936
     22          7           0        1.840927    3.603440   -0.400454
     23          1           0        2.793736    3.319431   -0.296872
     24          1           0        1.624525    4.554868   -0.179835
     25          7           0       -0.354611    3.157288   -0.942094
     26          6           0        0.895180    2.747618   -0.816454
     27          7           0        1.316419    1.468469   -1.088215
     28          1           0        2.291743    1.244351   -0.963857
     29          6           0        0.495073    0.435620   -1.529211
     30          8           0        0.975697   -0.683710   -1.745648
     31          6           0       -0.850589    0.860540   -1.668947
     32          7           0       -1.978147    0.161034   -2.076598
     33          6           0       -2.942164    1.039410   -2.018705
     34          1           0       -3.983061    0.836683   -2.273077
     35          1           0       -4.036998    3.337356   -0.734444
     36          1           0       -2.728923    4.242314   -1.096344
     37          1           0       -3.741781    3.763347   -2.281963
     38          1           0        7.128606    0.602115    0.466181
     39          1           0        7.444883    0.784724   -1.257558
     40          1           0        6.088084    1.633596   -0.516015
     41          1           0        5.896602   -3.768463   -1.123428
     42          6           0        5.490091   -2.757557   -1.090928
     43          8           0        3.268710   -3.437663   -1.570560
     44          6           0        4.092842   -2.556873   -1.326029
     45          1           0        2.701798   -1.058878   -1.422565
     46          7           0        3.682571   -1.240514   -1.261854
     47          8           0        4.007774    0.987491   -0.966164
     48          6           0        4.463290   -0.142047   -1.002248
     49          1           0        7.345750   -1.804936   -0.649529
     50          6           0        6.277056   -1.705961   -0.835124
     51          6           0        6.672800    0.725789   -0.504903
     52          7           0        5.799339   -0.416869   -0.786221
     53          1           0        3.475515    2.584729    3.954229
     54          1           0        2.346129    3.028837    2.863663
     55          1           0        3.922751    3.005010    2.442025
     56          1           0        0.706836   -3.418780    0.584082
     57          1           0        2.331432   -3.312502    1.093513
     58          7           0        1.448398   -2.861766    0.958214
     59          6           0        1.268778   -1.575012    1.263476
     60          6           0        1.939989    0.565185    2.057671
     61          7           0        0.743214    1.144155    1.865421
     62          1           0       -1.124720    0.655792    1.177732
     63          6           0       -0.124637    0.267117    1.364875
     64          7           0        0.053339   -1.022070    1.058454
     65          1           0        5.049443    0.352631    2.916880
     66          6           0        4.035155    0.162946    2.564485
     67          7           0        3.605641   -0.991287    2.116222
     68          6           0        2.278586   -0.750098    1.791428
     69          6           0        3.216932    2.554308    2.988719
     70          7           0        3.079689    1.149731    2.557064
 ---------------------------------------------------------------------

 SCF Done:  E(RwB97XD) =  -2048.74859827     A.U. after   15 cycles

 The electronic state is 1-A.
 Alpha  occ. eigenvalues --  -19.26058 -19.22228 -19.20759 -14.52540 -14.51094
 Alpha  occ. eigenvalues --  -14.49453 -14.48716 -14.47947 -14.47092 -14.46983
 Alpha  occ. eigenvalues --  -14.45887 -14.44103 -14.42541 -14.42475 -14.42390
 Alpha  occ. eigenvalues --  -14.42158 -14.42128 -14.41570 -14.40825 -14.40754
 Alpha  occ. eigenvalues --  -10.45636 -10.41390 -10.40289 -10.38384 -10.38001
 Alpha  occ. eigenvalues --  -10.37792 -10.36692 -10.35976 -10.35679 -10.35580
 Alpha  occ. eigenvalues --  -10.34771 -10.34421 -10.34074 -10.34057 -10.33717
 Alpha  occ. eigenvalues --  -10.33273 -10.33064 -10.31517 -10.31081 -10.31008
 Alpha  occ. eigenvalues --  -10.30663 -10.29245 -10.28214  -1.19580  -1.13759
 Alpha  occ. eigenvalues --   -1.13338  -1.13228  -1.12053  -1.10629  -1.09443
 Alpha  occ. eigenvalues --   -1.08756  -1.07330  -1.05596  -1.02891  -1.02605
 Alpha  occ. eigenvalues --   -1.00979  -1.00035  -0.99498  -0.98624  -0.97587
 Alpha  occ. eigenvalues --   -0.96561  -0.94960  -0.93213  -0.91086  -0.86180
 Alpha  occ. eigenvalues --   -0.84671  -0.84577  -0.84147  -0.83910  -0.82933
 Alpha  occ. eigenvalues --   -0.82432  -0.78952  -0.75392  -0.74682  -0.73841
 Alpha  occ. eigenvalues --   -0.73501  -0.73467  -0.73099  -0.71688  -0.68760
 Alpha  occ. eigenvalues --   -0.67544  -0.66882  -0.66652  -0.65079  -0.64557
 Alpha  occ. eigenvalues --   -0.63837  -0.63302  -0.62789  -0.62550  -0.61916
 Alpha  occ. eigenvalues --   -0.60705  -0.59874  -0.59600  -0.58958  -0.58748
 Alpha  occ. eigenvalues --   -0.58499  -0.58045  -0.57030  -0.56981  -0.56596
 Alpha  occ. eigenvalues --   -0.56131  -0.55845  -0.54515  -0.54494  -0.53995
 Alpha  occ. eigenvalues --   -0.53720  -0.53553  -0.52996  -0.52721  -0.52538
 Alpha  occ. eigenvalues --   -0.52241  -0.52045  -0.51419  -0.51348  -0.50753
 Alpha  occ. eigenvalues --   -0.50243  -0.49624  -0.49578  -0.48956  -0.48703
 Alpha  occ. eigenvalues --   -0.48465  -0.48331  -0.47807  -0.47651  -0.47554
 Alpha  occ. eigenvalues --   -0.47415  -0.45673  -0.45096  -0.44107  -0.43032
 Alpha  occ. eigenvalues --   -0.41819  -0.39620  -0.39227  -0.37812  -0.37397
 Alpha  occ. eigenvalues --   -0.37331  -0.36539  -0.35979  -0.35545  -0.34697
 Alpha  occ. eigenvalues --   -0.34180  -0.34129  -0.33402  -0.32910  -0.32884
 Alpha  occ. eigenvalues --   -0.32535  -0.32188  -0.32062  -0.31941  -0.31611
 Alpha  occ. eigenvalues --   -0.30922  -0.28160  -0.26369  -0.25553
 Alpha virt. eigenvalues --    0.03072   0.05424   0.07334   0.08345   0.08582
 Alpha virt. eigenvalues --    0.09220   0.09645   0.10281   0.11001   0.12175
 Alpha virt. eigenvalues --    0.12700   0.13450   0.14484   0.14592   0.15849

 Mulliken charges:
               1
     1  N   -0.310646
     2  C    0.180692
     3  C    0.031772
     4  N   -0.256633
     5  C    0.132367
     6  H    0.028491
     7  N   -0.283997
     8  C    0.126174
     9  H    0.015625
    10  N   -0.288922
    11  C    0.234467
    12  C    0.107478
    13  N   -0.042180
    14  H    0.107808
    15  H    0.089281
    16  H    0.027347
    17  H    0.035582
    18  H    0.025714
    19  N   -0.305742
    20  C    0.241642
    21  C    0.180509
    22  N   -0.121374
    23  H    0.112525
    24  H    0.117830
    25  N   -0.301042
    26  C    0.239974
    27  N   -0.126171
    28  H    0.118680
    29  C    0.155255
    30  O   -0.323036
    31  C   -0.002974
    32  N   -0.224139
    33  C    0.129921
    34  H    0.029695
    35  H    0.032439
    36  H    0.027513
    37  H    0.023440
    38  H    0.056434
    39  H    0.062672
    40  H    0.071654
    41  H    0.030639
    42  C   -0.102108
    43  O   -0.277789
    44  C    0.174123
    45  H    0.136006
    46  N   -0.131264
    47  O   -0.353981
    48  C    0.361350
    49  H    0.047363
    50  C    0.177543
    51  C    0.039790
    52  N   -0.293493
    53  H    0.031599
    54  H    0.039419
    55  H    0.017758
    56  H    0.119578
    57  H    0.118914
    58  N   -0.043491
    59  C    0.115390
    60  C    0.237239
    61  N   -0.263788
    62  H    0.043493
    63  C    0.149715
    64  N   -0.300860
    65  H    0.025023
    66  C    0.124646
    67  N   -0.260321
    68  C    0.011958
    69  C    0.177210
    70  N   -0.307786
 Sum of Mulliken charges =  -0.00000

 Dipole moment (field-independent basis, Debye):
    X=              6.5613    Y=              6.0509    Z=              2.6371  Tot=              9.3069
 Quadrupole moment (field-independent basis, Debye-Ang):
   XX=           -138.8405   YY=           -225.6171   ZZ=           -252.1364
   XY=             11.8523   XZ=             18.3327   YZ=             -4.7011

 Normal termination of Gaussian 16 at Sun Jan 21 09:12:52 2018.
