 Gaussian 16, Revision A.03,
 Gaussian 16:  EM64L-G16RevA.03 25-Dec-2016

 ---------------------------------------
 #p wb97xd/cc-pvdz sp scf=(maxcycles=20)
 ---------------------------------------

 ------------------
 Base pair stacking
 ------------------
 Symbolic Z-matrix:
 Charge =  0 Multiplicity = 1

                         Standard orientation:
 ---------------------------------------------------------------------
 Center     Atomic      Atomic             Coordinates (Angstroms)
 Number     Number       Type             X           Y           Z
 ---------------------------------------------------------------------
      1          7           0        4.304561   -1.251655   -1.883016
      2          6           0        5.661852   -0.686957   -2.012920
      3          6           0        2.124799   -1.473853   -1.691714
      4          7           0        2.646381   -2.759368   -1.703617
      5          6           0        3.938731   -2.574041   -1.818393
      6          1           0        4.678398   -3.374051   -1.861163
      7          7           0        0.633492    0.351641   -1.610864
      8          6           0        1.709453    1.137417   -1.722395
      9          1           0        1.505041    2.207169   -1.732050
     10          7           0        2.993992    0.801725   -1.823329
     11          6           0        3.134808   -0.533986   -1.801528
     12          6           0        0.808470   -0.987804   -1.591877
     13          7           0       -0.264350   -1.773832   -1.480603
     14          1           0       -0.181911   -2.770873   -1.462399
     15          1           0       -1.186542   -1.393107   -1.411676
     16          1           0        6.081176   -1.014923   -2.859557
     17          1           0        5.607944    0.310932   -2.033573
     18          1           0        6.220035   -0.972871   -1.234018
     19          7           0        5.596883    1.478384    0.739120
     20          6           0        4.226222    1.500979    0.833177
     21          6           0        6.447036    2.631165    0.379889
     22          7           0        1.223853    3.231797    0.605612
     23          1           0        0.250416    3.039163    0.726224
     24          1           0        1.472945    4.165406    0.346700
     25          7           0        3.432172    2.571456    0.614983
     26          6           0        2.154144    2.281517    0.782884
     27          7           0        1.687378    1.038936    1.137338
     28          1           0        0.693030    0.908570    1.243418
     29          6           0        2.486155   -0.076912    1.366888
     30          8           0        1.964306   -1.153383    1.682521
     31          6           0        3.861697    0.219047    1.190322
     32          7           0        4.980975   -0.592030    1.317924
     33          6           0        5.984517    0.195855    1.041613
     34          1           0        7.031750   -0.108396    1.043764
     35          1           0        6.965182    2.420083   -0.448227
     36          1           0        5.869802    3.430031    0.215936
     37          1           0        7.080056    2.826612    1.128147
     38          1           0       -4.382396    0.752501    0.981908
     39          1           0       -4.270197    0.913615    2.732943
     40          1           0       -3.048287    1.655892    1.699823
     41          1           0       -3.238091   -3.756274    2.209968
     42          6           0       -2.755561   -2.786250    2.089799
     43          8           0       -0.559021   -3.680046    2.031292
     44          6           0       -1.329352   -2.720950    1.992405
     45          1           0        0.182656   -1.359767    1.770274
     46          7           0       -0.821345   -1.446304    1.842564
     47          8           0       -0.991888    0.809675    1.645922
     48          6           0       -1.532360   -0.274074    1.780266
     49          1           0       -4.563195   -1.655700    2.101601
     50          6           0       -3.476212   -1.660202    2.032361
     51          6           0       -3.703585    0.806027    1.820011
     52          7           0       -2.901984   -0.419304    1.881393
     53          1           0       -6.412052    3.948319   -1.284660
     54          1           0       -5.044210    3.859294   -0.399697
     55          1           0       -6.496993    3.686936    0.324026
     56          1           0       -3.739338   -2.972554   -1.438246
     57          1           0       -5.409509   -2.626680   -1.469688
     58          7           0       -4.471184   -2.294744   -1.366759
     59          6           0       -4.208626   -1.005307   -1.144097
     60          6           0       -4.772889    1.280989   -0.803225
     61          7           0       -3.503100    1.698228   -0.669107
     62          1           0       -1.604720    0.926148   -0.694765
     63          6           0       -2.660110    0.674765   -0.790781
     64          7           0       -2.921128   -0.617402   -1.013804
     65          1           0       -7.994549    1.517673   -0.933623
     66          6           0       -6.959206    1.175633   -0.934809
     67          7           0       -6.585206   -0.067252   -1.116591
     68          6           0       -5.201240   -0.014415   -1.035545
     69          6           0       -5.971337    3.501262   -0.506272
     70          7           0       -5.913969    2.045075   -0.739191
 ---------------------------------------------------------------------

 SCF Done:  E(RwB97XD) =  -2048.71952013     A.U. after   15 cycles

 The electronic state is 1-A.
 Alpha  occ. eigenvalues --  -19.24944 -19.21086 -19.20549 -14.53047 -14.51226
 Alpha  occ. eigenvalues --  -14.49277 -14.48977 -14.48553 -14.46964 -14.46620
 Alpha  occ. eigenvalues --  -14.46603 -14.45873 -14.45161 -14.44809 -14.43275
 Alpha  occ. eigenvalues --  -14.41850 -14.41558 -14.41281 -14.41196 -14.40885
 Alpha  occ. eigenvalues --  -10.44478 -10.41069 -10.40822 -10.39208 -10.38425
 Alpha  occ. eigenvalues --  -10.38226 -10.37736 -10.36857 -10.36363 -10.36079
 Alpha  occ. eigenvalues --  -10.34548 -10.34277 -10.33949 -10.33939 -10.33493
 Alpha  occ. eigenvalues --  -10.33436 -10.33395 -10.32829 -10.31416 -10.30548
 Alpha  occ. eigenvalues --  -10.30231 -10.28763 -10.28360  -1.18544  -1.15863
 Alpha  occ. eigenvalues --   -1.13267  -1.12119  -1.11234  -1.10928  -1.10208
 Alpha  occ. eigenvalues --   -1.08582  -1.08204  -1.05719  -1.05595  -1.01544
 Alpha  occ. eigenvalues --   -1.01479  -1.01078  -0.99697  -0.98627  -0.97790
 Alpha  occ. eigenvalues --   -0.96977  -0.96864  -0.93306  -0.90057  -0.88381
 Alpha  occ. eigenvalues --   -0.86410  -0.84513  -0.83973  -0.82902  -0.82345
 Alpha  occ. eigenvalues --   -0.82293  -0.77977  -0.77654  -0.75599  -0.74834
 Alpha  occ. eigenvalues --   -0.73663  -0.73224  -0.72435  -0.71462  -0.71144
 Alpha  occ. eigenvalues --   -0.67488  -0.67449  -0.66646  -0.65675  -0.64892
 Alpha  occ. eigenvalues --   -0.64444  -0.63341  -0.63127  -0.62598  -0.61887
 Alpha  occ. eigenvalues --   -0.61377  -0.61068  -0.60866  -0.60101  -0.58920
 Alpha  occ. eigenvalues --   -0.58706  -0.58334  -0.57756  -0.56945  -0.56171
 Alpha  occ. eigenvalues --   -0.55857  -0.55774  -0.55545  -0.55054  -0.54250
 Alpha  occ. eigenvalues --   -0.54209  -0.54056  -0.53452  -0.53072  -0.52850
 Alpha  occ. eigenvalues --   -0.51831  -0.51737  -0.51096  -0.50720  -0.50643
 Alpha  occ. eigenvalues --   -0.50254  -0.50130  -0.49769  -0.49250  -0.49080
 Alpha  occ. eigenvalues --   -0.48583  -0.48163  -0.47914  -0.47238  -0.47045
 Alpha  occ. eigenvalues --   -0.46928  -0.45543  -0.45227  -0.45149  -0.42299
 Alpha  occ. eigenvalues --   -0.41533  -0.41198  -0.38804  -0.38375  -0.38361
 Alpha  occ. eigenvalues --   -0.38201  -0.37223  -0.36565  -0.35392  -0.35184
 Alpha  occ. eigenvalues --   -0.34922  -0.34268  -0.33843  -0.33654  -0.33026
 Alpha  occ. eigenvalues --   -0.32530  -0.32294  -0.31874  -0.30954  -0.30831
 Alpha  occ. eigenvalues --   -0.30625  -0.30589  -0.26283  -0.25609
 Alpha virt. eigenvalues --    0.02818   0.04516   0.05873   0.07268   0.08689
 Alpha virt. eigenvalues --    0.09057   0.09608   0.09888   0.10959   0.12261
 Alpha virt. eigenvalues --    0.13306   0.13819   0.14311   0.14455   0.14645

 Mulliken charges:
               1
     1  N   -0.303232
     2  C    0.191680
     3  C    0.068951
     4  N   -0.259356
     5  C    0.151042
     6  H    0.029460
     7  N   -0.283069
     8  C    0.131038
     9  H    0.003618
    10  N   -0.270168
    11  C    0.230177
    12  C    0.074985
    13  N   -0.064040
    14  H    0.113048
    15  H    0.082476
    16  H    0.022869
    17  H    0.022876
    18  H    0.026182
    19  N   -0.301218
    20  C    0.265109
    21  C    0.184094
    22  N   -0.096793
    23  H    0.123135
    24  H    0.118432
    25  N   -0.280393
    26  C    0.162764
    27  N   -0.107145
    28  H    0.119940
    29  C    0.171727
    30  O   -0.318513
    31  C   -0.013346
    32  N   -0.220569
    33  C    0.090344
    34  H    0.025157
    35  H    0.019931
    36  H    0.032791
    37  H    0.025998
    38  H    0.049691
    39  H    0.043014
    40  H    0.078225
    41  H    0.022909
    42  C   -0.111748
    43  O   -0.267407
    44  C    0.174336
    45  H    0.133497
    46  N   -0.125418
    47  O   -0.345786
    48  C    0.334706
    49  H    0.044562
    50  C    0.167402
    51  C    0.066151
    52  N   -0.276636
    53  H    0.035642
    54  H    0.041105
    55  H    0.031663
    56  H    0.120790
    57  H    0.121012
    58  N   -0.060571
    59  C    0.092621
    60  C    0.202408
    61  N   -0.258256
    62  H    0.033506
    63  C    0.147968
    64  N   -0.299193
    65  H    0.041319
    66  C    0.139146
    67  N   -0.253483
    68  C    0.030449
    69  C    0.179994
    70  N   -0.303598
 Sum of Mulliken charges =  -0.00000

 Dipole moment (field-independent basis, Debye):
    X=             -6.9512    Y=              7.4884    Z=             -2.1045  Tot=             10.4319
 Quadrupole moment (field-independent basis, Debye-Ang):
   XX=           -154.2336   YY=           -229.5192   ZZ=           -253.4272
   XY=              3.5878   XZ=            -16.0110   YZ=             15.8129

 Normal termination of Gaussian 16 at Sun Jan 21 13:22:42 2018.
