 Gaussian 16, Revision A.03,
 Gaussian 16:  EM64L-G16RevA.03 25-Dec-2016

 ---------------------------------------
 #p wb97xd/cc-pvdz sp scf=(maxcycles=20)
 ---------------------------------------

 ------------------
 Base pair stacking
 ------------------
 Symbolic Z-matrix:
 Charge =  0 Multiplicity = 1

                         Standard orientation:
 ---------------------------------------------------------------------
 Center     Atomic      Atomic             Coordinates (Angstroms)
 Number     Number       Type             X           Y           Z
 ---------------------------------------------------------------------
      1          7           0        5.190194   -1.701008   -1.349767
      2          6           0        6.543257   -1.206428   -1.670108
      3          6           0        3.008410   -1.881185   -1.138393
      4          7           0        3.547740   -3.038787   -0.596354
      5          6           0        4.840594   -2.883906   -0.745387
      6          1           0        5.592243   -3.607953   -0.429588
      7          7           0        1.490220   -0.230740   -1.869208
      8          6           0        2.558463    0.464616   -2.272832
      9          1           0        2.339784    1.425915   -2.735811
     10          7           0        3.850207    0.152240   -2.190819
     11          6           0        4.008567   -1.047044   -1.606825
     12          6           0        1.682862   -1.433678   -1.285319
     13          7           0        0.617772   -2.129286   -0.881733
     14          1           0        0.713249   -3.024293   -0.444633
     15          1           0       -0.311394   -1.779702   -1.002476
     16          1           0        6.995918   -1.847592   -2.289937
     17          1           0        6.476351   -0.310900   -2.109070
     18          1           0        7.078197   -1.124435   -0.829217
     19          7           0        4.739833    1.936388    0.974527
     20          6           0        3.366003    1.953776    0.992505
     21          6           0        5.602319    3.057878    0.551353
     22          7           0        0.371594    3.623488    0.438157
     23          1           0       -0.605964    3.433342    0.524609
     24          1           0        0.629576    4.530318    0.103757
     25          7           0        2.579497    2.989975    0.629524
     26          6           0        1.295737    2.704386    0.756114
     27          7           0        0.816781    1.497021    1.203744
     28          1           0       -0.181174    1.367223    1.268612
     29          6           0        1.607626    0.416805    1.582658
     30          8           0        1.074933   -0.629550    1.972672
     31          6           0        2.989188    0.708550    1.452102
     32          7           0        4.104029   -0.074833    1.717322
     33          6           0        5.117044    0.693065    1.420095
     34          1           0        6.164160    0.401278    1.507694
     35          1           0        6.165687    2.773306   -0.223529
     36          1           0        5.030756    3.831212    0.280178
     37          1           0        6.192819    3.331078    1.309961
     38          1           0       -5.234080    1.134246    0.752343
     39          1           0       -5.217842    1.464584    2.483035
     40          1           0       -3.945515    2.116383    1.449740
     41          1           0       -4.135048   -3.223059    2.470658
     42          6           0       -3.651666   -2.264202    2.283104
     43          8           0       -1.450653   -3.136751    2.428986
     44          6           0       -2.222626   -2.193879    2.256269
     45          1           0       -0.707777   -0.844901    1.984571
     46          7           0       -1.713763   -0.934431    2.011101
     47          8           0       -1.884917    1.290196    1.588094
     48          6           0       -2.426324    0.218927    1.797653
     49          1           0       -5.463040   -1.156525    2.088676
     50          6           0       -4.373892   -1.156454    2.078441
     51          6           0       -4.602001    1.275337    1.616428
     52          7           0       -3.798670    0.069981    1.838955
     53          1           0       -5.611224    2.980403   -3.262159
     54          1           0       -4.273531    3.307327   -2.387070
     55          1           0       -5.747837    3.415082   -1.695057
     56          1           0       -2.839782   -3.292992   -0.428584
     57          1           0       -4.512490   -3.037245   -0.644787
     58          7           0       -3.582924   -2.667599   -0.666844
     59          6           0       -3.345948   -1.396983   -0.999356
     60          6           0       -3.953015    0.805589   -1.664085
     61          7           0       -2.694468    1.274645   -1.685217
     62          1           0       -0.785883    0.614312   -1.336127
     63          6           0       -1.833783    0.317521   -1.344583
     64          7           0       -2.069160   -0.955680   -1.011210
     65          1           0       -7.171245    0.878994   -1.963705
     66          6           0       -6.131861    0.595953   -1.794877
     67          7           0       -5.734757   -0.598132   -1.428610
     68          6           0       -4.355253   -0.478945   -1.342039
     69          6           0       -5.191431    2.912760   -2.357072
     70          7           0       -5.106044    1.495139   -1.955735
 ---------------------------------------------------------------------

 SCF Done:  E(RwB97XD) =  -2048.75069285     A.U. after   15 cycles

 The electronic state is 1-A.
 Alpha  occ. eigenvalues --  -19.25563 -19.21997 -19.20619 -14.52535 -14.52137
 Alpha  occ. eigenvalues --  -14.48895 -14.48454 -14.48055 -14.47554 -14.46862
 Alpha  occ. eigenvalues --  -14.46669 -14.45550 -14.44368 -14.44319 -14.42283
 Alpha  occ. eigenvalues --  -14.42036 -14.41121 -14.40962 -14.40931 -14.40341
 Alpha  occ. eigenvalues --  -10.45154 -10.41260 -10.40008 -10.39949 -10.38257
 Alpha  occ. eigenvalues --  -10.38041 -10.37327 -10.37238 -10.35860 -10.35400
 Alpha  occ. eigenvalues --  -10.34882 -10.34448 -10.33961 -10.33732 -10.33571
 Alpha  occ. eigenvalues --  -10.33172 -10.33067 -10.32719 -10.30987 -10.30974
 Alpha  occ. eigenvalues --  -10.30862 -10.28319 -10.28212  -1.19158  -1.15289
 Alpha  occ. eigenvalues --   -1.13216  -1.12957  -1.11027  -1.10673  -1.09374
 Alpha  occ. eigenvalues --   -1.09005  -1.08575  -1.05009  -1.04815  -1.02245
 Alpha  occ. eigenvalues --   -1.01033  -1.00385  -0.99745  -0.98582  -0.96946
 Alpha  occ. eigenvalues --   -0.96698  -0.96637  -0.92693  -0.90770  -0.87681
 Alpha  occ. eigenvalues --   -0.85956  -0.84211  -0.83761  -0.83369  -0.82584
 Alpha  occ. eigenvalues --   -0.82193  -0.78598  -0.77077  -0.74869  -0.74699
 Alpha  occ. eigenvalues --   -0.73655  -0.73113  -0.72777  -0.70947  -0.70424
 Alpha  occ. eigenvalues --   -0.67431  -0.66841  -0.66274  -0.66175  -0.64418
 Alpha  occ. eigenvalues --   -0.64254  -0.63709  -0.62654  -0.62621  -0.61828
 Alpha  occ. eigenvalues --   -0.60866  -0.60522  -0.60351  -0.59468  -0.59207
 Alpha  occ. eigenvalues --   -0.58900  -0.58387  -0.56897  -0.56488  -0.56083
 Alpha  occ. eigenvalues --   -0.55826  -0.55505  -0.55240  -0.54249  -0.53914
 Alpha  occ. eigenvalues --   -0.53765  -0.53626  -0.53596  -0.53414  -0.53003
 Alpha  occ. eigenvalues --   -0.52834  -0.52203  -0.51679  -0.50604  -0.50236
 Alpha  occ. eigenvalues --   -0.50206  -0.49900  -0.49338  -0.48944  -0.48816
 Alpha  occ. eigenvalues --   -0.48783  -0.48540  -0.48420  -0.47734  -0.47307
 Alpha  occ. eigenvalues --   -0.46834  -0.45933  -0.45268  -0.44644  -0.43015
 Alpha  occ. eigenvalues --   -0.40974  -0.40763  -0.39204  -0.37960  -0.37634
 Alpha  occ. eigenvalues --   -0.37351  -0.37297  -0.36988  -0.36029  -0.34694
 Alpha  occ. eigenvalues --   -0.34338  -0.34042  -0.33359  -0.33209  -0.33143
 Alpha  occ. eigenvalues --   -0.32742  -0.32535  -0.32183  -0.31919  -0.30761
 Alpha  occ. eigenvalues --   -0.30406  -0.29419  -0.25792  -0.25427
 Alpha virt. eigenvalues --    0.03173   0.03969   0.06963   0.07991   0.08819
 Alpha virt. eigenvalues --    0.09122   0.09671   0.10405   0.11073   0.12318
 Alpha virt. eigenvalues --    0.12827   0.13782   0.14438   0.14530   0.14797

 Mulliken charges:
               1
     1  N   -0.308106
     2  C    0.179028
     3  C    0.062499
     4  N   -0.255147
     5  C    0.141911
     6  H    0.025898
     7  N   -0.293690
     8  C    0.133463
     9  H    0.010856
    10  N   -0.286803
    11  C    0.240609
    12  C    0.087793
    13  N   -0.049507
    14  H    0.114082
    15  H    0.083535
    16  H    0.026234
    17  H    0.030972
    18  H    0.020688
    19  N   -0.305079
    20  C    0.261226
    21  C    0.182935
    22  N   -0.123005
    23  H    0.118691
    24  H    0.117933
    25  N   -0.310495
    26  C    0.246814
    27  N   -0.142766
    28  H    0.116954
    29  C    0.187209
    30  O   -0.322011
    31  C   -0.017018
    32  N   -0.221031
    33  C    0.116090
    34  H    0.020057
    35  H    0.026600
    36  H    0.030171
    37  H    0.023300
    38  H    0.057276
    39  H    0.059943
    40  H    0.074744
    41  H    0.021934
    42  C   -0.101692
    43  O   -0.270341
    44  C    0.162012
    45  H    0.129930
    46  N   -0.112086
    47  O   -0.344745
    48  C    0.337263
    49  H    0.045318
    50  C    0.164655
    51  C    0.043929
    52  N   -0.276582
    53  H    0.034758
    54  H    0.040808
    55  H    0.026066
    56  H    0.125989
    57  H    0.115238
    58  N   -0.050448
    59  C    0.082841
    60  C    0.223143
    61  N   -0.266397
    62  H    0.029898
    63  C    0.165693
    64  N   -0.305637
    65  H    0.036142
    66  C    0.121499
    67  N   -0.254591
    68  C    0.030439
    69  C    0.182288
    70  N   -0.300178
 Sum of Mulliken charges =  -0.00000

 Dipole moment (field-independent basis, Debye):
    X=             -6.7659    Y=              6.9960    Z=             -2.4443  Tot=             10.0347
 Quadrupole moment (field-independent basis, Debye-Ang):
   XX=           -150.8056   YY=           -223.4420   ZZ=           -256.7047
   XY=             -4.7937   XZ=             -5.3279   YZ=              6.1447

 Normal termination of Gaussian 16 at Sun Jan 21 20:06:49 2018.
