 Gaussian 16, Revision A.03,
 Gaussian 16:  EM64L-G16RevA.03 25-Dec-2016

 ---------------------------------------
 #p wb97xd/cc-pvdz sp scf=(maxcycles=20)
 ---------------------------------------

 ------------------
 Base pair stacking
 ------------------
 Symbolic Z-matrix:
 Charge =  0 Multiplicity = 1

                         Standard orientation:
 ---------------------------------------------------------------------
 Center     Atomic      Atomic             Coordinates (Angstroms)
 Number     Number       Type             X           Y           Z
 ---------------------------------------------------------------------
      1          7           0       -5.831326   -1.822149    0.638086
      2          6           0       -7.185443   -1.441494    1.084714
      3          6           0       -3.647120   -1.980375    0.434303
      4          7           0       -4.188453   -2.828413   -0.520946
      5          6           0       -5.482694   -2.699149   -0.359940
      6          1           0       -6.236091   -3.224776   -0.947348
      7          7           0       -2.125160   -0.779954    1.778029
      8          6           0       -3.193887   -0.254438    2.385694
      9          1           0       -2.973816    0.452448    3.184530
     10          7           0       -4.487558   -0.470002    2.155797
     11          6           0       -4.647508   -1.353215    1.156415
     12          6           0       -2.319451   -1.665465    0.776426
     13          7           0       -1.253888   -2.191140    0.168637
     14          1           0       -1.350528   -2.850525   -0.577742
     15          1           0       -0.323182   -1.943908    0.438470
     16          1           0       -7.673951   -2.254318    1.402299
     17          1           0       -7.117410   -0.781392    1.832220
     18          1           0       -7.686397   -1.029901    0.323381
     19          7           0       -4.061149    2.476710   -0.811433
     20          6           0       -2.688155    2.437201   -0.774273
     21          6           0       -4.898715    3.566973   -0.272449
     22          7           0        0.339567    3.886442    0.116990
     23          1           0        1.312150    3.667774    0.042871
     24          1           0        0.101337    4.750147    0.561934
     25          7           0       -1.880028    3.380161   -0.243410
     26          6           0       -0.603560    3.059253   -0.358582
     27          7           0       -0.151035    1.903781   -0.948167
     28          1           0        0.843243    1.741067   -0.991907
     29          6           0       -0.964440    0.919585   -1.500975
     30          8           0       -0.454759   -0.086574   -2.009498
     31          6           0       -2.338502    1.250266   -1.384782
     32          7           0       -3.469222    0.558526   -1.796921
     33          6           0       -4.464801    1.322226   -1.436642
     34          1           0       -5.517273    1.090260   -1.603271
     35          1           0       -5.505718    3.205038    0.434201
     36          1           0       -4.310998    4.271354    0.123429
     37          1           0       -5.444808    3.965142   -1.008698
     38          1           0        5.856440    1.223294   -0.319280
     39          1           0        5.928340    1.784374   -1.988012
     40          1           0        4.637314    2.345051   -0.924884
     41          1           0        4.671220   -2.811113   -2.657092
     42          6           0        4.216356   -1.866398   -2.359043
     43          8           0        1.992688   -2.615728   -2.706790
     44          6           0        2.791148   -1.738877   -2.377567
     45          1           0        1.317445   -0.374904   -1.982449
     46          7           0        2.319565   -0.503269   -1.982431
     47          8           0        2.555252    1.634551   -1.253472
     48          6           0        3.064811    0.579014   -1.586431
     49          1           0        6.057699   -0.874065   -1.946052
     50          6           0        4.969911   -0.828484   -1.977596
     51          6           0        5.268516    1.506695   -1.179570
     52          7           0        4.431099    0.378069   -1.595130
     53          1           0        4.980902    1.430565    4.479831
     54          1           0        3.684108    2.107997    3.757683
     55          1           0        5.185442    2.421211    3.199128
     56          1           0        2.194509   -3.209511   -0.596711
     57          1           0        3.862584   -3.109587   -0.253708
     58          7           0        2.940386   -2.745510   -0.118675
     59          6           0        2.716323   -1.688190    0.664294
     60          6           0        3.341493    0.077859    2.131252
     61          7           0        2.092629    0.545022    2.294082
     62          1           0        0.185872    0.128859    1.668206
     63          6           0        1.226591   -0.183244    1.592291
     64          7           0        1.449041   -1.242580    0.807500
     65          1           0        6.546875   -0.073143    2.524785
     66          6           0        5.509204   -0.237003    2.232669
     67          7           0        5.102568   -1.189967    1.430061
     68          6           0        3.729990   -1.001726    1.357231
     69          6           0        4.594450    1.724255    3.605533
     70          7           0        4.496129    0.567553    2.694283
 ---------------------------------------------------------------------

 SCF Done:  E(RwB97XD) =  -2048.73771136     A.U. after   15 cycles

 The electronic state is 1-A.
 Alpha  occ. eigenvalues --  -19.26034 -19.22277 -19.20835 -14.52407 -14.52051
 Alpha  occ. eigenvalues --  -14.48920 -14.48501 -14.47968 -14.47154 -14.46897
 Alpha  occ. eigenvalues --  -14.46863 -14.45159 -14.43733 -14.43683 -14.42207
 Alpha  occ. eigenvalues --  -14.41828 -14.41041 -14.40975 -14.40696 -14.39992
 Alpha  occ. eigenvalues --  -10.45603 -10.41449 -10.40701 -10.39201 -10.38443
 Alpha  occ. eigenvalues --  -10.37673 -10.37652 -10.36715 -10.35252 -10.35232
 Alpha  occ. eigenvalues --  -10.35087 -10.34515 -10.33711 -10.33597 -10.33495
 Alpha  occ. eigenvalues --  -10.33037 -10.32862 -10.32199 -10.31158 -10.30977
 Alpha  occ. eigenvalues --  -10.30964 -10.28280 -10.28153  -1.19581  -1.14789
 Alpha  occ. eigenvalues --   -1.13684  -1.13403  -1.11023  -1.10755  -1.09387
 Alpha  occ. eigenvalues --   -1.08776  -1.08651  -1.04738  -1.04202  -1.02743
 Alpha  occ. eigenvalues --   -1.00558  -1.00106  -0.99963  -0.98736  -0.96746
 Alpha  occ. eigenvalues --   -0.96660  -0.96226  -0.92391  -0.91148  -0.87181
 Alpha  occ. eigenvalues --   -0.85515  -0.84270  -0.83717  -0.83694  -0.82631
 Alpha  occ. eigenvalues --   -0.82097  -0.78987  -0.76518  -0.74808  -0.74296
 Alpha  occ. eigenvalues --   -0.73854  -0.73577  -0.72606  -0.70771  -0.69890
 Alpha  occ. eigenvalues --   -0.67588  -0.66671  -0.66272  -0.65997  -0.64663
 Alpha  occ. eigenvalues --   -0.63992  -0.63652  -0.62839  -0.62413  -0.61955
 Alpha  occ. eigenvalues --   -0.60545  -0.60104  -0.59940  -0.59481  -0.58984
 Alpha  occ. eigenvalues --   -0.58918  -0.58583  -0.56768  -0.56309  -0.56242
 Alpha  occ. eigenvalues --   -0.56157  -0.55161  -0.54946  -0.54699  -0.54498
 Alpha  occ. eigenvalues --   -0.53859  -0.53658  -0.53197  -0.53135  -0.53065
 Alpha  occ. eigenvalues --   -0.52593  -0.52334  -0.51589  -0.50582  -0.50388
 Alpha  occ. eigenvalues --   -0.50017  -0.49709  -0.49675  -0.49463  -0.49118
 Alpha  occ. eigenvalues --   -0.48603  -0.48550  -0.47832  -0.47656  -0.47594
 Alpha  occ. eigenvalues --   -0.46706  -0.45891  -0.44693  -0.44103  -0.43597
 Alpha  occ. eigenvalues --   -0.40826  -0.40249  -0.39594  -0.37474  -0.37440
 Alpha  occ. eigenvalues --   -0.37374  -0.36958  -0.36848  -0.36275  -0.34453
 Alpha  occ. eigenvalues --   -0.34164  -0.33819  -0.33682  -0.33269  -0.33135
 Alpha  occ. eigenvalues --   -0.32713  -0.32514  -0.32304  -0.32060  -0.30638
 Alpha  occ. eigenvalues --   -0.30178  -0.29013  -0.25697  -0.25285
 Alpha virt. eigenvalues --    0.02765   0.04702   0.07396   0.08145   0.08246
 Alpha virt. eigenvalues --    0.09068   0.09593   0.10725   0.11328   0.12181
 Alpha virt. eigenvalues --    0.13238   0.14074   0.14404   0.14611   0.15245

 Mulliken charges:
               1
     1  N   -0.311646
     2  C    0.180376
     3  C    0.061071
     4  N   -0.252075
     5  C    0.131419
     6  H    0.024645
     7  N   -0.295865
     8  C    0.134053
     9  H    0.010654
    10  N   -0.292015
    11  C    0.234938
    12  C    0.099272
    13  N   -0.045248
    14  H    0.114206
    15  H    0.088355
    16  H    0.025953
    17  H    0.032595
    18  H    0.020983
    19  N   -0.309896
    20  C    0.256955
    21  C    0.180783
    22  N   -0.122759
    23  H    0.115826
    24  H    0.118584
    25  N   -0.310901
    26  C    0.246964
    27  N   -0.150388
    28  H    0.121230
    29  C    0.194302
    30  O   -0.325315
    31  C   -0.017362
    32  N   -0.221335
    33  C    0.131057
    34  H    0.020905
    35  H    0.030372
    36  H    0.029285
    37  H    0.023673
    38  H    0.057599
    39  H    0.060213
    40  H    0.072845
    41  H    0.025742
    42  C   -0.118680
    43  O   -0.284917
    44  C    0.142702
    45  H    0.133372
    46  N   -0.103855
    47  O   -0.344404
    48  C    0.337676
    49  H    0.047044
    50  C    0.188992
    51  C    0.041182
    52  N   -0.280211
    53  H    0.033408
    54  H    0.042043
    55  H    0.024677
    56  H    0.127816
    57  H    0.115747
    58  N   -0.043211
    59  C    0.085312
    60  C    0.248243
    61  N   -0.273582
    62  H    0.035430
    63  C    0.164625
    64  N   -0.302024
    65  H    0.034843
    66  C    0.124898
    67  N   -0.263096
    68  C    0.025097
    69  C    0.181109
    70  N   -0.310291
 Sum of Mulliken charges =  -0.00000

 Dipole moment (field-independent basis, Debye):
    X=              7.0009    Y=              6.5937    Z=              3.2600  Tot=             10.1547
 Quadrupole moment (field-independent basis, Debye-Ang):
   XX=           -147.8790   YY=           -224.1769   ZZ=           -253.7801
   XY=              5.1454   XZ=              5.0897   YZ=              2.5960

 Normal termination of Gaussian 16 at Sun Jan 21 14:09:18 2018.
