 Gaussian 16, Revision A.03,
 Gaussian 16:  EM64L-G16RevA.03 25-Dec-2016

 ---------------------------------------
 #p wb97xd/cc-pvdz sp scf=(maxcycles=20)
 ---------------------------------------

 ------------------
 Base pair stacking
 ------------------
 Symbolic Z-matrix:
 Charge =  0 Multiplicity = 1

                         Standard orientation:
 ---------------------------------------------------------------------
 Center     Atomic      Atomic             Coordinates (Angstroms)
 Number     Number       Type             X           Y           Z
 ---------------------------------------------------------------------
      1          7           0        4.575797   -1.460034   -1.789895
      2          6           0        5.928370   -0.919182   -2.026573
      3          6           0        2.398529   -1.658277   -1.550034
      4          7           0        2.929471   -2.921533   -1.333200
      5          6           0        4.219941   -2.751540   -1.486387
      6          1           0        4.965280   -3.541368   -1.388451
      7          7           0        0.894232    0.142259   -1.791033
      8          6           0        1.963940    0.902070   -2.047926
      9          1           0        1.751636    1.951273   -2.248836
     10          7           0        3.250474    0.562019   -2.093680
     11          6           0        3.401164   -0.747019   -1.832614
     12          6           0        1.079102   -1.170726   -1.532242
     13          7           0        0.012540   -1.930824   -1.275583
     14          1           0        0.102353   -2.907743   -1.078682
     15          1           0       -0.912134   -1.549879   -1.271352
     16          1           0        6.346602   -1.391450   -2.802610
     17          1           0        5.867056    0.058330   -2.226187
     18          1           0        6.491832   -1.056599   -1.211945
     19          7           0        5.336709    1.610424    0.842666
     20          6           0        3.965559    1.642374    0.926256
     21          6           0        6.196423    2.753382    0.474917
     22          7           0        0.975454    3.387923    0.654114
     23          1           0        0.000006    3.202652    0.769971
     24          1           0        1.232066    4.316602    0.385034
     25          7           0        3.179612    2.714640    0.688381
     26          6           0        1.898662    2.434494    0.850527
     27          7           0        1.421795    1.199406    1.217500
     28          1           0        0.425934    1.076335    1.317877
     29          6           0        2.212121    0.081897    1.467345
     30          8           0        1.681472   -0.987280    1.792950
     31          6           0        3.590678    0.367359    1.297199
     32          7           0        4.704072   -0.448629    1.443543
     33          6           0        5.714358    0.329637    1.164550
     34          1           0        6.759695    0.019215    1.178387
     35          1           0        6.719353    2.528525   -0.346540
     36          1           0        5.625246    3.553477    0.296398
     37          1           0        6.825102    2.954727    1.225271
     38          1           0       -4.648283    0.947069    1.020750
     39          1           0       -4.547973    1.130152    2.770339
     40          1           0       -3.314052    1.851732    1.736836
     41          1           0       -3.540282   -3.552156    2.315320
     42          6           0       -3.051031   -2.586653    2.186227
     43          8           0       -0.859552   -3.494173    2.155549
     44          6           0       -1.623771   -2.531095    2.098584
     45          1           0       -0.101983   -1.181920    1.870137
     46          7           0       -1.106991   -1.261545    1.936095
     47          8           0       -1.262460    0.992675    1.709105
     48          6           0       -1.810433   -0.086003    1.853407
     49          1           0       -4.851842   -1.445322    2.170035
     50          6           0       -3.764431   -1.457184    2.108925
     51          6           0       -3.975331    1.007397    1.863103
     52          7           0       -3.181623   -0.221773    1.946233
     53          1           0       -6.176101    3.693234   -2.079647
     54          1           0       -4.804011    3.773807   -1.200453
     55          1           0       -6.252512    3.725117   -0.449740
     56          1           0       -3.453361   -3.124799   -0.999550
     57          1           0       -5.126138   -2.801058   -1.083768
     58          7           0       -4.189866   -2.449951   -1.047287
     59          6           0       -3.935854   -1.139819   -1.061716
     60          6           0       -4.515455    1.166789   -1.134836
     61          7           0       -3.248221    1.609562   -1.084815
     62          1           0       -1.344355    0.857773   -0.981292
     63          6           0       -2.398265    0.586393   -1.024833
     64          7           0       -2.650710   -0.726474   -1.010277
     65          1           0       -7.739282    1.355269   -1.288428
     66          6           0       -6.701463    1.025308   -1.233592
     67          7           0       -6.319111   -0.227546   -1.190740
     68          6           0       -4.935240   -0.152020   -1.127941
     69          6           0       -5.728924    3.396440   -1.235875
     70          7           0       -5.661834    1.922519   -1.203244
 ---------------------------------------------------------------------

 SCF Done:  E(RwB97XD) =  -2048.74696113     A.U. after   15 cycles

 The electronic state is 1-A.
 Alpha  occ. eigenvalues --  -19.25249 -19.21431 -19.20572 -14.52852 -14.51706
 Alpha  occ. eigenvalues --  -14.49122 -14.48625 -14.48435 -14.47215 -14.46728
 Alpha  occ. eigenvalues --  -14.46643 -14.45741 -14.44833 -14.44740 -14.42860
 Alpha  occ. eigenvalues --  -14.41973 -14.41409 -14.41170 -14.41011 -14.40687
 Alpha  occ. eigenvalues --  -10.44822 -10.41183 -10.40476 -10.39537 -10.38290
 Alpha  occ. eigenvalues --  -10.38227 -10.37619 -10.37187 -10.36312 -10.35779
 Alpha  occ. eigenvalues --  -10.34518 -10.34153 -10.34011 -10.33808 -10.33777
 Alpha  occ. eigenvalues --  -10.33314 -10.33295 -10.33122 -10.31243 -10.30741
 Alpha  occ. eigenvalues --  -10.30492 -10.28537 -10.28287  -1.18830  -1.15640
 Alpha  occ. eigenvalues --   -1.13217  -1.12447  -1.11080  -1.10811  -1.09841
 Alpha  occ. eigenvalues --   -1.08647  -1.08507  -1.05353  -1.05286  -1.01831
 Alpha  occ. eigenvalues --   -1.01320  -1.00757  -0.99705  -0.98602  -0.97400
 Alpha  occ. eigenvalues --   -0.96849  -0.96742  -0.93036  -0.90408  -0.88102
 Alpha  occ. eigenvalues --   -0.86235  -0.84365  -0.83829  -0.82901  -0.82702
 Alpha  occ. eigenvalues --   -0.82225  -0.78263  -0.77455  -0.75295  -0.74775
 Alpha  occ. eigenvalues --   -0.73632  -0.72994  -0.72728  -0.71184  -0.70829
 Alpha  occ. eigenvalues --   -0.67446  -0.67213  -0.66401  -0.65960  -0.64643
 Alpha  occ. eigenvalues --   -0.64391  -0.63480  -0.62867  -0.62622  -0.61858
 Alpha  occ. eigenvalues --   -0.61157  -0.60825  -0.60634  -0.59812  -0.59019
 Alpha  occ. eigenvalues --   -0.58837  -0.58367  -0.57286  -0.56675  -0.55880
 Alpha  occ. eigenvalues --   -0.55846  -0.55646  -0.55552  -0.54692  -0.54127
 Alpha  occ. eigenvalues --   -0.53954  -0.53827  -0.53348  -0.53175  -0.53000
 Alpha  occ. eigenvalues --   -0.52236  -0.51698  -0.51659  -0.50558  -0.50477
 Alpha  occ. eigenvalues --   -0.50226  -0.50101  -0.49563  -0.49132  -0.48955
 Alpha  occ. eigenvalues --   -0.48785  -0.48176  -0.48055  -0.47827  -0.47105
 Alpha  occ. eigenvalues --   -0.46979  -0.45793  -0.45607  -0.44902  -0.42606
 Alpha  occ. eigenvalues --   -0.41377  -0.41075  -0.38967  -0.38248  -0.38018
 Alpha  occ. eigenvalues --   -0.37557  -0.37294  -0.37010  -0.35555  -0.35128
 Alpha  occ. eigenvalues --   -0.34748  -0.34172  -0.33561  -0.33476  -0.32984
 Alpha  occ. eigenvalues --   -0.32610  -0.32524  -0.31918  -0.31261  -0.30768
 Alpha  occ. eigenvalues --   -0.30604  -0.30414  -0.25999  -0.25614
 Alpha virt. eigenvalues --    0.03035   0.04112   0.06329   0.07692   0.08828
 Alpha virt. eigenvalues --    0.09143   0.09768   0.10175   0.10815   0.12231
 Alpha virt. eigenvalues --    0.13103   0.13905   0.14197   0.14507   0.14600

 Mulliken charges:
               1
     1  N   -0.303964
     2  C    0.183464
     3  C    0.061984
     4  N   -0.257176
     5  C    0.150316
     6  H    0.027900
     7  N   -0.288953
     8  C    0.123639
     9  H    0.010658
    10  N   -0.275330
    11  C    0.239541
    12  C    0.079936
    13  N   -0.061154
    14  H    0.114787
    15  H    0.084522
    16  H    0.025651
    17  H    0.028229
    18  H    0.020339
    19  N   -0.306070
    20  C    0.267885
    21  C    0.183900
    22  N   -0.118068
    23  H    0.121514
    24  H    0.118021
    25  N   -0.301331
    26  C    0.222121
    27  N   -0.125999
    28  H    0.119301
    29  C    0.179159
    30  O   -0.320276
    31  C   -0.017085
    32  N   -0.221866
    33  C    0.102797
    34  H    0.025340
    35  H    0.022348
    36  H    0.032073
    37  H    0.024749
    38  H    0.061535
    39  H    0.053376
    40  H    0.076824
    41  H    0.021721
    42  C   -0.107834
    43  O   -0.268439
    44  C    0.171721
    45  H    0.131675
    46  N   -0.123067
    47  O   -0.347343
    48  C    0.340833
    49  H    0.044697
    50  C    0.162511
    51  C    0.048715
    52  N   -0.275320
    53  H    0.035446
    54  H    0.041214
    55  H    0.029393
    56  H    0.122408
    57  H    0.118575
    58  N   -0.056019
    59  C    0.092121
    60  C    0.196978
    61  N   -0.255014
    62  H    0.024623
    63  C    0.172414
    64  N   -0.309080
    65  H    0.039264
    66  C    0.133084
    67  N   -0.251654
    68  C    0.020864
    69  C    0.180778
    70  N   -0.299897
 Sum of Mulliken charges =  -0.00000

 Dipole moment (field-independent basis, Debye):
    X=             -6.8374    Y=              7.3821    Z=             -1.9059  Tot=             10.2409
 Quadrupole moment (field-independent basis, Debye-Ang):
   XX=           -153.4804   YY=           -226.5253   ZZ=           -254.6741
   XY=             -0.1437   XZ=            -13.2741   YZ=             12.4262

 Normal termination of Gaussian 16 at Sun Jan 21 21:18:12 2018.
