 Gaussian 16, Revision A.03,
 Gaussian 16:  EM64L-G16RevA.03 25-Dec-2016

 ---------------------------------------
 #p wb97xd/cc-pvdz sp scf=(maxcycles=20)
 ---------------------------------------

 ------------------
 Base pair stacking
 ------------------
 Symbolic Z-matrix:
 Charge =  0 Multiplicity = 1

                         Standard orientation:
 ---------------------------------------------------------------------
 Center     Atomic      Atomic             Coordinates (Angstroms)
 Number     Number       Type             X           Y           Z
 ---------------------------------------------------------------------
      1          7           0       -6.361931   -1.302589    0.641067
      2          6           0       -7.705770   -0.693500    0.674229
      3          6           0       -4.190431   -1.623282    0.779080
      4          7           0       -4.736144   -2.832090    0.372035
      5          6           0       -6.022558   -2.590516    0.305175
      6          1           0       -6.776499   -3.322346    0.013756
      7          7           0       -2.666206    0.056351    1.426026
      8          6           0       -3.724904    0.863898    1.546792
      9          1           0       -3.499984    1.881141    1.864442
     10          7           0       -5.013672    0.604767    1.335077
     11          6           0       -5.180290   -0.670999    0.948958
     12          6           0       -2.866992   -1.221314    1.035721
     13          7           0       -1.811434   -2.028966    0.914600
     14          1           0       -1.913162   -2.982371    0.628456
     15          1           0       -0.883467   -1.708740    1.105629
     16          1           0       -8.282281   -1.189870    1.323414
     17          1           0       -7.632490    0.262138    0.957989
     18          1           0       -8.116982   -0.738508   -0.236195
     19          7           0       -3.497391    2.024168   -1.465911
     20          6           0       -2.134256    1.973707   -1.300463
     21          6           0       -4.350756    3.192135   -1.168719
     22          7           0        0.840292    3.501122   -0.361937
     23          1           0        1.809793    3.261999   -0.315939
     24          1           0        0.586235    4.423803   -0.070680
     25          7           0       -1.351701    2.974577   -0.842292
     26          6           0       -0.078591    2.624547   -0.794593
     27          7           0        0.394071    1.389371   -1.166676
     28          1           0        1.383945    1.209798   -1.096939
     29          6           0       -0.392887    0.344560   -1.640943
     30          8           0        0.133428   -0.731716   -1.949762
     31          6           0       -1.763026    0.705592   -1.697791
     32          7           0       -2.870812   -0.025365   -2.104499
     33          6           0       -3.874280    0.795239   -1.949990
     34          1           0       -4.913835    0.554202   -2.174734
     35          1           0       -5.025817    2.945703   -0.474190
     36          1           0       -3.782021    3.939864   -0.828563
     37          1           0       -4.820569    3.484192   -2.001057
     38          1           0        6.305045    0.735226    0.090588
     39          1           0        6.535814    1.043462   -1.628824
     40          1           0        5.171912    1.770432   -0.778724
     41          1           0        5.225694   -3.584673   -1.731541
     42          6           0        4.770712   -2.600837   -1.616236
     43          8           0        2.567409   -3.365852   -2.049094
     44          6           0        3.356173   -2.459943   -1.780819
     45          1           0        1.888712   -1.034659   -1.722257
     46          7           0        2.883476   -1.173916   -1.613706
     47          8           0        3.108959    1.044902   -1.185675
     48          6           0        3.618644   -0.054346   -1.314329
     49          1           0        6.593720   -1.581192   -1.188758
     50          6           0        5.514303   -1.527395   -1.323988
     51          6           0        5.801435    0.896013   -0.850999
     52          7           0        4.975002   -0.271144   -1.171154
     53          1           0        4.402974    3.118321    3.251774
     54          1           0        3.220698    3.346640    2.150776
     55          1           0        4.777694    3.256508    1.669389
     56          1           0        1.581390   -3.421214    1.168833
     57          1           0        3.224785   -3.211983    1.575721
     58          7           0        2.330012   -2.799855    1.400383
     59          6           0        2.144437   -1.480177    1.472413
     60          6           0        2.817139    0.774094    1.829428
     61          7           0        1.604546    1.299645    1.588921
     62          1           0       -0.283922    0.680397    1.088091
     63          6           0        0.729104    0.339615    1.297648
     64          7           0        0.913033   -0.982684    1.224996
     65          1           0        5.963846    0.744400    2.570732
     66          6           0        4.938180    0.486228    2.305580
     67          7           0        4.507060   -0.733651    2.096526
     68          6           0        3.163664   -0.565381    1.793711
     69          6           0        4.103180    2.909168    2.320976
     70          7           0        3.968516    1.448262    2.160833
 ---------------------------------------------------------------------

 SCF Done:  E(RwB97XD) =  -2048.74882903     A.U. after   15 cycles

 The electronic state is 1-A.
 Alpha  occ. eigenvalues --  -19.25832 -19.21924 -19.20503 -14.52373 -14.52017
 Alpha  occ. eigenvalues --  -14.49257 -14.48444 -14.47794 -14.47375 -14.46621
 Alpha  occ. eigenvalues --  -14.46251 -14.45035 -14.43590 -14.43522 -14.42697
 Alpha  occ. eigenvalues --  -14.41837 -14.41825 -14.41546 -14.40674 -14.40637
 Alpha  occ. eigenvalues --  -10.45452 -10.40905 -10.40057 -10.39285 -10.38022
 Alpha  occ. eigenvalues --  -10.37669 -10.37575 -10.36655 -10.35901 -10.35428
 Alpha  occ. eigenvalues --  -10.35245 -10.34485 -10.34066 -10.33943 -10.33829
 Alpha  occ. eigenvalues --  -10.33615 -10.33106 -10.31981 -10.31486 -10.30935
 Alpha  occ. eigenvalues --  -10.30258 -10.28958 -10.27838  -1.19437  -1.14717
 Alpha  occ. eigenvalues --   -1.13041  -1.12955  -1.11814  -1.10350  -1.09255
 Alpha  occ. eigenvalues --   -1.08601  -1.08321  -1.05497  -1.04137  -1.02445
 Alpha  occ. eigenvalues --   -1.00940  -1.00527  -0.99435  -0.98350  -0.97420
 Alpha  occ. eigenvalues --   -0.96283  -0.96158  -0.93166  -0.90942  -0.87201
 Alpha  occ. eigenvalues --   -0.85649  -0.84421  -0.83810  -0.83707  -0.82789
 Alpha  occ. eigenvalues --   -0.82079  -0.78775  -0.76515  -0.74392  -0.74270
 Alpha  occ. eigenvalues --   -0.73437  -0.73362  -0.73276  -0.71552  -0.69905
 Alpha  occ. eigenvalues --   -0.67125  -0.66776  -0.66478  -0.66230  -0.64359
 Alpha  occ. eigenvalues --   -0.63781  -0.63539  -0.63173  -0.62547  -0.61471
 Alpha  occ. eigenvalues --   -0.60709  -0.60672  -0.60071  -0.59410  -0.59094
 Alpha  occ. eigenvalues --   -0.58674  -0.58064  -0.57089  -0.56965  -0.56334
 Alpha  occ. eigenvalues --   -0.55902  -0.55843  -0.55028  -0.54645  -0.54272
 Alpha  occ. eigenvalues --   -0.53911  -0.53413  -0.53038  -0.52808  -0.52656
 Alpha  occ. eigenvalues --   -0.52495  -0.52250  -0.52224  -0.51244  -0.50675
 Alpha  occ. eigenvalues --   -0.49922  -0.49647  -0.49369  -0.49004  -0.48857
 Alpha  occ. eigenvalues --   -0.48604  -0.48222  -0.48007  -0.47436  -0.47381
 Alpha  occ. eigenvalues --   -0.47249  -0.45466  -0.45265  -0.44117  -0.43806
 Alpha  occ. eigenvalues --   -0.41680  -0.40349  -0.39418  -0.37703  -0.37328
 Alpha  occ. eigenvalues --   -0.37239  -0.37083  -0.36821  -0.35786  -0.34357
 Alpha  occ. eigenvalues --   -0.34046  -0.33867  -0.33826  -0.33331  -0.33112
 Alpha  occ. eigenvalues --   -0.32530  -0.32126  -0.31859  -0.31706  -0.31432
 Alpha  occ. eigenvalues --   -0.30905  -0.29243  -0.26201  -0.25103
 Alpha virt. eigenvalues --    0.03117   0.04635   0.07435   0.07564   0.08582
 Alpha virt. eigenvalues --    0.09211   0.09918   0.10515   0.10901   0.11355
 Alpha virt. eigenvalues --    0.13114   0.13761   0.14415   0.14749   0.14895

 Mulliken charges:
               1
     1  N   -0.311957
     2  C    0.179896
     3  C    0.059207
     4  N   -0.257180
     5  C    0.132795
     6  H    0.027666
     7  N   -0.281606
     8  C    0.133973
     9  H    0.014402
    10  N   -0.289522
    11  C    0.229028
    12  C    0.104485
    13  N   -0.047514
    14  H    0.109557
    15  H    0.089237
    16  H    0.027438
    17  H    0.032832
    18  H    0.025281
    19  N   -0.296463
    20  C    0.247031
    21  C    0.179263
    22  N   -0.099370
    23  H    0.111832
    24  H    0.113197
    25  N   -0.301784
    26  C    0.219103
    27  N   -0.138466
    28  H    0.123516
    29  C    0.157424
    30  O   -0.323077
    31  C    0.007673
    32  N   -0.222853
    33  C    0.123578
    34  H    0.020872
    35  H    0.025895
    36  H    0.025989
    37  H    0.021372
    38  H    0.051022
    39  H    0.062291
    40  H    0.071084
    41  H    0.028419
    42  C   -0.114372
    43  O   -0.268967
    44  C    0.171820
    45  H    0.133846
    46  N   -0.127491
    47  O   -0.342803
    48  C    0.347153
    49  H    0.046366
    50  C    0.182040
    51  C    0.041068
    52  N   -0.282637
    53  H    0.034914
    54  H    0.035786
    55  H    0.021432
    56  H    0.124443
    57  H    0.118050
    58  N   -0.058721
    59  C    0.112623
    60  C    0.246795
    61  N   -0.280587
    62  H    0.036067
    63  C    0.166501
    64  N   -0.302960
    65  H    0.036621
    66  C    0.109664
    67  N   -0.251718
    68  C    0.002258
    69  C    0.179332
    70  N   -0.302092
 Sum of Mulliken charges =  -0.00000

 Dipole moment (field-independent basis, Debye):
    X=              6.4683    Y=              6.1472    Z=              3.4134  Tot=              9.5540
 Quadrupole moment (field-independent basis, Debye-Ang):
   XX=           -144.8732   YY=           -225.5750   ZZ=           -256.9935
   XY=             10.0074   XZ=              8.4185   YZ=             -8.4506

 Normal termination of Gaussian 16 at Sun Jan 21 19:31:11 2018.
