 Gaussian 16, Revision A.03,
 Gaussian 16:  EM64L-G16RevA.03 25-Dec-2016

 ---------------------------------------
 #p wb97xd/cc-pvdz sp scf=(maxcycles=20)
 ---------------------------------------

 ------------------
 Base pair stacking
 ------------------
 Symbolic Z-matrix:
 Charge =  0 Multiplicity = 1

                         Standard orientation:
 ---------------------------------------------------------------------
 Center     Atomic      Atomic             Coordinates (Angstroms)
 Number     Number       Type             X           Y           Z
 ---------------------------------------------------------------------
      1          7           0        5.485332   -1.357654   -1.243160
      2          6           0        6.840634   -0.774115   -1.268525
      3          6           0        3.301278   -1.614326   -1.279720
      4          7           0        3.838553   -2.883382   -1.119808
      5          6           0        5.132863   -2.677948   -1.104180
      6          1           0        5.883577   -3.460888   -0.992918
      7          7           0        1.785369    0.175458   -1.528030
      8          6           0        2.856053    0.974106   -1.586321
      9          1           0        2.639278    2.033937   -1.712902
     10          7           0        4.148229    0.661582   -1.512087
     11          6           0        4.304111   -0.663621   -1.357277
     12          6           0        1.975567   -1.152889   -1.371834
     13          7           0        0.908037   -1.951737   -1.313421
     14          1           0        1.001652   -2.941307   -1.198505
     15          1           0       -0.021166   -1.588499   -1.382493
     16          1           0        7.358423   -1.163403   -2.030452
     17          1           0        6.775623    0.216774   -1.382731
     18          1           0        7.310090   -0.978866   -0.409635
     19          7           0        4.452159    1.721849    1.205242
     20          6           0        3.079546    1.719877    1.142018
     21          6           0        5.321742    2.859445    0.844116
     22          7           0        0.099155    3.353044    0.426636
     23          1           0       -0.878928    3.148404    0.453335
     24          1           0        0.363244    4.266668    0.116384
     25          7           0        2.300876    2.748553    0.742586
     26          6           0        1.016171    2.443816    0.790344
     27          7           0        0.529217    1.225468    1.197801
     28          1           0       -0.468839    1.081108    1.202289
     29          6           0        1.311914    0.152688    1.612991
     30          8           0        0.772377   -0.904844    1.961226
     31          6           0        2.694383    0.464987    1.567110
     32          7           0        3.802886   -0.305356    1.890702
     33          6           0        4.820418    0.479542    1.660982
     34          1           0        5.864662    0.201544    1.807762
     35          1           0        5.933969    2.590505    0.101380
     36          1           0        4.756012    3.627384    0.546650
     37          1           0        5.862374    3.133296    1.638803
     38          1           0       -5.478515    0.782741    0.385704
     39          1           0       -5.569323    1.096002    2.117261
     40          1           0       -4.247786    1.775773    1.167087
     41          1           0       -4.419681   -3.575700    2.126237
     42          6           0       -3.940055   -2.608361    1.976374
     43          8           0       -1.739049   -3.451494    2.244337
     44          6           0       -2.513100   -2.517823    2.034832
     45          1           0       -1.004604   -1.145184    1.865610
     46          7           0       -2.008997   -1.249016    1.831716
     47          8           0       -2.187175    0.977111    1.419643
     48          6           0       -2.724400   -0.103655    1.586989
     49          1           0       -5.752682   -1.524209    1.685182
     50          6           0       -4.664948   -1.508823    1.739437
     51          6           0       -4.900696    0.924024    1.286942
     52          7           0       -4.094468   -0.272155    1.545629
     53          1           0       -5.300437    3.618580   -2.314533
     54          1           0       -4.041529    3.638252   -1.276805
     55          1           0       -5.564958    3.494128   -0.708931
     56          1           0       -2.532103   -3.224568   -1.557431
     57          1           0       -4.192383   -2.922419   -1.806996
     58          7           0       -3.276645   -2.560697   -1.628640
     59          6           0       -3.059121   -1.251045   -1.491999
     60          6           0       -3.690226    1.042009   -1.419073
     61          7           0       -2.449969    1.499238   -1.180023
     62          1           0       -0.550580    0.773089   -0.923822
     63          6           0       -1.584517    0.489422   -1.115600
     64          7           0       -1.800428   -0.822946   -1.252172
     65          1           0       -6.878865    1.190091   -1.931678
     66          6           0       -5.845529    0.873885   -1.786220
     67          7           0       -5.436041   -0.370778   -1.814809
     68          6           0       -4.071258   -0.278345   -1.583408
     69          6           0       -4.945374    3.250486   -1.455213
     70          7           0       -4.841619    1.781466   -1.551321
 ---------------------------------------------------------------------

 SCF Done:  E(RwB97XD) =  -2048.73719740     A.U. after   15 cycles

 The electronic state is 1-A.
 Alpha  occ. eigenvalues --  -19.25243 -19.21504 -19.20482 -14.52682 -14.51893
 Alpha  occ. eigenvalues --  -14.48891 -14.48383 -14.48334 -14.47326 -14.46629
 Alpha  occ. eigenvalues --  -14.46349 -14.45918 -14.44605 -14.44496 -14.42759
 Alpha  occ. eigenvalues --  -14.41815 -14.41461 -14.41198 -14.40776 -14.40472
 Alpha  occ. eigenvalues --  -10.44847 -10.41026 -10.40229 -10.39622 -10.38289
 Alpha  occ. eigenvalues --  -10.38063 -10.37461 -10.37269 -10.36047 -10.35751
 Alpha  occ. eigenvalues --  -10.34473 -10.34359 -10.34178 -10.34042 -10.33554
 Alpha  occ. eigenvalues --  -10.33187 -10.33162 -10.32981 -10.31411 -10.30627
 Alpha  occ. eigenvalues --  -10.30428 -10.28662 -10.27904  -1.19053  -1.15652
 Alpha  occ. eigenvalues --   -1.13013  -1.12545  -1.11465  -1.10317  -1.09574
 Alpha  occ. eigenvalues --   -1.08845  -1.08354  -1.05340  -1.05051  -1.01990
 Alpha  occ. eigenvalues --   -1.01367  -1.00803  -0.99471  -0.98377  -0.97256
 Alpha  occ. eigenvalues --   -0.97020  -0.96319  -0.93032  -0.90573  -0.88010
 Alpha  occ. eigenvalues --   -0.86318  -0.84180  -0.83852  -0.83246  -0.82603
 Alpha  occ. eigenvalues --   -0.82153  -0.78388  -0.77372  -0.75226  -0.74385
 Alpha  occ. eigenvalues --   -0.73417  -0.73160  -0.72900  -0.71308  -0.70732
 Alpha  occ. eigenvalues --   -0.67173  -0.67093  -0.66612  -0.66091  -0.64594
 Alpha  occ. eigenvalues --   -0.64175  -0.63549  -0.63040  -0.62524  -0.61643
 Alpha  occ. eigenvalues --   -0.61523  -0.60845  -0.60694  -0.59802  -0.59124
 Alpha  occ. eigenvalues --   -0.58490  -0.58095  -0.57276  -0.56863  -0.56125
 Alpha  occ. eigenvalues --   -0.55919  -0.55726  -0.55526  -0.54209  -0.54116
 Alpha  occ. eigenvalues --   -0.53929  -0.53659  -0.53400  -0.53266  -0.53026
 Alpha  occ. eigenvalues --   -0.52682  -0.52140  -0.52117  -0.50971  -0.50388
 Alpha  occ. eigenvalues --   -0.50202  -0.49832  -0.49197  -0.49070  -0.48786
 Alpha  occ. eigenvalues --   -0.48467  -0.48331  -0.48065  -0.47366  -0.47118
 Alpha  occ. eigenvalues --   -0.47046  -0.45822  -0.44920  -0.44615  -0.42993
 Alpha  occ. eigenvalues --   -0.41175  -0.40985  -0.39099  -0.38082  -0.37938
 Alpha  occ. eigenvalues --   -0.37680  -0.37162  -0.36910  -0.36035  -0.35016
 Alpha  occ. eigenvalues --   -0.34608  -0.34034  -0.33738  -0.33373  -0.32815
 Alpha  occ. eigenvalues --   -0.32445  -0.32116  -0.31844  -0.31697  -0.30988
 Alpha  occ. eigenvalues --   -0.30695  -0.29448  -0.25873  -0.25291
 Alpha virt. eigenvalues --    0.03441   0.03612   0.06729   0.07513   0.08999
 Alpha virt. eigenvalues --    0.09118   0.09829   0.10114   0.11053   0.12391
 Alpha virt. eigenvalues --    0.12903   0.13932   0.14139   0.14196   0.14748

 Mulliken charges:
               1
     1  N   -0.309628
     2  C    0.175051
     3  C    0.074062
     4  N   -0.259484
     5  C    0.138809
     6  H    0.026842
     7  N   -0.287094
     8  C    0.136842
     9  H    0.015973
    10  N   -0.285096
    11  C    0.235521
    12  C    0.083774
    13  N   -0.050974
    14  H    0.109263
    15  H    0.083121
    16  H    0.028258
    17  H    0.031380
    18  H    0.025376
    19  N   -0.275776
    20  C    0.215758
    21  C    0.183748
    22  N   -0.108563
    23  H    0.114528
    24  H    0.115216
    25  N   -0.295231
    26  C    0.224605
    27  N   -0.132747
    28  H    0.115073
    29  C    0.177682
    30  O   -0.321860
    31  C   -0.003488
    32  N   -0.217950
    33  C    0.111846
    34  H    0.015127
    35  H    0.021361
    36  H    0.027717
    37  H    0.020815
    38  H    0.047100
    39  H    0.056680
    40  H    0.071079
    41  H    0.025878
    42  C   -0.106138
    43  O   -0.267509
    44  C    0.171104
    45  H    0.130094
    46  N   -0.116853
    47  O   -0.332445
    48  C    0.330122
    49  H    0.046144
    50  C    0.166124
    51  C    0.057941
    52  N   -0.278744
    53  H    0.037434
    54  H    0.038346
    55  H    0.025331
    56  H    0.123785
    57  H    0.118582
    58  N   -0.059960
    59  C    0.093640
    60  C    0.185810
    61  N   -0.251146
    62  H    0.031778
    63  C    0.152816
    64  N   -0.297557
    65  H    0.036538
    66  C    0.110504
    67  N   -0.247781
    68  C    0.047896
    69  C    0.182453
    70  N   -0.288904
 Sum of Mulliken charges =  -0.00000

 Dipole moment (field-independent basis, Debye):
    X=             -6.6387    Y=              6.7441    Z=             -3.4101  Tot=             10.0590
 Quadrupole moment (field-independent basis, Debye-Ang):
   XX=           -149.8138   YY=           -226.9468   ZZ=           -258.1835
   XY=             -5.8155   XZ=             -3.0753   YZ=             13.0485

 Normal termination of Gaussian 16 at Sun Jan 21 10:13:19 2018.
