 Gaussian 16, Revision A.03,
 Gaussian 16:  EM64L-G16RevA.03 25-Dec-2016

 ---------------------------------------
 #p wb97xd/cc-pvdz sp scf=(maxcycles=20)
 ---------------------------------------

 ------------------
 Base pair stacking
 ------------------
 Symbolic Z-matrix:
 Charge =  0 Multiplicity = 1

                         Standard orientation:
 ---------------------------------------------------------------------
 Center     Atomic      Atomic             Coordinates (Angstroms)
 Number     Number       Type             X           Y           Z
 ---------------------------------------------------------------------
      1          7           0        5.189025   -1.426992   -1.436139
      2          6           0        6.546986   -0.861490   -1.555045
      3          6           0        3.003266   -1.660739   -1.364350
      4          7           0        3.535900   -2.923465   -1.148556
      5          6           0        4.831422   -2.732097   -1.200449
      6          1           0        5.579416   -3.515085   -1.072462
      7          7           0        1.493649    0.127264   -1.659372
      8          6           0        2.567712    0.908626   -1.812476
      9          1           0        2.354885    1.960978   -1.995538
     10          7           0        3.859135    0.586719   -1.773571
     11          6           0        4.010041   -0.728044   -1.543264
     12          6           0        1.678860   -1.190949   -1.428925
     13          7           0        0.607956   -1.972538   -1.275826
     14          1           0        0.697836   -2.954106   -1.103571
     15          1           0       -0.320184   -1.603795   -1.328076
     16          1           0        7.028252   -1.302988   -2.312440
     17          1           0        6.485711    0.121113   -1.727887
     18          1           0        7.051039   -1.018002   -0.705670
     19          7           0        4.749431    1.709225    1.091703
     20          6           0        3.375456    1.720250    1.080542
     21          6           0        5.615298    2.847220    0.722979
     22          7           0        0.385489    3.394099    0.514786
     23          1           0       -0.592754    3.197178    0.574041
     24          1           0        0.646157    4.312163    0.214913
     25          7           0        2.591852    2.764131    0.733645
     26          6           0        1.307095    2.469256    0.823373
     27          7           0        0.824561    1.246278    1.222099
     28          1           0       -0.173906    1.110282    1.261253
     29          6           0        1.612368    0.157916    1.583618
     30          8           0        1.076557   -0.902533    1.928719
     31          6           0        2.994975    0.459483    1.492241
     32          7           0        4.107686   -0.327232    1.756539
     33          6           0        5.123073    0.453991    1.505722
     34          1           0        6.169486    0.163967    1.606647
     35          1           0        6.196554    2.589774   -0.048174
     36          1           0        5.045903    3.626361    0.464141
     37          1           0        6.188044    3.098675    1.502424
     38          1           0       -5.213379    0.872542    0.628855
     39          1           0       -5.235891    1.147812    2.369074
     40          1           0       -3.944888    1.837446    1.384658
     41          1           0       -4.130145   -3.532474    2.231685
     42          6           0       -3.647556   -2.566115    2.085075
     43          8           0       -1.445927   -3.433571    2.250760
     44          6           0       -2.218624   -2.488952    2.091347
     45          1           0       -0.704915   -1.125657    1.895277
     46          7           0       -1.710795   -1.220225    1.897225
     47          8           0       -1.883715    1.015980    1.541262
     48          6           0       -2.424250   -0.063689    1.705053
     49          1           0       -5.459738   -1.460454    1.886731
     50          6           0       -4.370634   -1.455464    1.900028
     51          6           0       -4.600683    0.988773    1.510418
     52          7           0       -3.796418   -0.219640    1.711969
     53          1           0       -5.589308    3.594959   -2.358722
     54          1           0       -4.286960    3.664559   -1.378337
     55          1           0       -5.785829    3.573049   -0.738740
     56          1           0       -2.850376   -3.219087   -1.294539
     57          1           0       -4.517146   -2.914215   -1.492074
     58          7           0       -3.591511   -2.552514   -1.375439
     59          6           0       -3.356997   -1.239471   -1.329942
     60          6           0       -3.964542    1.060688   -1.373362
     61          7           0       -2.711274    1.517794   -1.215865
     62          1           0       -0.809005    0.787469   -0.995409
     63          6           0       -1.852616    0.504180   -1.125292
     64          7           0       -2.085532   -0.811600   -1.170633
     65          1           0       -7.170831    1.212794   -1.759021
     66          6           0       -6.134979    0.894534   -1.637939
     67          7           0       -5.737874   -0.354057   -1.606234
     68          6           0       -4.363670   -0.262909   -1.438900
     69          6           0       -5.200932    3.276736   -1.493910
     70          7           0       -5.114105    1.803517   -1.502647
 ---------------------------------------------------------------------

 SCF Done:  E(RwB97XD) =  -2048.74643949     A.U. after   15 cycles

 The electronic state is 1-A.
 Alpha  occ. eigenvalues --  -19.25266 -19.21592 -19.20475 -14.52713 -14.51946
 Alpha  occ. eigenvalues --  -14.48679 -14.48666 -14.48398 -14.47345 -14.46622
 Alpha  occ. eigenvalues --  -14.46507 -14.45809 -14.44612 -14.44490 -14.42714
 Alpha  occ. eigenvalues --  -14.41882 -14.41254 -14.41130 -14.40988 -14.40578
 Alpha  occ. eigenvalues --  -10.44924 -10.41080 -10.40252 -10.39687 -10.38249
 Alpha  occ. eigenvalues --  -10.38094 -10.37439 -10.37293 -10.36170 -10.35717
 Alpha  occ. eigenvalues --  -10.34474 -10.34248 -10.34219 -10.34000 -10.33440
 Alpha  occ. eigenvalues --  -10.33419 -10.33205 -10.32895 -10.31207 -10.30787
 Alpha  occ. eigenvalues --  -10.30695 -10.28580 -10.28031  -1.19013  -1.15591
 Alpha  occ. eigenvalues --   -1.13053  -1.12603  -1.11276  -1.10483  -1.09588
 Alpha  occ. eigenvalues --   -1.08861  -1.08415  -1.05299  -1.05059  -1.02008
 Alpha  occ. eigenvalues --   -1.01288  -1.00710  -0.99569  -0.98420  -0.97202
 Alpha  occ. eigenvalues --   -0.96917  -0.96514  -0.92993  -0.90602  -0.87953
 Alpha  occ. eigenvalues --   -0.86212  -0.84039  -0.84012  -0.83192  -0.82463
 Alpha  occ. eigenvalues --   -0.82390  -0.78418  -0.77334  -0.75150  -0.74524
 Alpha  occ. eigenvalues --   -0.73479  -0.73063  -0.72903  -0.71212  -0.70680
 Alpha  occ. eigenvalues --   -0.67266  -0.67076  -0.66482  -0.66113  -0.64538
 Alpha  occ. eigenvalues --   -0.64228  -0.63597  -0.62926  -0.62520  -0.61681
 Alpha  occ. eigenvalues --   -0.61462  -0.60787  -0.60629  -0.59746  -0.59120
 Alpha  occ. eigenvalues --   -0.58664  -0.58220  -0.57171  -0.56751  -0.56011
 Alpha  occ. eigenvalues --   -0.55872  -0.55649  -0.55498  -0.54305  -0.54031
 Alpha  occ. eigenvalues --   -0.53883  -0.53691  -0.53395  -0.53084  -0.53048
 Alpha  occ. eigenvalues --   -0.52826  -0.52065  -0.51940  -0.50729  -0.50358
 Alpha  occ. eigenvalues --   -0.50215  -0.49976  -0.49197  -0.49103  -0.48854
 Alpha  occ. eigenvalues --   -0.48610  -0.48402  -0.48158  -0.47602  -0.47120
 Alpha  occ. eigenvalues --   -0.47044  -0.45880  -0.45022  -0.44776  -0.42827
 Alpha  occ. eigenvalues --   -0.41122  -0.41052  -0.39018  -0.38071  -0.37908
 Alpha  occ. eigenvalues --   -0.37374  -0.37201  -0.37093  -0.35915  -0.35010
 Alpha  occ. eigenvalues --   -0.34566  -0.34125  -0.33632  -0.33300  -0.32879
 Alpha  occ. eigenvalues --   -0.32542  -0.32293  -0.31849  -0.31776  -0.30944
 Alpha  occ. eigenvalues --   -0.30636  -0.29726  -0.25887  -0.25444
 Alpha virt. eigenvalues --    0.03383   0.03721   0.06701   0.07816   0.09018
 Alpha virt. eigenvalues --    0.09225   0.09760   0.10139   0.10829   0.12580
 Alpha virt. eigenvalues --    0.12715   0.13904   0.14227   0.14308   0.14598

 Mulliken charges:
               1
     1  N   -0.307516
     2  C    0.175856
     3  C    0.068968
     4  N   -0.258945
     5  C    0.142325
     6  H    0.026841
     7  N   -0.286497
     8  C    0.130382
     9  H    0.014344
    10  N   -0.281310
    11  C    0.238689
    12  C    0.079933
    13  N   -0.050812
    14  H    0.111202
    15  H    0.082904
    16  H    0.028016
    17  H    0.031024
    18  H    0.022439
    19  N   -0.292970
    20  C    0.252197
    21  C    0.184207
    22  N   -0.117146
    23  H    0.119184
    24  H    0.116693
    25  N   -0.299054
    26  C    0.229526
    27  N   -0.126559
    28  H    0.112389
    29  C    0.176559
    30  O   -0.322045
    31  C   -0.014783
    32  N   -0.218334
    33  C    0.107218
    34  H    0.018374
    35  H    0.023151
    36  H    0.029702
    37  H    0.022109
    38  H    0.053505
    39  H    0.055879
    40  H    0.074160
    41  H    0.024867
    42  C   -0.101225
    43  O   -0.267551
    44  C    0.169735
    45  H    0.129806
    46  N   -0.116066
    47  O   -0.338952
    48  C    0.333632
    49  H    0.045837
    50  C    0.161311
    51  C    0.058492
    52  N   -0.277987
    53  H    0.036354
    54  H    0.039513
    55  H    0.026075
    56  H    0.123438
    57  H    0.117703
    58  N   -0.057144
    59  C    0.093024
    60  C    0.189874
    61  N   -0.257937
    62  H    0.019073
    63  C    0.171150
    64  N   -0.304088
    65  H    0.035796
    66  C    0.114766
    67  N   -0.248400
    68  C    0.035381
    69  C    0.182540
    70  N   -0.290814
 Sum of Mulliken charges =  -0.00000

 Dipole moment (field-independent basis, Debye):
    X=             -6.6957    Y=              6.9366    Z=             -2.8032  Tot=             10.0402
 Quadrupole moment (field-independent basis, Debye-Ang):
   XX=           -151.2230   YY=           -226.1153   ZZ=           -257.2623
   XY=             -3.8674   XZ=             -6.8085   YZ=             12.2522

 Normal termination of Gaussian 16 at Sun Jan 21 06:39:09 2018.
