 Gaussian 16, Revision A.03,
 Gaussian 16:  EM64L-G16RevA.03 25-Dec-2016

 ---------------------------------------
 #p wb97xd/cc-pvdz sp scf=(maxcycles=20)
 ---------------------------------------

 ------------------
 Base pair stacking
 ------------------
 Symbolic Z-matrix:
 Charge =  0 Multiplicity = 1

                         Standard orientation:
 ---------------------------------------------------------------------
 Center     Atomic      Atomic             Coordinates (Angstroms)
 Number     Number       Type             X           Y           Z
 ---------------------------------------------------------------------
      1          7           0        4.288730   -1.322016   -1.912502
      2          6           0        5.641990   -0.765487   -2.104726
      3          6           0        2.112968   -1.534193   -1.670940
      4          7           0        2.638428   -2.816073   -1.597452
      5          6           0        3.928218   -2.636935   -1.745924
      6          1           0        4.669698   -3.436395   -1.742030
      7          7           0        0.617236    0.289247   -1.699637
      8          6           0        1.688786    1.067024   -1.885177
      9          1           0        1.480781    2.132808   -1.969490
     10          7           0        2.972650    0.727529   -1.981765
     11          6           0        3.118093   -0.602737   -1.864953
     12          6           0        0.796802   -1.044887   -1.585903
     13          7           0       -0.271599   -1.822933   -1.400645
     14          1           0       -0.185685   -2.815824   -1.311165
     15          1           0       -1.193818   -1.440099   -1.345018
     16          1           0        6.049037   -1.153421   -2.931771
     17          1           0        5.584549    0.228129   -2.197168
     18          1           0        6.213236   -0.992701   -1.316029
     19          7           0        5.607556    1.508494    0.735718
     20          6           0        4.238015    1.536912    0.843538
     21          6           0        6.460027    2.660859    0.380704
     22          7           0        1.242455    3.285142    0.664501
     23          1           0        0.269275    3.096082    0.792601
     24          1           0        1.493769    4.220274    0.413339
     25          7           0        3.447354    2.613678    0.644880
     26          6           0        2.169568    2.328320    0.822208
     27          7           0        1.699941    1.084297    1.167685
     28          1           0        0.706034    0.957757    1.282145
     29          6           0        2.495217   -0.037988    1.377158
     30          8           0        1.970987   -1.115225    1.686162
     31          6           0        3.870455    0.252982    1.190268
     32          7           0        4.986770   -0.565031    1.297964
     33          6           0        5.991566    0.220799    1.020364
     34          1           0        7.037207   -0.088704    1.008856
     35          1           0        6.968938    2.456271   -0.454739
     36          1           0        5.885307    3.464357    0.231178
     37          1           0        7.101355    2.844920    1.124773
     38          1           0       -4.372451    0.829992    1.069051
     39          1           0       -4.242248    0.971349    2.820538
     40          1           0       -3.026750    1.718773    1.783567
     41          1           0       -3.239239   -3.697642    2.236519
     42          6           0       -2.752952   -2.728786    2.122172
     43          8           0       -0.561694   -3.632883    2.032244
     44          6           0       -1.327446   -2.669576    2.011418
     45          1           0        0.189249   -1.313624    1.789240
     46          7           0       -0.814412   -1.395924    1.870485
     47          8           0       -0.975333    0.862900    1.700146
     48          6           0       -1.519995   -0.219529    1.828001
     49          1           0       -4.554578   -1.589394    2.164140
     50          6           0       -3.468356   -1.598584    2.084133
     51          6           0       -3.685178    0.870926    1.900941
     52          7           0       -2.889297   -0.358998    1.941050
     53          1           0       -6.433884    3.885543   -1.524523
     54          1           0       -5.052050    3.864089   -0.657248
     55          1           0       -6.492746    3.741925    0.100076
     56          1           0       -3.741621   -3.022567   -1.215925
     57          1           0       -5.413186   -2.683367   -1.245967
     58          7           0       -4.474432   -2.342869   -1.182397
     59          6           0       -4.212568   -1.040091   -1.058456
     60          6           0       -4.778785    1.263796   -0.876125
     61          7           0       -3.508404    1.692332   -0.792943
     62          1           0       -1.608179    0.924370   -0.792416
     63          6           0       -2.664132    0.664472   -0.853099
     64          7           0       -2.924448   -0.641058   -0.977230
     65          1           0       -8.002845    1.483679   -0.972271
     66          6           0       -6.966547    1.144602   -0.964972
     67          7           0       -6.591434   -0.107455   -1.061641
     68          6           0       -5.206543   -0.045977   -1.006636
     69          6           0       -5.979573    3.497321   -0.722721
     70          7           0       -5.921182    2.028154   -0.849831
 ---------------------------------------------------------------------

 SCF Done:  E(RwB97XD) =  -2048.73715538     A.U. after   15 cycles

 The electronic state is 1-A.
 Alpha  occ. eigenvalues --  -19.25027 -19.21178 -19.20576 -14.52950 -14.51350
 Alpha  occ. eigenvalues --  -14.49280 -14.48893 -14.48484 -14.47021 -14.46696
 Alpha  occ. eigenvalues --  -14.46650 -14.45792 -14.45100 -14.44856 -14.43176
 Alpha  occ. eigenvalues --  -14.41934 -14.41568 -14.41311 -14.41100 -14.40873
 Alpha  occ. eigenvalues --  -10.44566 -10.41157 -10.40729 -10.39296 -10.38360
 Alpha  occ. eigenvalues --  -10.38257 -10.37704 -10.36961 -10.36387 -10.36006
 Alpha  occ. eigenvalues --  -10.34594 -10.34200 -10.33941 -10.33867 -10.33443
 Alpha  occ. eigenvalues --  -10.33434 -10.33364 -10.33328 -10.31399 -10.30518
 Alpha  occ. eigenvalues --  -10.30310 -10.28707 -10.28382  -1.18592  -1.15749
 Alpha  occ. eigenvalues --   -1.13267  -1.12203  -1.11168  -1.10932  -1.10099
 Alpha  occ. eigenvalues --   -1.08585  -1.08296  -1.05592  -1.05522  -1.01604
 Alpha  occ. eigenvalues --   -1.01415  -1.00994  -0.99714  -0.98653  -0.97662
 Alpha  occ. eigenvalues --   -0.96962  -0.96810  -0.93241  -0.90159  -0.88264
 Alpha  occ. eigenvalues --   -0.86327  -0.84491  -0.83912  -0.82908  -0.82472
 Alpha  occ. eigenvalues --   -0.82224  -0.78043  -0.77592  -0.75495  -0.74845
 Alpha  occ. eigenvalues --   -0.73661  -0.73152  -0.72502  -0.71366  -0.71026
 Alpha  occ. eigenvalues --   -0.67477  -0.67390  -0.66556  -0.65740  -0.64797
 Alpha  occ. eigenvalues --   -0.64461  -0.63318  -0.63037  -0.62623  -0.61890
 Alpha  occ. eigenvalues --   -0.61212  -0.60958  -0.60754  -0.59993  -0.58918
 Alpha  occ. eigenvalues --   -0.58759  -0.58356  -0.57559  -0.56828  -0.56062
 Alpha  occ. eigenvalues --   -0.55797  -0.55719  -0.55554  -0.54980  -0.54195
 Alpha  occ. eigenvalues --   -0.54050  -0.53978  -0.53367  -0.53125  -0.52937
 Alpha  occ. eigenvalues --   -0.51888  -0.51698  -0.51262  -0.50644  -0.50580
 Alpha  occ. eigenvalues --   -0.50271  -0.50172  -0.49746  -0.49207  -0.49056
 Alpha  occ. eigenvalues --   -0.48657  -0.48115  -0.47984  -0.47362  -0.47047
 Alpha  occ. eigenvalues --   -0.46989  -0.45707  -0.45366  -0.45210  -0.42526
 Alpha  occ. eigenvalues --   -0.41556  -0.41172  -0.38835  -0.38337  -0.38153
 Alpha  occ. eigenvalues --   -0.37985  -0.37274  -0.36821  -0.35419  -0.35161
 Alpha  occ. eigenvalues --   -0.34927  -0.34148  -0.33787  -0.33675  -0.33048
 Alpha  occ. eigenvalues --   -0.32576  -0.32356  -0.31913  -0.30928  -0.30837
 Alpha  occ. eigenvalues --   -0.30765  -0.30674  -0.26205  -0.25659
 Alpha virt. eigenvalues --    0.02841   0.04491   0.06001   0.07479   0.08700
 Alpha virt. eigenvalues --    0.09087   0.09680   0.10001   0.10816   0.12195
 Alpha virt. eigenvalues --    0.13339   0.13848   0.14253   0.14438   0.14680

 Mulliken charges:
               1
     1  N   -0.302707
     2  C    0.187888
     3  C    0.066137
     4  N   -0.257997
     5  C    0.152096
     6  H    0.029456
     7  N   -0.286303
     8  C    0.126926
     9  H    0.005379
    10  N   -0.271937
    11  C    0.232006
    12  C    0.076989
    13  N   -0.064124
    14  H    0.114381
    15  H    0.082966
    16  H    0.023230
    17  H    0.025360
    18  H    0.024826
    19  N   -0.304102
    20  C    0.266107
    21  C    0.183808
    22  N   -0.106884
    23  H    0.122209
    24  H    0.118201
    25  N   -0.292692
    26  C    0.196216
    27  N   -0.117772
    28  H    0.119048
    29  C    0.177174
    30  O   -0.318749
    31  C   -0.016628
    32  N   -0.222461
    33  C    0.096683
    34  H    0.025482
    35  H    0.021147
    36  H    0.032646
    37  H    0.025806
    38  H    0.054892
    39  H    0.048208
    40  H    0.077139
    41  H    0.022238
    42  C   -0.112288
    43  O   -0.267528
    44  C    0.172991
    45  H    0.133509
    46  N   -0.125009
    47  O   -0.346828
    48  C    0.337121
    49  H    0.044490
    50  C    0.167985
    51  C    0.058417
    52  N   -0.276222
    53  H    0.035356
    54  H    0.041181
    55  H    0.031131
    56  H    0.121004
    57  H    0.120383
    58  N   -0.059200
    59  C    0.088896
    60  C    0.197901
    61  N   -0.253688
    62  H    0.031525
    63  C    0.153700
    64  N   -0.301043
    65  H    0.041026
    66  C    0.139600
    67  N   -0.254577
    68  C    0.031906
    69  C    0.179961
    70  N   -0.303988
 Sum of Mulliken charges =  -0.00000

 Dipole moment (field-independent basis, Debye):
    X=             -6.9455    Y=              7.4938    Z=             -1.8058  Tot=             10.3758
 Quadrupole moment (field-independent basis, Debye-Ang):
   XX=           -154.4222   YY=           -228.4713   ZZ=           -253.1777
   XY=              3.0282   XZ=            -16.0844   YZ=             14.6304

 Normal termination of Gaussian 16 at Sun Jan 21 09:01:22 2018.
