 Gaussian 16, Revision A.03,
 Gaussian 16:  EM64L-G16RevA.03 25-Dec-2016

 ---------------------------------------
 #p wb97xd/cc-pvdz sp scf=(maxcycles=20)
 ---------------------------------------

 ------------------
 Base pair stacking
 ------------------
 Symbolic Z-matrix:
 Charge =  0 Multiplicity = 1

                         Standard orientation:
 ---------------------------------------------------------------------
 Center     Atomic      Atomic             Coordinates (Angstroms)
 Number     Number       Type             X           Y           Z
 ---------------------------------------------------------------------
      1          7           0       -7.166384   -1.105943    0.152260
      2          6           0       -8.496531   -0.466923    0.132928
      3          6           0       -5.013206   -1.481734    0.397089
      4          7           0       -5.561704   -2.663581   -0.079495
      5          6           0       -6.836958   -2.389875   -0.207914
      6          1           0       -7.589373   -3.094004   -0.564331
      7          7           0       -3.490939    0.139833    1.182041
      8          6           0       -4.536970    0.967625    1.272300
      9          1           0       -4.307935    1.968469    1.635783
     10          7           0       -5.817443    0.745771    0.982323
     11          6           0       -5.990096   -0.512536    0.544959
     12          6           0       -3.697516   -1.119439    0.738598
     13          7           0       -2.654608   -1.947236    0.647802
     14          1           0       -2.761019   -2.888214    0.324610
     15          1           0       -1.731860   -1.655216    0.899614
     16          1           0       -9.118486   -0.970466    0.732753
     17          1           0       -8.418326    0.477015    0.452284
     18          1           0       -8.857883   -0.472712   -0.799485
     19          7           0       -2.569999    2.120984   -1.615217
     20          6           0       -1.220498    2.032449   -1.372195
     21          6           0       -3.394395    3.331036   -1.423287
     22          7           0        1.753749    3.503077   -0.346085
     23          1           0        2.709904    3.233612   -0.234778
     24          1           0        1.518657    4.447530   -0.114861
     25          7           0       -0.427245    3.028001   -0.920868
     26          6           0        0.827694    2.637543   -0.785602
     27          7           0        1.273725    1.369606   -1.070027
     28          1           0        2.251131    1.160090   -0.936821
     29          6           0        0.475325    0.329517   -1.535484
     30          8           0        0.977376   -0.778427   -1.761629
     31          6           0       -0.875532    0.733814   -1.685799
     32          7           0       -1.986123    0.021399   -2.117035
     33          6           0       -2.965460    0.882616   -2.058718
     34          1           0       -3.999645    0.666129   -2.328683
     35          1           0       -4.114379    3.143475   -0.756023
     36          1           0       -2.817519    4.075227   -1.089125
     37          1           0       -3.807767    3.596254   -2.293686
     38          1           0        7.080555    0.578630    0.543459
     39          1           0        7.414466    0.790935   -1.173539
     40          1           0        6.034675    1.606398   -0.436942
     41          1           0        5.941845   -3.788943   -1.122125
     42          6           0        5.517938   -2.785553   -1.080494
     43          8           0        3.314322   -3.495844   -1.596862
     44          6           0        4.120454   -2.604951   -1.329937
     45          1           0        2.705554   -1.129214   -1.422615
     46          7           0        3.687241   -1.296683   -1.252413
     47          8           0        3.971151    0.932033   -0.921620
     48          6           0        4.446104   -0.189108   -0.967891
     49          1           0        7.351784   -1.808377   -0.603037
     50          6           0        6.283890   -1.724678   -0.800360
     51          6           0        6.634466    0.708424   -0.431334
     52          7           0        5.783900   -0.444576   -0.739311
     53          1           0        3.531589    2.974433    3.491016
     54          1           0        2.416916    3.266008    2.335783
     55          1           0        3.995728    3.155100    1.936880
     56          1           0        0.688185   -3.426135    1.038814
     57          1           0        2.310842   -3.268777    1.541143
     58          7           0        1.436193   -2.830322    1.331470
     59          6           0        1.275503   -1.509689    1.437745
     60          6           0        1.976126    0.715418    1.906506
     61          7           0        0.790256    1.276769    1.618368
     62          1           0       -1.080728    0.718524    0.995166
     63          6           0       -0.088380    0.347477    1.247809
     64          7           0        0.070627   -0.975710    1.140738
     65          1           0        5.075888    0.587951    2.816121
     66          6           0        4.061029    0.362633    2.487137
     67          7           0        3.615793   -0.839384    2.213997
     68          6           0        2.295045   -0.629931    1.844542
     69          6           0        3.279030    2.802689    2.538807
     70          7           0        3.121825    1.351315    2.322464
 ---------------------------------------------------------------------

 SCF Done:  E(RwB97XD) =  -2048.74149685     A.U. after   15 cycles

 The electronic state is 1-A.
 Alpha  occ. eigenvalues --  -19.26024 -19.22026 -19.20618 -14.52488 -14.51308
 Alpha  occ. eigenvalues --  -14.49614 -14.48609 -14.47860 -14.46955 -14.46661
 Alpha  occ. eigenvalues --  -14.46357 -14.44287 -14.42807 -14.42699 -14.42538
 Alpha  occ. eigenvalues --  -14.42287 -14.42040 -14.41822 -14.40972 -14.40734
 Alpha  occ. eigenvalues --  -10.45589 -10.41243 -10.40120 -10.38321 -10.38234
 Alpha  occ. eigenvalues --  -10.37725 -10.36891 -10.36206 -10.35778 -10.35695
 Alpha  occ. eigenvalues --  -10.34933 -10.34318 -10.34266 -10.34205 -10.33951
 Alpha  occ. eigenvalues --  -10.33345 -10.33193 -10.31639 -10.31257 -10.31020
 Alpha  occ. eigenvalues --  -10.30521 -10.29442 -10.28116  -1.19542  -1.13985
 Alpha  occ. eigenvalues --   -1.13219  -1.13044  -1.12222  -1.10518  -1.09384
 Alpha  occ. eigenvalues --   -1.08632  -1.07640  -1.05819  -1.03212  -1.02511
 Alpha  occ. eigenvalues --   -1.01213  -1.00003  -0.99690  -0.98496  -0.97762
 Alpha  occ. eigenvalues --   -0.96456  -0.95260  -0.93445  -0.91031  -0.86449
 Alpha  occ. eigenvalues --   -0.84947  -0.84763  -0.84063  -0.83882  -0.83097
 Alpha  occ. eigenvalues --   -0.82322  -0.78884  -0.75670  -0.74603  -0.73759
 Alpha  occ. eigenvalues --   -0.73697  -0.73406  -0.73323  -0.71906  -0.69074
 Alpha  occ. eigenvalues --   -0.67450  -0.67084  -0.66580  -0.65395  -0.64479
 Alpha  occ. eigenvalues --   -0.63747  -0.63517  -0.62913  -0.62677  -0.61830
 Alpha  occ. eigenvalues --   -0.60916  -0.59977  -0.59532  -0.59260  -0.58998
 Alpha  occ. eigenvalues --   -0.58420  -0.58318  -0.57209  -0.57170  -0.56660
 Alpha  occ. eigenvalues --   -0.56078  -0.56019  -0.54817  -0.54420  -0.54263
 Alpha  occ. eigenvalues --   -0.53613  -0.53545  -0.52895  -0.52745  -0.52695
 Alpha  occ. eigenvalues --   -0.52393  -0.52110  -0.51616  -0.51560  -0.50938
 Alpha  occ. eigenvalues --   -0.50104  -0.49816  -0.49483  -0.48841  -0.48694
 Alpha  occ. eigenvalues --   -0.48602  -0.48231  -0.47818  -0.47766  -0.47543
 Alpha  occ. eigenvalues --   -0.47369  -0.45825  -0.45241  -0.44027  -0.43007
 Alpha  occ. eigenvalues --   -0.42025  -0.39571  -0.39433  -0.38021  -0.37319
 Alpha  occ. eigenvalues --   -0.37238  -0.36615  -0.36146  -0.35619  -0.34720
 Alpha  occ. eigenvalues --   -0.34346  -0.34310  -0.33228  -0.33000  -0.32835
 Alpha  occ. eigenvalues --   -0.32577  -0.32157  -0.31970  -0.31859  -0.31708
 Alpha  occ. eigenvalues --   -0.31134  -0.28359  -0.26602  -0.25434
 Alpha virt. eigenvalues --    0.03178   0.05102   0.07120   0.08283   0.08408
 Alpha virt. eigenvalues --    0.09236   0.09689   0.10041   0.10959   0.12075
 Alpha virt. eigenvalues --    0.12737   0.13316   0.14432   0.14655   0.15227

 Mulliken charges:
               1
     1  N   -0.311055
     2  C    0.180614
     3  C    0.034780
     4  N   -0.257130
     5  C    0.133479
     6  H    0.029269
     7  N   -0.279347
     8  C    0.121494
     9  H    0.018675
    10  N   -0.288838
    11  C    0.234520
    12  C    0.107406
    13  N   -0.044555
    14  H    0.107672
    15  H    0.088776
    16  H    0.027621
    17  H    0.035502
    18  H    0.026459
    19  N   -0.301297
    20  C    0.231548
    21  C    0.182105
    22  N   -0.109545
    23  H    0.109194
    24  H    0.117805
    25  N   -0.292196
    26  C    0.225625
    27  N   -0.116850
    28  H    0.121085
    29  C    0.142580
    30  O   -0.321751
    31  C    0.002988
    32  N   -0.222932
    33  C    0.127403
    34  H    0.028952
    35  H    0.027294
    36  H    0.026896
    37  H    0.023229
    38  H    0.056462
    39  H    0.063398
    40  H    0.071125
    41  H    0.030853
    42  C   -0.106312
    43  O   -0.272041
    44  C    0.178190
    45  H    0.135557
    46  N   -0.133505
    47  O   -0.353351
    48  C    0.360578
    49  H    0.047009
    50  C    0.176552
    51  C    0.038027
    52  N   -0.293037
    53  H    0.033050
    54  H    0.035156
    55  H    0.020526
    56  H    0.119774
    57  H    0.119190
    58  N   -0.055667
    59  C    0.124553
    60  C    0.229849
    61  N   -0.259992
    62  H    0.053695
    63  C    0.144192
    64  N   -0.300470
    65  H    0.025584
    66  C    0.123747
    67  N   -0.258920
    68  C    0.013241
    69  C    0.168569
    70  N   -0.303054
 Sum of Mulliken charges =  -0.00000

 Dipole moment (field-independent basis, Debye):
    X=              6.1569    Y=              5.9503    Z=              3.1461  Tot=              9.1221
 Quadrupole moment (field-independent basis, Debye-Ang):
   XX=           -138.8194   YY=           -226.3760   ZZ=           -253.7074
   XY=             13.5215   XZ=             17.5441   YZ=             -7.2407

 Normal termination of Gaussian 16 at Sun Jan 21 04:51:25 2018.
