 Gaussian 16, Revision A.03,
 Gaussian 16:  EM64L-G16RevA.03 25-Dec-2016

 ---------------------------------------
 #p wb97xd/cc-pvdz sp scf=(maxcycles=20)
 ---------------------------------------

 ------------------
 Base pair stacking
 ------------------
 Symbolic Z-matrix:
 Charge =  0 Multiplicity = 1

                         Standard orientation:
 ---------------------------------------------------------------------
 Center     Atomic      Atomic             Coordinates (Angstroms)
 Number     Number       Type             X           Y           Z
 ---------------------------------------------------------------------
      1          7           0        4.321926   -1.190985   -1.847790
      2          6           0        5.682405   -0.623285   -1.917042
      3          6           0        2.138913   -1.418494   -1.706235
      4          7           0        2.657617   -2.701841   -1.799449
      5          6           0        3.952034   -2.513411   -1.881011
      6          1           0        4.690413   -3.311033   -1.967857
      7          7           0        0.650794    0.402059   -1.521710
      8          6           0        1.730212    1.189999   -1.561605
      9          1           0        1.528456    2.258530   -1.499979
     10          7           0        3.015383    0.857747   -1.665722
     11          6           0        3.152720   -0.476728   -1.734723
     12          6           0        0.822323   -0.936059   -1.593245
     13          7           0       -0.253949   -1.724246   -1.553569
     14          1           0       -0.174145   -2.720413   -1.603498
     15          1           0       -1.176219   -1.346073   -1.472634
     16          1           0        6.114197   -0.893013   -2.777843
     17          1           0        5.631152    0.373811   -1.869055
     18          1           0        6.227618   -0.964556   -1.151357
     19          7           0        5.583928    1.453191    0.737882
     20          6           0        4.212308    1.469994    0.817992
     21          6           0        6.431835    2.605276    0.371195
     22          7           0        1.203711    3.182003    0.536685
     23          1           0        0.230087    2.986021    0.650271
     24          1           0        1.450690    4.113227    0.267370
     25          7           0        3.415109    2.533249    0.577126
     26          6           0        2.136943    2.239064    0.736323
     27          7           0        1.672887    0.999103    1.103275
     28          1           0        0.678199    0.865075    1.201259
     29          6           0        2.474927   -0.109350    1.356163
     30          8           0        1.955354   -1.184043    1.681448
     31          6           0        3.850664    0.191241    1.189202
     32          7           0        4.972669   -0.612205    1.339126
     33          6           0        5.974956    0.176958    1.061925
     34          1           0        7.023629   -0.121819    1.078683
     35          1           0        6.959297    2.385472   -0.448724
     36          1           0        5.852268    3.398817    0.190487
     37          1           0        7.056342    2.814275    1.122942
     38          1           0       -4.393501    0.679224    0.891519
     39          1           0       -4.299647    0.865030    2.641181
     40          1           0       -3.071200    1.599303    1.610086
     41          1           0       -3.238920   -3.806227    2.193138
     42          6           0       -2.760081   -2.835470    2.064362
     43          8           0       -0.558601   -3.718651    2.040050
     44          6           0       -1.333316   -2.764167    1.980242
     45          1           0        0.173979   -1.398391    1.754342
     46          7           0       -0.830244   -1.489105    1.817857
     47          8           0       -1.010139    0.763045    1.588330
     48          6           0       -1.546472   -0.321525    1.732283
     49          1           0       -4.573407   -1.714214    2.042559
     50          6           0       -3.485778   -1.714060    1.984194
     51          6           0       -3.723392    0.747803    1.735500
     52          7           0       -2.916306   -0.472406    1.821792
     53          1           0       -6.390595    3.991445   -1.055344
     54          1           0       -5.037019    3.836422   -0.157616
     55          1           0       -6.501392    3.619133    0.529757
     56          1           0       -3.731953   -2.911108   -1.648589
     57          1           0       -5.400623   -2.558170   -1.681784
     58          7           0       -4.463257   -2.237414   -1.541479
     59          6           0       -4.201218   -0.967480   -1.225600
     60          6           0       -4.765422    1.291496   -0.735282
     61          7           0       -3.496924    1.694060   -0.552801
     62          1           0       -1.600193    0.919136   -0.602678
     63          6           0       -2.654524    0.678655   -0.732286
     64          7           0       -2.915023   -0.593985   -1.048691
     65          1           0       -7.984081    1.547701   -0.898830
     66          6           0       -6.949642    1.203026   -0.907759
     67          7           0       -6.575734   -0.025486   -1.169750
     68          6           0       -5.193094    0.016856   -1.063769
     69          6           0       -5.963197    3.489837   -0.303199
     70          7           0       -5.905582    2.053194   -0.635950
 ---------------------------------------------------------------------

 SCF Done:  E(RwB97XD) =  -2048.68607561     A.U. after   15 cycles

 The electronic state is 1-A.
 Alpha  occ. eigenvalues --  -19.24878 -19.21007 -19.20554 -14.53143 -14.51118
 Alpha  occ. eigenvalues --  -14.49311 -14.49045 -14.48588 -14.46925 -14.46577
 Alpha  occ. eigenvalues --  -14.46513 -14.45952 -14.45200 -14.44734 -14.43328
 Alpha  occ. eigenvalues --  -14.41789 -14.41583 -14.41255 -14.41128 -14.40813
 Alpha  occ. eigenvalues --  -10.44406 -10.41011 -10.40894 -10.39133 -10.38483
 Alpha  occ. eigenvalues --  -10.38229 -10.37774 -10.36759 -10.36283 -10.36103
 Alpha  occ. eigenvalues --  -10.34535 -10.34355 -10.33991 -10.33977 -10.33495
 Alpha  occ. eigenvalues --  -10.33490 -10.33211 -10.32234 -10.31466 -10.30559
 Alpha  occ. eigenvalues --  -10.30158 -10.28762 -10.28386  -1.18533  -1.15992
 Alpha  occ. eigenvalues --   -1.13346  -1.12052  -1.11258  -1.10970  -1.10324
 Alpha  occ. eigenvalues --   -1.08671  -1.08130  -1.05885  -1.05603  -1.01593
 Alpha  occ. eigenvalues --   -1.01446  -1.01125  -0.99737  -0.98657  -0.97945
 Alpha  occ. eigenvalues --   -0.97032  -0.96900  -0.93318  -0.89964  -0.88513
 Alpha  occ. eigenvalues --   -0.86493  -0.84602  -0.83998  -0.82932  -0.82356
 Alpha  occ. eigenvalues --   -0.82225  -0.77944  -0.77695  -0.75716  -0.74876
 Alpha  occ. eigenvalues --   -0.73765  -0.73245  -0.72397  -0.71539  -0.71277
 Alpha  occ. eigenvalues --   -0.67577  -0.67489  -0.66718  -0.65638  -0.64989
 Alpha  occ. eigenvalues --   -0.64467  -0.63473  -0.63200  -0.62620  -0.61947
 Alpha  occ. eigenvalues --   -0.61520  -0.61170  -0.60968  -0.60223  -0.58956
 Alpha  occ. eigenvalues --   -0.58680  -0.58344  -0.58016  -0.57095  -0.56269
 Alpha  occ. eigenvalues --   -0.56002  -0.55776  -0.55589  -0.55110  -0.54516
 Alpha  occ. eigenvalues --   -0.54322  -0.54072  -0.53544  -0.53062  -0.52775
 Alpha  occ. eigenvalues --   -0.51858  -0.51765  -0.50991  -0.50868  -0.50675
 Alpha  occ. eigenvalues --   -0.50272  -0.50006  -0.49761  -0.49300  -0.49110
 Alpha  occ. eigenvalues --   -0.48554  -0.48278  -0.47871  -0.47127  -0.46981
 Alpha  occ. eigenvalues --   -0.46898  -0.45355  -0.45073  -0.44832  -0.41957
 Alpha  occ. eigenvalues --   -0.41378  -0.41154  -0.38888  -0.38799  -0.38404
 Alpha  occ. eigenvalues --   -0.38229  -0.37205  -0.36239  -0.35345  -0.35193
 Alpha  occ. eigenvalues --   -0.34884  -0.34401  -0.33867  -0.33518  -0.33039
 Alpha  occ. eigenvalues --   -0.32516  -0.32258  -0.31854  -0.30944  -0.30812
 Alpha  occ. eigenvalues --   -0.30388  -0.30330  -0.26319  -0.25579
 Alpha virt. eigenvalues --    0.02786   0.04509   0.05769   0.06950   0.08667
 Alpha virt. eigenvalues --    0.08979   0.09485   0.09772   0.11244   0.12331
 Alpha virt. eigenvalues --    0.13265   0.13774   0.14305   0.14583   0.14645

 Mulliken charges:
               1
     1  N   -0.304160
     2  C    0.197164
     3  C    0.071133
     4  N   -0.260564
     5  C    0.149512
     6  H    0.029169
     7  N   -0.280148
     8  C    0.131692
     9  H    0.006393
    10  N   -0.268906
    11  C    0.228175
    12  C    0.072761
    13  N   -0.064233
    14  H    0.111669
    15  H    0.081987
    16  H    0.022183
    17  H    0.019544
    18  H    0.027493
    19  N   -0.298408
    20  C    0.261934
    21  C    0.184238
    22  N   -0.086593
    23  H    0.124294
    24  H    0.119195
    25  N   -0.263143
    26  C    0.121879
    27  N   -0.095574
    28  H    0.122056
    29  C    0.165739
    30  O   -0.317925
    31  C   -0.006501
    32  N   -0.218566
    33  C    0.083767
    34  H    0.024918
    35  H    0.018898
    36  H    0.033008
    37  H    0.026339
    38  H    0.042546
    39  H    0.036044
    40  H    0.080022
    41  H    0.023502
    42  C   -0.111348
    43  O   -0.267377
    44  C    0.175606
    45  H    0.133459
    46  N   -0.125880
    47  O   -0.345227
    48  C    0.332890
    49  H    0.044608
    50  C    0.167453
    51  C    0.074091
    52  N   -0.276767
    53  H    0.035994
    54  H    0.041165
    55  H    0.032240
    56  H    0.120721
    57  H    0.121540
    58  N   -0.061976
    59  C    0.096196
    60  C    0.213891
    61  N   -0.265352
    62  H    0.037156
    63  C    0.140445
    64  N   -0.297160
    65  H    0.041600
    66  C    0.138474
    67  N   -0.252390
    68  C    0.027210
    69  C    0.179948
    70  N   -0.303742
 Sum of Mulliken charges =  -0.00000

 Dipole moment (field-independent basis, Debye):
    X=             -6.9165    Y=              7.5189    Z=             -2.3808  Tot=             10.4900
 Quadrupole moment (field-independent basis, Debye-Ang):
   XX=           -153.9289   YY=           -230.6054   ZZ=           -253.7401
   XY=              4.1423   XZ=            -15.8060   YZ=             16.7980

 Normal termination of Gaussian 16 at Sun Jan 21 17:45:19 2018.
