 Gaussian 16, Revision A.03,
 Gaussian 16:  EM64L-G16RevA.03 25-Dec-2016

 ---------------------------------------
 #p wb97xd/cc-pvdz sp scf=(maxcycles=20)
 ---------------------------------------

 ------------------
 Base pair stacking
 ------------------
 Symbolic Z-matrix:
 Charge =  0 Multiplicity = 1

                         Standard orientation:
 ---------------------------------------------------------------------
 Center     Atomic      Atomic             Coordinates (Angstroms)
 Number     Number       Type             X           Y           Z
 ---------------------------------------------------------------------
      1          7           0       -6.934037   -1.201941    0.239929
      2          6           0       -8.278037   -0.605065    0.364026
      3          6           0       -4.767312   -1.557917    0.366051
      4          7           0       -5.302037   -2.650922   -0.300397
      5          6           0       -6.586009   -2.392708   -0.349701
      6          1           0       -7.331885   -3.042360   -0.808573
      7          7           0       -3.260924   -0.061038    1.392249
      8          6           0       -4.322238    0.709704    1.651333
      9          1           0       -4.105795    1.636166    2.181513
     10          7           0       -5.604758    0.508804    1.355223
     11          6           0       -5.761120   -0.656403    0.705391
     12          6           0       -3.451332   -1.227008    0.737011
     13          7           0       -2.393140   -1.997752    0.477472
     14          1           0       -2.487292   -2.869191   -0.005187
     15          1           0       -1.470699   -1.730541    0.756467
     16          1           0       -8.872491   -1.223089    0.878673
     17          1           0       -8.212267    0.269212    0.844059
     18          1           0       -8.663914   -0.455373   -0.546302
     19          7           0       -2.816150    2.301105   -1.540821
     20          6           0       -1.460918    2.200710   -1.337561
     21          6           0       -3.626405    3.513989   -1.310401
     22          7           0        1.551382    3.638850   -0.378617
     23          1           0        2.508449    3.361773   -0.298016
     24          1           0        1.329468    4.581819   -0.129044
     25          7           0       -0.648303    3.185293   -0.896736
     26          6           0        0.607253    2.784995   -0.802225
     27          7           0        1.036277    1.517857   -1.115012
     28          1           0        2.015611    1.300309   -1.012389
     29          6           0        0.217817    0.488958   -1.570372
     30          8           0        0.705595   -0.619293   -1.824508
     31          6           0       -1.133964    0.903920   -1.677012
     32          7           0       -2.261251    0.204253   -2.085167
     33          6           0       -3.232591    1.071041   -1.988211
     34          1           0       -4.275511    0.864724   -2.231189
     35          1           0       -4.328373    3.322726   -0.625229
     36          1           0       -3.035148    4.250127   -0.983625
     37          1           0       -4.062565    3.792858   -2.165268
     38          1           0        6.881118    0.668738    0.322022
     39          1           0        7.167454    0.900514   -1.401031
     40          1           0        5.814843    1.715594   -0.615258
     41          1           0        5.665437   -3.669955   -1.364520
     42          6           0        5.249800   -2.664423   -1.298335
     43          8           0        3.027531   -3.353763   -1.760342
     44          6           0        3.847043   -2.471575   -1.505493
     45          1           0        2.440266   -0.985593   -1.539380
     46          7           0        3.425225   -1.161599   -1.399377
     47          8           0        3.733774    1.060871   -1.049148
     48          6           0        4.199476   -0.062670   -1.122893
     49          1           0        7.103174   -1.705327   -0.861334
     50          6           0        6.030691   -1.612174   -1.027021
     51          6           0        6.408366    0.813738   -0.637943
     52          7           0        5.541452   -0.329725   -0.935809
     53          1           0        3.756219    2.505457    4.010478
     54          1           0        2.604968    2.967176    2.950508
     55          1           0        4.174656    2.970474    2.503124
     56          1           0        0.990794   -3.433372    0.525045
     57          1           0        2.622375   -3.324421    1.010990
     58          7           0        1.732957   -2.879129    0.902062
     59          6           0        1.545976   -1.602862    1.244638
     60          6           0        2.209442    0.521985    2.085212
     61          7           0        1.004177    1.093827    1.927833
     62          1           0       -0.869946    0.605266    1.257332
     63          6           0        0.136755    0.221806    1.417890
     64          7           0        0.322091   -1.056885    1.074104
     65          1           0        5.334403    0.317810    2.888366
     66          6           0        4.316371    0.127426    2.547328
     67          7           0        3.890720   -1.018675    2.075142
     68          6           0        2.556284   -0.782244    1.778306
     69          6           0        3.482226    2.498258    3.048776
     70          7           0        3.351465    1.104402    2.581777
 ---------------------------------------------------------------------

 SCF Done:  E(RwB97XD) =  -2048.74896920     A.U. after   15 cycles

 The electronic state is 1-A.
 Alpha  occ. eigenvalues --  -19.26062 -19.22226 -19.20708 -14.52517 -14.51295
 Alpha  occ. eigenvalues --  -14.49317 -14.48691 -14.48001 -14.46955 -14.46916
 Alpha  occ. eigenvalues --  -14.46128 -14.44332 -14.42710 -14.42630 -14.42408
 Alpha  occ. eigenvalues --  -14.42123 -14.41959 -14.41442 -14.40803 -14.40593
 Alpha  occ. eigenvalues --  -10.45638 -10.41323 -10.40295 -10.38323 -10.38226
 Alpha  occ. eigenvalues --  -10.37791 -10.36912 -10.35819 -10.35800 -10.35646
 Alpha  occ. eigenvalues --  -10.34609 -10.34397 -10.34291 -10.33910 -10.33574
 Alpha  occ. eigenvalues --  -10.33239 -10.33228 -10.31442 -10.31227 -10.31069
 Alpha  occ. eigenvalues --  -10.30636 -10.29063 -10.28167  -1.19586  -1.13958
 Alpha  occ. eigenvalues --   -1.13299  -1.13252  -1.11901  -1.10586  -1.09420
 Alpha  occ. eigenvalues --   -1.08673  -1.07579  -1.05435  -1.03134  -1.02644
 Alpha  occ. eigenvalues --   -1.00830  -0.99922  -0.99718  -0.98593  -0.97444
 Alpha  occ. eigenvalues --   -0.96527  -0.95196  -0.93061  -0.91077  -0.86384
 Alpha  occ. eigenvalues --   -0.84856  -0.84452  -0.84103  -0.83889  -0.82803
 Alpha  occ. eigenvalues --   -0.82395  -0.78947  -0.75618  -0.74640  -0.73770
 Alpha  occ. eigenvalues --   -0.73486  -0.73362  -0.73326  -0.71534  -0.68981
 Alpha  occ. eigenvalues --   -0.67475  -0.66740  -0.66654  -0.65318  -0.64553
 Alpha  occ. eigenvalues --   -0.63808  -0.63184  -0.62755  -0.62735  -0.61831
 Alpha  occ. eigenvalues --   -0.60586  -0.59986  -0.59596  -0.59162  -0.58679
 Alpha  occ. eigenvalues --   -0.58490  -0.58240  -0.56939  -0.56897  -0.56535
 Alpha  occ. eigenvalues --   -0.56116  -0.55724  -0.54535  -0.54488  -0.54190
 Alpha  occ. eigenvalues --   -0.53692  -0.53543  -0.52961  -0.52706  -0.52645
 Alpha  occ. eigenvalues --   -0.52280  -0.52142  -0.51558  -0.51275  -0.50632
 Alpha  occ. eigenvalues --   -0.50214  -0.49583  -0.49511  -0.49001  -0.48828
 Alpha  occ. eigenvalues --   -0.48520  -0.48307  -0.47781  -0.47676  -0.47459
 Alpha  occ. eigenvalues --   -0.47418  -0.45491  -0.45275  -0.44083  -0.43207
 Alpha  occ. eigenvalues --   -0.41670  -0.39610  -0.39460  -0.37664  -0.37346
 Alpha  occ. eigenvalues --   -0.37263  -0.36652  -0.36206  -0.35686  -0.34501
 Alpha  occ. eigenvalues --   -0.34027  -0.33989  -0.33410  -0.33131  -0.32810
 Alpha  occ. eigenvalues --   -0.32632  -0.32321  -0.32088  -0.31903  -0.31460
 Alpha  occ. eigenvalues --   -0.30800  -0.28294  -0.26256  -0.25498
 Alpha virt. eigenvalues --    0.03033   0.05173   0.07517   0.08280   0.08571
 Alpha virt. eigenvalues --    0.09176   0.09641   0.10453   0.10902   0.11906
 Alpha virt. eigenvalues --    0.12805   0.13609   0.14491   0.14604   0.15749

 Mulliken charges:
               1
     1  N   -0.310893
     2  C    0.180587
     3  C    0.037666
     4  N   -0.256006
     5  C    0.131472
     6  H    0.027872
     7  N   -0.283789
     8  C    0.128288
     9  H    0.014536
    10  N   -0.290458
    11  C    0.231607
    12  C    0.109716
    13  N   -0.044209
    14  H    0.108678
    15  H    0.089017
    16  H    0.027197
    17  H    0.034915
    18  H    0.025170
    19  N   -0.306745
    20  C    0.246209
    21  C    0.180172
    22  N   -0.118807
    23  H    0.111716
    24  H    0.117273
    25  N   -0.303704
    26  C    0.240417
    27  N   -0.128642
    28  H    0.117647
    29  C    0.155681
    30  O   -0.322203
    31  C    0.001428
    32  N   -0.224560
    33  C    0.127627
    34  H    0.028519
    35  H    0.032338
    36  H    0.027411
    37  H    0.023071
    38  H    0.055035
    39  H    0.062895
    40  H    0.071944
    41  H    0.029722
    42  C   -0.101644
    43  O   -0.278191
    44  C    0.166165
    45  H    0.138172
    46  N   -0.129895
    47  O   -0.351729
    48  C    0.356016
    49  H    0.047238
    50  C    0.181429
    51  C    0.039576
    52  N   -0.289460
    53  H    0.032332
    54  H    0.039287
    55  H    0.019694
    56  H    0.122506
    57  H    0.118242
    58  N   -0.042201
    59  C    0.108533
    60  C    0.239570
    61  N   -0.268610
    62  H    0.043056
    63  C    0.156891
    64  N   -0.300846
    65  H    0.027376
    66  C    0.123267
    67  N   -0.258681
    68  C    0.006941
    69  C    0.178261
    70  N   -0.309104
 Sum of Mulliken charges =  -0.00000

 Dipole moment (field-independent basis, Debye):
    X=              6.6701    Y=              6.0930    Z=              2.7292  Tot=              9.4373
 Quadrupole moment (field-independent basis, Debye-Ang):
   XX=           -140.8945   YY=           -225.0329   ZZ=           -253.2265
   XY=             10.3428   XZ=             15.9543   YZ=             -4.3212

 Normal termination of Gaussian 16 at Sun Jan 21 08:25:59 2018.
