 Gaussian 16, Revision A.03,
 Gaussian 16:  EM64L-G16RevA.03 25-Dec-2016

 ---------------------------------------
 #p wb97xd/cc-pvdz sp scf=(maxcycles=20)
 ---------------------------------------

 ------------------
 Base pair stacking
 ------------------
 Symbolic Z-matrix:
 Charge =  0 Multiplicity = 1

                         Standard orientation:
 ---------------------------------------------------------------------
 Center     Atomic      Atomic             Coordinates (Angstroms)
 Number     Number       Type             X           Y           Z
 ---------------------------------------------------------------------
      1          7           0        4.560510   -1.685425   -1.751531
      2          6           0        5.903443   -1.201107   -2.125654
      3          6           0        2.392055   -1.831053   -1.413981
      4          7           0        2.933906   -3.032218   -0.980015
      5          6           0        4.218631   -2.896412   -1.200745
      6          1           0        4.969483   -3.655254   -0.978693
      7          7           0        0.874557   -0.104840   -1.943412
      8          6           0        1.933332    0.591290   -2.370001
      9          1           0        1.711251    1.584586   -2.757690
     10          7           0        3.219201    0.246262   -2.389497
     11          6           0        3.382462   -0.990849   -1.892186
     12          6           0        1.071913   -1.346333   -1.448623
     13          7           0        0.016274   -2.042782   -1.022297
     14          1           0        0.115543   -2.965613   -0.648461
     15          1           0       -0.909276   -1.666065   -1.062027
     16          1           0        6.300257   -1.811332   -2.811461
     17          1           0        5.832584   -0.278282   -2.503120
     18          1           0        6.491295   -1.184366   -1.316860
     19          7           0        5.342994    1.726613    0.762708
     20          6           0        3.973802    1.772774    0.868709
     21          6           0        6.206231    2.853644    0.356111
     22          7           0        0.994795    3.539183    0.609738
     23          1           0        0.019892    3.365277    0.745977
     24          1           0        1.254866    4.459575    0.316533
     25          7           0        3.193272    2.846821    0.621226
     26          6           0        1.912888    2.581820    0.810918
     27          7           0        1.431615    1.359189    1.212260
     28          1           0        0.436579    1.247324    1.332031
     29          6           0        2.216320    0.240125    1.472610
     30          8           0        1.682009   -0.817029    1.829949
     31          6           0        3.594211    0.509386    1.273142
     32          7           0        4.702792   -0.313371    1.418130
     33          6           0        5.714910    0.449587    1.105526
     34          1           0        6.757584    0.130059    1.108377
     35          1           0        6.713090    2.606636   -0.469048
     36          1           0        5.639069    3.654911    0.170159
     37          1           0        6.849343    3.065192    1.091262
     38          1           0       -4.642915    1.157797    1.123391
     39          1           0       -4.511174    1.377145    2.866715
     40          1           0       -3.288826    2.065346    1.797325
     41          1           0       -3.552206   -3.322736    2.495148
     42          6           0       -3.056841   -2.364676    2.337174
     43          8           0       -0.874190   -3.292498    2.288968
     44          6           0       -1.630854   -2.323952    2.224290
     45          1           0       -0.101489   -0.993792    1.941360
     46          7           0       -1.105879   -1.062877    2.025951
     47          8           0       -1.245561    1.187322    1.753392
     48          6           0       -1.800375    0.116964    1.929983
     49          1           0       -4.847659   -1.207663    2.326921
     50          6           0       -3.761589   -1.230683    2.247746
     51          6           0       -3.955186    1.229924    1.952789
     52          7           0       -3.170908   -0.004347    2.048817
     53          1           0       -6.214457    3.342307   -2.681986
     54          1           0       -4.817229    3.583763   -1.874787
     55          1           0       -6.242661    3.679476   -1.085446
     56          1           0       -3.435437   -3.157270   -0.424094
     57          1           0       -5.111177   -2.851910   -0.517632
     58          7           0       -4.175551   -2.501961   -0.575569
     59          6           0       -3.926967   -1.218270   -0.842994
     60          6           0       -4.517112    1.034777   -1.330071
     61          7           0       -3.250622    1.476688   -1.401761
     62          1           0       -1.341721    0.754068   -1.215876
     63          6           0       -2.395433    0.481334   -1.176320
     64          7           0       -2.642430   -0.805034   -0.908308
     65          1           0       -7.744749    1.197195   -1.420134
     66          6           0       -6.704543    0.881416   -1.335355
     67          7           0       -6.316407   -0.341887   -1.069722
     68          6           0       -4.931579   -0.258535   -1.063467
     69          6           0       -5.741365    3.208189   -1.811234
     70          7           0       -5.667838    1.766428   -1.504797
 ---------------------------------------------------------------------

 SCF Done:  E(RwB97XD) =  -2048.74950787     A.U. after   15 cycles

 The electronic state is 1-A.
 Alpha  occ. eigenvalues --  -19.25424 -19.21654 -19.20670 -14.52694 -14.51932
 Alpha  occ. eigenvalues --  -14.49210 -14.48396 -14.48228 -14.47348 -14.46909
 Alpha  occ. eigenvalues --  -14.46755 -14.45602 -14.44718 -14.44666 -14.42550
 Alpha  occ. eigenvalues --  -14.42125 -14.41484 -14.40957 -14.40757 -14.40483
 Alpha  occ. eigenvalues --  -10.44993 -10.41346 -10.40284 -10.39742 -10.38346
 Alpha  occ. eigenvalues --  -10.38168 -10.37516 -10.37344 -10.36188 -10.35531
 Alpha  occ. eigenvalues --  -10.34653 -10.34502 -10.34011 -10.33877 -10.33549
 Alpha  occ. eigenvalues --  -10.33114 -10.33111 -10.33016 -10.31300 -10.30615
 Alpha  occ. eigenvalues --  -10.30603 -10.28416 -10.28314  -1.18969  -1.15465
 Alpha  occ. eigenvalues --   -1.13335  -1.12658  -1.10914  -1.10860  -1.09704
 Alpha  occ. eigenvalues --   -1.08812  -1.08643  -1.05161  -1.05081  -1.01999
 Alpha  occ. eigenvalues --   -1.01175  -1.00497  -0.99838  -0.98731  -0.97240
 Alpha  occ. eigenvalues --   -0.96949  -0.96520  -0.92797  -0.90598  -0.87920
 Alpha  occ. eigenvalues --   -0.86088  -0.84456  -0.83626  -0.83111  -0.82816
 Alpha  occ. eigenvalues --   -0.82026  -0.78447  -0.77305  -0.75138  -0.74886
 Alpha  occ. eigenvalues --   -0.73762  -0.72903  -0.72754  -0.70957  -0.70663
 Alpha  occ. eigenvalues --   -0.67566  -0.67076  -0.66172  -0.66115  -0.64542
 Alpha  occ. eigenvalues --   -0.64451  -0.63618  -0.62750  -0.62624  -0.61968
 Alpha  occ. eigenvalues --   -0.60860  -0.60627  -0.60419  -0.59615  -0.59141
 Alpha  occ. eigenvalues --   -0.58972  -0.58485  -0.57145  -0.56457  -0.55841
 Alpha  occ. eigenvalues --   -0.55791  -0.55604  -0.55366  -0.54530  -0.54197
 Alpha  occ. eigenvalues --   -0.53842  -0.53734  -0.53516  -0.53145  -0.53060
 Alpha  occ. eigenvalues --   -0.52654  -0.51917  -0.51496  -0.50524  -0.50332
 Alpha  occ. eigenvalues --   -0.50281  -0.49947  -0.49518  -0.49232  -0.48946
 Alpha  occ. eigenvalues --   -0.48771  -0.48348  -0.48130  -0.48012  -0.47251
 Alpha  occ. eigenvalues --   -0.46780  -0.45818  -0.45657  -0.44792  -0.42740
 Alpha  occ. eigenvalues --   -0.41147  -0.40945  -0.39112  -0.38169  -0.37864
 Alpha  occ. eigenvalues --   -0.37539  -0.37422  -0.36920  -0.35644  -0.35053
 Alpha  occ. eigenvalues --   -0.34640  -0.34153  -0.33343  -0.33314  -0.33054
 Alpha  occ. eigenvalues --   -0.32761  -0.32683  -0.32013  -0.31602  -0.30649
 Alpha  occ. eigenvalues --   -0.30414  -0.30103  -0.25863  -0.25643
 Alpha virt. eigenvalues --    0.02899   0.04084   0.06545   0.08030   0.08778
 Alpha virt. eigenvalues --    0.09064   0.09652   0.10317   0.11017   0.12060
 Alpha virt. eigenvalues --    0.13134   0.13782   0.14223   0.14641   0.14803

 Mulliken charges:
               1
     1  N   -0.304657
     2  C    0.182691
     3  C    0.056419
     4  N   -0.254542
     5  C    0.150910
     6  H    0.027070
     7  N   -0.293679
     8  C    0.126877
     9  H    0.010019
    10  N   -0.281493
    11  C    0.241789
    12  C    0.083114
    13  N   -0.061818
    14  H    0.116925
    15  H    0.086130
    16  H    0.024713
    17  H    0.029324
    18  H    0.019405
    19  N   -0.309426
    20  C    0.265326
    21  C    0.182915
    22  N   -0.123574
    23  H    0.120028
    24  H    0.118672
    25  N   -0.310564
    26  C    0.245358
    27  N   -0.140307
    28  H    0.120572
    29  C    0.189386
    30  O   -0.320021
    31  C   -0.018156
    32  N   -0.224218
    33  C    0.110421
    34  H    0.024986
    35  H    0.024515
    36  H    0.031833
    37  H    0.025060
    38  H    0.063408
    39  H    0.057050
    40  H    0.075689
    41  H    0.019964
    42  C   -0.112132
    43  O   -0.270177
    44  C    0.170115
    45  H    0.131725
    46  N   -0.122648
    47  O   -0.350166
    48  C    0.346185
    49  H    0.044241
    50  C    0.166574
    51  C    0.042832
    52  N   -0.275462
    53  H    0.034859
    54  H    0.041767
    55  H    0.028859
    56  H    0.124255
    57  H    0.116632
    58  N   -0.052216
    59  C    0.086421
    60  C    0.215268
    61  N   -0.260662
    62  H    0.030349
    63  C    0.169903
    64  N   -0.310793
    65  H    0.039140
    66  C    0.134957
    67  N   -0.255287
    68  C    0.020526
    69  C    0.180574
    70  N   -0.303752
 Sum of Mulliken charges =  -0.00000

 Dipole moment (field-independent basis, Debye):
    X=             -6.8183    Y=              7.5004    Z=             -1.6212  Tot=             10.2652
 Quadrupole moment (field-independent basis, Debye-Ang):
   XX=           -153.3046   YY=           -224.5883   ZZ=           -254.5252
   XY=             -1.5835   XZ=            -12.6938   YZ=              8.6141

 Normal termination of Gaussian 16 at Sun Jan 21 21:41:18 2018.
