 Gaussian 16, Revision A.03,
 Gaussian 16:  EM64L-G16RevA.03 25-Dec-2016

 ---------------------------------------
 #p wb97xd/cc-pvdz sp scf=(maxcycles=20)
 ---------------------------------------

 ------------------
 Base pair stacking
 ------------------
 Symbolic Z-matrix:
 Charge =  0 Multiplicity = 1

                         Standard orientation:
 ---------------------------------------------------------------------
 Center     Atomic      Atomic             Coordinates (Angstroms)
 Number     Number       Type             X           Y           Z
 ---------------------------------------------------------------------
      1          7           0       -5.198379   -2.110794    0.950997
      2          6           0       -6.541164   -1.809046    1.483802
      3          6           0       -3.024888   -2.152022    0.617050
      4          7           0       -3.578298   -3.009038   -0.323151
      5          6           0       -4.865604   -2.949899   -0.084327
      6          1           0       -5.624946   -3.502786   -0.638091
      7          7           0       -1.488609   -0.899666    1.895497
      8          6           0       -2.544655   -0.441505    2.575533
      9          1           0       -2.313653    0.260855    3.375284
     10          7           0       -3.837120   -0.719383    2.416742
     11          6           0       -4.011150   -1.590970    1.409536
     12          6           0       -1.696890   -1.775281    0.888024
     13          7           0       -0.644000   -2.233761    0.208035
     14          1           0       -0.751236   -2.883283   -0.545511
     15          1           0        0.287369   -1.943778    0.428507
     16          1           0       -6.968296   -2.651808    1.811667
     17          1           0       -6.462418   -1.160309    2.240153
     18          1           0       -7.106499   -1.409843    0.761982
     19          7           0       -4.720181    2.255359   -0.534400
     20          6           0       -3.347153    2.286240   -0.578096
     21          6           0       -5.578369    3.290651    0.075830
     22          7           0       -0.349075    3.873321    0.166492
     23          1           0        0.627220    3.706672    0.031172
     24          1           0       -0.603885    4.715142    0.643079
     25          7           0       -2.557695    3.259704   -0.074947
     26          6           0       -1.275705    3.007437   -0.271117
     27          7           0       -0.801086    1.888070   -0.910854
     28          1           0        0.195798    1.777845   -1.015897
     29          6           0       -1.595028    0.873560   -1.436490
     30          8           0       -1.066166   -0.095272   -1.995407
     31          6           0       -2.974740    1.130524   -1.233399
     32          7           0       -4.091488    0.388995   -1.593854
     33          6           0       -5.101292    1.093366   -1.159834
     34          1           0       -6.148723    0.810418   -1.269881
     35          1           0       -6.123385    2.884735    0.808630
     36          1           0       -5.004593    4.017004    0.451927
     37          1           0       -6.186542    3.673650   -0.618616
     38          1           0        5.259801    1.507646   -0.647565
     39          1           0        5.204266    2.102587   -2.305153
     40          1           0        3.951803    2.575909   -1.156812
     41          1           0        4.143582   -2.538547   -2.998941
     42          6           0        3.660009   -1.624320   -2.654609
     43          8           0        1.460363   -2.481067   -2.888418
     44          6           0        2.231578   -1.570354   -2.587381
     45          1           0        0.716829   -0.292009   -2.077803
     46          7           0        1.722401   -0.368342   -2.138890
     47          8           0        1.892498    1.764894   -1.378913
     48          6           0        2.434133    0.743491   -1.763663
     49          1           0        5.470074   -0.545924   -2.328182
     50          6           0        4.381418   -0.556087   -2.295351
     51          6           0        4.608371    1.776183   -1.465855
     52          7           0        3.805919    0.613672   -1.856227
     53          1           0        5.644209    1.624854    4.226151
     54          1           0        4.274337    2.247606    3.595504
     55          1           0        5.722195    2.648372    2.957394
     56          1           0        2.800056   -3.058023   -0.778549
     57          1           0        4.478328   -2.878342   -0.531147
     58          7           0        3.548537   -2.565026   -0.334838
     59          6           0        3.318099   -1.535436    0.482483
     60          6           0        3.939017    0.233028    1.948337
     61          7           0        2.679980    0.631869    2.193633
     62          1           0        0.762976    0.129350    1.670975
     63          6           0        1.811805   -0.127053    1.527890
     64          7           0        2.040628   -1.158705    0.708800
     65          1           0        7.165611    0.240726    2.151276
     66          6           0        6.122067    0.028872    1.916580
     67          7           0        5.717282   -0.928774    1.118622
     68          6           0        4.335043   -0.810455    1.129895
     69          6           0        5.192296    1.914353    3.382374
     70          7           0        5.098751    0.771241    2.453640
 ---------------------------------------------------------------------

 SCF Done:  E(RwB97XD) =  -2048.73287047     A.U. after   15 cycles

 The electronic state is 1-A.
 Alpha  occ. eigenvalues --  -19.25820 -19.22772 -19.20837 -14.52321 -14.52279
 Alpha  occ. eigenvalues --  -14.49090 -14.48190 -14.47965 -14.47657 -14.47120
 Alpha  occ. eigenvalues --  -14.46916 -14.45348 -14.44116 -14.44056 -14.42247
 Alpha  occ. eigenvalues --  -14.41792 -14.41264 -14.40633 -14.40597 -14.39999
 Alpha  occ. eigenvalues --  -10.45383 -10.41489 -10.40591 -10.39615 -10.38465
 Alpha  occ. eigenvalues --  -10.37823 -10.37126 -10.36994 -10.35572 -10.35063
 Alpha  occ. eigenvalues --  -10.35019 -10.34643 -10.33710 -10.33705 -10.33425
 Alpha  occ. eigenvalues --  -10.32871 -10.32772 -10.32524 -10.31267 -10.31173
 Alpha  occ. eigenvalues --  -10.30741 -10.28404 -10.28000  -1.19397  -1.15030
 Alpha  occ. eigenvalues --   -1.13687  -1.13440  -1.10880  -1.10735  -1.09395
 Alpha  occ. eigenvalues --   -1.09023  -1.08800  -1.04716  -1.04641  -1.02664
 Alpha  occ. eigenvalues --   -1.00840  -1.00023  -0.99973  -0.98797  -0.96889
 Alpha  occ. eigenvalues --   -0.96753  -0.96338  -0.92335  -0.91049  -0.87444
 Alpha  occ. eigenvalues --   -0.85725  -0.84407  -0.83579  -0.83476  -0.82777
 Alpha  occ. eigenvalues --   -0.81904  -0.78910  -0.76873  -0.74908  -0.74659
 Alpha  occ. eigenvalues --   -0.73887  -0.73487  -0.72448  -0.70635  -0.70255
 Alpha  occ. eigenvalues --   -0.67656  -0.66928  -0.66341  -0.65843  -0.64811
 Alpha  occ. eigenvalues --   -0.64241  -0.63734  -0.62867  -0.62273  -0.62036
 Alpha  occ. eigenvalues --   -0.60619  -0.60265  -0.60110  -0.59352  -0.59229
 Alpha  occ. eigenvalues --   -0.59050  -0.58618  -0.56921  -0.56183  -0.56094
 Alpha  occ. eigenvalues --   -0.55975  -0.55206  -0.54950  -0.54456  -0.54189
 Alpha  occ. eigenvalues --   -0.53906  -0.53748  -0.53499  -0.53413  -0.53235
 Alpha  occ. eigenvalues --   -0.52598  -0.52470  -0.51393  -0.50491  -0.50386
 Alpha  occ. eigenvalues --   -0.49961  -0.49701  -0.49637  -0.49431  -0.49174
 Alpha  occ. eigenvalues --   -0.48726  -0.48552  -0.48167  -0.47943  -0.47591
 Alpha  occ. eigenvalues --   -0.46551  -0.46015  -0.45432  -0.44471  -0.42911
 Alpha  occ. eigenvalues --   -0.40676  -0.40526  -0.39460  -0.38056  -0.37549
 Alpha  occ. eigenvalues --   -0.37496  -0.37351  -0.36668  -0.36210  -0.34475
 Alpha  occ. eigenvalues --   -0.34316  -0.33955  -0.33854  -0.33111  -0.33012
 Alpha  occ. eigenvalues --   -0.32919  -0.32616  -0.32543  -0.32072  -0.30480
 Alpha  occ. eigenvalues --   -0.30077  -0.28596  -0.25903  -0.25148
 Alpha virt. eigenvalues --    0.02776   0.04377   0.07261   0.08135   0.08474
 Alpha virt. eigenvalues --    0.09114   0.09482   0.10551   0.11408   0.12038
 Alpha virt. eigenvalues --    0.13011   0.13799   0.14334   0.14634   0.15316

 Mulliken charges:
               1
     1  N   -0.309539
     2  C    0.180733
     3  C    0.057395
     4  N   -0.251251
     5  C    0.140636
     6  H    0.024375
     7  N   -0.297745
     8  C    0.132826
     9  H    0.009581
    10  N   -0.289954
    11  C    0.241214
    12  C    0.092246
    13  N   -0.048458
    14  H    0.116958
    15  H    0.083836
    16  H    0.025045
    17  H    0.031533
    18  H    0.019517
    19  N   -0.310062
    20  C    0.259274
    21  C    0.181608
    22  N   -0.124094
    23  H    0.117728
    24  H    0.119031
    25  N   -0.312108
    26  C    0.250035
    27  N   -0.150325
    28  H    0.119870
    29  C    0.196233
    30  O   -0.322370
    31  C   -0.016583
    32  N   -0.221277
    33  C    0.122420
    34  H    0.021059
    35  H    0.028011
    36  H    0.030420
    37  H    0.024478
    38  H    0.059991
    39  H    0.059818
    40  H    0.073887
    41  H    0.021842
    42  C   -0.113210
    43  O   -0.272344
    44  C    0.155535
    45  H    0.129678
    46  N   -0.104680
    47  O   -0.347972
    48  C    0.338843
    49  H    0.044169
    50  C    0.170429
    51  C    0.042029
    52  N   -0.276537
    53  H    0.033894
    54  H    0.042338
    55  H    0.026456
    56  H    0.123453
    57  H    0.113139
    58  N   -0.038438
    59  C    0.077994
    60  C    0.239435
    61  N   -0.271158
    62  H    0.033843
    63  C    0.167859
    64  N   -0.307277
    65  H    0.036145
    66  C    0.128354
    67  N   -0.261705
    68  C    0.028433
    69  C    0.181246
    70  N   -0.307789
 Sum of Mulliken charges =  -0.00000

 Dipole moment (field-independent basis, Debye):
    X=              6.7939    Y=              6.9153    Z=              2.9932  Tot=             10.1458
 Quadrupole moment (field-independent basis, Debye-Ang):
   XX=           -150.9530   YY=           -223.5891   ZZ=           -253.7319
   XY=              5.2916   XZ=             -2.7829   YZ=              3.1726

 Normal termination of Gaussian 16 at Sun Jan 21 15:45:38 2018.
