 Gaussian 16, Revision A.03,
 Gaussian 16:  EM64L-G16RevA.03 25-Dec-2016

 ---------------------------------------
 #p wb97xd/cc-pvdz sp scf=(maxcycles=20)
 ---------------------------------------

 ------------------
 Base pair stacking
 ------------------
 Symbolic Z-matrix:
 Charge =  0 Multiplicity = 1

                         Standard orientation:
 ---------------------------------------------------------------------
 Center     Atomic      Atomic             Coordinates (Angstroms)
 Number     Number       Type             X           Y           Z
 ---------------------------------------------------------------------
      1          7           0       -5.194847   -1.965338    1.131734
      2          6           0       -6.541569   -1.581280    1.597404
      3          6           0       -3.018171   -2.064924    0.832667
      4          7           0       -3.566201   -3.052314    0.026794
      5          6           0       -4.855638   -2.952808    0.239222
      6          1           0       -5.612048   -3.580273   -0.233070
      7          7           0       -1.488803   -0.639267    1.924219
      8          6           0       -2.549514   -0.079399    2.514989
      9          1           0       -2.323228    0.735088    3.201771
     10          7           0       -3.841708   -0.373199    2.385381
     11          6           0       -4.009748   -1.386591    1.519792
     12          6           0       -1.691098   -1.656546    1.058599
     13          7           0       -0.633532   -2.216709    0.467888
     14          1           0       -0.736273   -2.972445   -0.179826
     15          1           0        0.297006   -1.900234    0.652521
     16          1           0       -6.976797   -2.363044    2.044174
     17          1           0       -6.467352   -0.825791    2.247678
     18          1           0       -7.096961   -1.293839    0.817069
     19          7           0       -4.728050    2.146283   -0.729095
     20          6           0       -3.354684    2.171293   -0.764887
     21          6           0       -5.587894    3.222478   -0.196964
     22          7           0       -0.357906    3.799231   -0.108464
     23          1           0        0.618900    3.621736   -0.225079
     24          1           0       -0.613924    4.672063    0.307873
     25          7           0       -2.566318    3.175131   -0.323488
     26          6           0       -1.283623    2.907453   -0.492783
     27          7           0       -0.807337    1.746159   -1.051401
     28          1           0        0.189978    1.626987   -1.141505
     29          6           0       -1.600136    0.699854   -1.512469
     30          8           0       -1.069801   -0.305882   -2.000314
     31          6           0       -2.980586    0.972870   -1.337293
     32          7           0       -4.096646    0.210835   -1.654485
     33          6           0       -5.107698    0.945184   -1.276708
     34          1           0       -6.155034    0.657546   -1.374796
     35          1           0       -6.139095    2.868519    0.557828
     36          1           0       -5.014935    3.971566    0.132949
     37          1           0       -6.190172    3.558552   -0.920239
     38          1           0        5.250548    1.372088   -0.719120
     39          1           0        5.208227    1.852909   -2.413719
     40          1           0        3.948899    2.405883   -1.309327
     41          1           0        4.140674   -2.822511   -2.797608
     42          6           0        3.657005   -1.885967   -2.519800
     43          8           0        1.456900   -2.752121   -2.710601
     44          6           0        2.228282   -1.824621   -2.466707
     45          1           0        0.713225   -0.511430   -2.056257
     46          7           0        1.718996   -0.593813   -2.104755
     47          8           0        1.889157    1.585860   -1.490550
     48          6           0        2.430896    0.539525   -1.800968
     49          1           0        5.467449   -0.791569   -2.254490
     50          6           0        4.378573   -0.797239   -2.228900
     51          6           0        4.605590    1.585626   -1.558463
     52          7           0        3.802961    0.400884   -1.874570
     53          1           0        5.632453    2.181913    3.926961
     54          1           0        4.272828    2.707190    3.193745
     55          1           0        5.729601    3.001200    2.518858
     56          1           0        2.816292   -3.193965   -0.343255
     57          1           0        4.492792   -2.985285   -0.106797
     58          7           0        3.562683   -2.642313    0.029216
     59          6           0        3.329172   -1.499966    0.678580
     60          6           0        3.944091    0.467709    1.866812
     61          7           0        2.684704    0.903888    2.034542
     62          1           0        0.770665    0.335308    1.572178
     63          6           0        1.819545    0.056205    1.481509
     64          7           0        2.051442   -1.088446    0.830693
     65          1           0        7.168328    0.493776    2.102981
     66          6           0        6.126207    0.252795    1.891195
     67          7           0        5.724721   -0.813098    1.242840
     68          6           0        4.343111   -0.689173    1.220328
     69          6           0        5.191177    2.342023    3.043992
     70          7           0        5.101293    1.071826    2.298000
 ---------------------------------------------------------------------

 SCF Done:  E(RwB97XD) =  -2048.74140533     A.U. after   15 cycles

 The electronic state is 1-A.
 Alpha  occ. eigenvalues --  -19.25740 -19.22462 -19.20759 -14.52367 -14.52265
 Alpha  occ. eigenvalues --  -14.49029 -14.48277 -14.47800 -14.47787 -14.47035
 Alpha  occ. eigenvalues --  -14.46834 -14.45410 -14.44200 -14.44149 -14.42174
 Alpha  occ. eigenvalues --  -14.41956 -14.41220 -14.40740 -14.40709 -14.40115
 Alpha  occ. eigenvalues --  -10.45309 -10.41412 -10.40358 -10.39731 -10.38395
 Alpha  occ. eigenvalues --  -10.37899 -10.37241 -10.37078 -10.35667 -10.35146
 Alpha  occ. eigenvalues --  -10.35023 -10.34580 -10.33791 -10.33667 -10.33526
 Alpha  occ. eigenvalues --  -10.32970 -10.32873 -10.32589 -10.31116 -10.31085
 Alpha  occ. eigenvalues --  -10.30816 -10.28342 -10.28106  -1.19313  -1.15114
 Alpha  occ. eigenvalues --   -1.13389  -1.13359  -1.10846  -1.10798  -1.09348
 Alpha  occ. eigenvalues --   -1.09041  -1.08724  -1.04788  -1.04697  -1.02500
 Alpha  occ. eigenvalues --   -1.00893  -1.00134  -0.99907  -0.98726  -0.96828
 Alpha  occ. eigenvalues --   -0.96799  -0.96436  -0.92454  -0.90940  -0.87520
 Alpha  occ. eigenvalues --   -0.85798  -0.84344  -0.83571  -0.83508  -0.82715
 Alpha  occ. eigenvalues --   -0.81999  -0.78784  -0.76931  -0.74840  -0.74715
 Alpha  occ. eigenvalues --   -0.73810  -0.73341  -0.72557  -0.70738  -0.70292
 Alpha  occ. eigenvalues --   -0.67580  -0.66819  -0.66356  -0.65955  -0.64637
 Alpha  occ. eigenvalues --   -0.64189  -0.63778  -0.62794  -0.62389  -0.61967
 Alpha  occ. eigenvalues --   -0.60649  -0.60344  -0.60178  -0.59310  -0.59293
 Alpha  occ. eigenvalues --   -0.59018  -0.58542  -0.56893  -0.56282  -0.56041
 Alpha  occ. eigenvalues --   -0.55989  -0.55290  -0.55046  -0.54378  -0.54062
 Alpha  occ. eigenvalues --   -0.53804  -0.53730  -0.53528  -0.53453  -0.53158
 Alpha  occ. eigenvalues --   -0.52674  -0.52373  -0.51486  -0.50486  -0.50368
 Alpha  occ. eigenvalues --   -0.50050  -0.49717  -0.49562  -0.49200  -0.49063
 Alpha  occ. eigenvalues --   -0.48660  -0.48625  -0.48307  -0.47876  -0.47488
 Alpha  occ. eigenvalues --   -0.46647  -0.45977  -0.45367  -0.44534  -0.42980
 Alpha  occ. eigenvalues --   -0.40780  -0.40601  -0.39372  -0.37988  -0.37496
 Alpha  occ. eigenvalues --   -0.37450  -0.37405  -0.36774  -0.36139  -0.34519
 Alpha  occ. eigenvalues --   -0.34310  -0.33998  -0.33579  -0.33138  -0.33076
 Alpha  occ. eigenvalues --   -0.32871  -0.32604  -0.32443  -0.32028  -0.30575
 Alpha  occ. eigenvalues --   -0.30187  -0.28947  -0.25852  -0.25257
 Alpha virt. eigenvalues --    0.02931   0.04213   0.07163   0.08113   0.08584
 Alpha virt. eigenvalues --    0.09110   0.09546   0.10500   0.11298   0.12136
 Alpha virt. eigenvalues --    0.12940   0.13780   0.14403   0.14585   0.15171

 Mulliken charges:
               1
     1  N   -0.309132
     2  C    0.180374
     3  C    0.058869
     4  N   -0.252519
     5  C    0.141065
     6  H    0.024908
     7  N   -0.296850
     8  C    0.133323
     9  H    0.009912
    10  N   -0.289334
    11  C    0.241458
    12  C    0.091110
    13  N   -0.048793
    14  H    0.116010
    15  H    0.083810
    16  H    0.025364
    17  H    0.031231
    18  H    0.019864
    19  N   -0.309052
    20  C    0.260395
    21  C    0.181958
    22  N   -0.123928
    23  H    0.117989
    24  H    0.118711
    25  N   -0.312071
    26  C    0.249774
    27  N   -0.148546
    28  H    0.119345
    29  C    0.193405
    30  O   -0.322136
    31  C   -0.016695
    32  N   -0.221426
    33  C    0.120711
    34  H    0.020795
    35  H    0.027708
    36  H    0.030369
    37  H    0.024138
    38  H    0.059094
    39  H    0.060012
    40  H    0.074259
    41  H    0.021294
    42  C   -0.106864
    43  O   -0.271661
    44  C    0.156294
    45  H    0.129781
    46  N   -0.107497
    47  O   -0.347270
    48  C    0.338594
    49  H    0.044718
    50  C    0.168788
    51  C    0.041974
    52  N   -0.276514
    53  H    0.034147
    54  H    0.041889
    55  H    0.026332
    56  H    0.124995
    57  H    0.113681
    58  N   -0.043046
    59  C    0.077776
    60  C    0.235575
    61  N   -0.269863
    62  H    0.032952
    63  C    0.166575
    64  N   -0.306291
    65  H    0.036191
    66  C    0.126170
    67  N   -0.259334
    68  C    0.029209
    69  C    0.181558
    70  N   -0.305628
 Sum of Mulliken charges =  -0.00000

 Dipole moment (field-independent basis, Debye):
    X=              6.7920    Y=              6.9851    Z=              2.6826  Tot=             10.1054
 Quadrupole moment (field-independent basis, Debye-Ang):
   XX=           -150.8190   YY=           -222.9400   ZZ=           -255.3108
   XY=              5.2331   XZ=             -3.7383   YZ=             -0.1819

 Normal termination of Gaussian 16 at Sun Jan 21 11:23:54 2018.
