 Gaussian 16, Revision A.03,
 Gaussian 16:  EM64L-G16RevA.03 25-Dec-2016

 ---------------------------------------
 #p wb97xd/cc-pvdz sp scf=(maxcycles=20)
 ---------------------------------------

 ------------------
 Base pair stacking
 ------------------
 Symbolic Z-matrix:
 Charge =  0 Multiplicity = 1

                         Standard orientation:
 ---------------------------------------------------------------------
 Center     Atomic      Atomic             Coordinates (Angstroms)
 Number     Number       Type             X           Y           Z
 ---------------------------------------------------------------------
      1          7           0        6.058653   -1.295671   -0.853105
      2          6           0        7.402901   -0.688111   -0.809815
      3          6           0        3.885246   -1.592605   -1.012681
      4          7           0        4.433868   -2.848726   -0.798427
      5          6           0        5.721299   -2.619556   -0.710864
      6          1           0        6.477489   -3.386677   -0.541582
      7          7           0        2.356115    0.164758   -1.381940
      8          6           0        3.414528    0.981616   -1.392099
      9          1           0        3.187436    2.034993   -1.550499
     10          7           0        4.705266    0.693975   -1.236683
     11          6           0        4.874460   -0.625300   -1.048812
     12          6           0        2.559533   -1.157012   -1.190619
     13          7           0        1.504273   -1.974020   -1.180154
     14          1           0        1.607910   -2.959588   -1.041883
     15          1           0        0.574647   -1.628984   -1.310115
     16          1           0        7.971203   -1.081001   -1.532889
     17          1           0        7.327743    0.299314   -0.945733
     18          1           0        7.824461   -0.869436    0.078665
     19          7           0        3.843333    1.840258    1.388869
     20          6           0        2.477057    1.812228    1.245503
     21          6           0        4.713022    2.987079    1.058488
     22          7           0       -0.483654    3.378339    0.327234
     23          1           0       -1.457962    3.156437    0.300404
     24          1           0       -0.217481    4.291132    0.016299
     25          7           0        1.705710    2.819528    0.782453
     26          6           0        0.425833    2.492348    0.760536
     27          7           0       -0.063293    1.272564    1.161017
     28          1           0       -1.057257    1.110170    1.109753
     29          6           0        0.711902    0.221518    1.640838
     30          8           0        0.171025   -0.839486    1.976196
     31          6           0        2.089127    0.558062    1.670215
     32          7           0        3.189713   -0.186292    2.072134
     33          6           0        4.205391    0.612900    1.888019
     34          1           0        5.243805    0.356512    2.100698
     35          1           0        5.372395    2.716543    0.357886
     36          1           0        4.152688    3.739357    0.714439
     37          1           0        5.201209    3.284380    1.878306
     38          1           0       -6.004382    0.706710    0.007088
     39          1           0       -6.202232    1.048091    1.724338
     40          1           0       -4.838953    1.735299    0.840835
     41          1           0       -4.975202   -3.601076    1.885997
     42          6           0       -4.504246   -2.627917    1.746789
     43          8           0       -2.308675   -3.426129    2.158433
     44          6           0       -3.084954   -2.510442    1.886960
     45          1           0       -1.592875   -1.113715    1.781197
     46          7           0       -2.591601   -1.236371    1.690511
     47          8           0       -2.783374    0.978713    1.228067
     48          6           0       -3.310900   -0.108602    1.383442
     49          1           0       -6.314924   -1.582080    1.330264
     50          6           0       -5.232682   -1.545988    1.447777
     51          6           0       -5.483076    0.874001    0.937842
     52          7           0       -4.673079   -0.302672    1.265083
     53          1           0       -4.729133    3.464372   -2.644491
     54          1           0       -3.533979    3.524840   -1.535418
     55          1           0       -5.085474    3.362850   -1.055110
     56          1           0       -1.893234   -3.313221   -1.601683
     57          1           0       -3.540895   -3.045653   -1.953443
     58          7           0       -2.643576   -2.664322   -1.728463
     59          6           0       -2.456931   -1.348772   -1.603313
     60          6           0       -3.130450    0.933348   -1.609378
     61          7           0       -1.914432    1.417107   -1.306593
     62          1           0       -0.021232    0.730147   -0.926472
     63          6           0       -1.037080    0.424456   -1.173176
     64          7           0       -1.222061   -0.893781   -1.298132
     65          1           0       -6.285499    1.014546   -2.310284
     66          6           0       -5.257233    0.719735   -2.098858
     67          7           0       -4.825496   -0.517583   -2.080671
     68          6           0       -3.478466   -0.396356   -1.771545
     69          6           0       -4.418979    3.117675   -1.759271
     70          7           0       -4.284581    1.649353   -1.822275
 ---------------------------------------------------------------------

 SCF Done:  E(RwB97XD) =  -2048.73374930     A.U. after   15 cycles

 The electronic state is 1-A.
 Alpha  occ. eigenvalues --  -19.25553 -19.21699 -19.20395 -14.52431 -14.52185
 Alpha  occ. eigenvalues --  -14.49253 -14.48141 -14.47966 -14.47560 -14.46481
 Alpha  occ. eigenvalues --  -14.45850 -14.45490 -14.44090 -14.44023 -14.42896
 Alpha  occ. eigenvalues --  -14.41805 -14.41666 -14.41523 -14.40710 -14.40546
 Alpha  occ. eigenvalues --  -10.45165 -10.40759 -10.39824 -10.39806 -10.38016
 Alpha  occ. eigenvalues --  -10.37899 -10.37491 -10.37127 -10.35958 -10.35445
 Alpha  occ. eigenvalues --  -10.35049 -10.34458 -10.34363 -10.33821 -10.33803
 Alpha  occ. eigenvalues --  -10.33572 -10.32960 -10.32518 -10.31569 -10.30771
 Alpha  occ. eigenvalues --  -10.29943 -10.28917 -10.27627  -1.19276  -1.15227
 Alpha  occ. eigenvalues --   -1.12933  -1.12734  -1.11800  -1.10201  -1.09215
 Alpha  occ. eigenvalues --   -1.08982  -1.08182  -1.05568  -1.04651  -1.02229
 Alpha  occ. eigenvalues --   -1.01052  -1.01015  -0.99201  -0.98254  -0.97453
 Alpha  occ. eigenvalues --   -0.96659  -0.96118  -0.93261  -0.90771  -0.87720
 Alpha  occ. eigenvalues --   -0.86126  -0.84448  -0.83626  -0.83527  -0.82826
 Alpha  occ. eigenvalues --   -0.81858  -0.78591  -0.77039  -0.74900  -0.74191
 Alpha  occ. eigenvalues --   -0.73423  -0.73263  -0.73076  -0.71590  -0.70431
 Alpha  occ. eigenvalues --   -0.66964  -0.66852  -0.66749  -0.66267  -0.64318
 Alpha  occ. eigenvalues --   -0.64212  -0.63414  -0.63246  -0.62511  -0.61314
 Alpha  occ. eigenvalues --   -0.61232  -0.60845  -0.60622  -0.59559  -0.59255
 Alpha  occ. eigenvalues --   -0.58508  -0.57861  -0.57321  -0.57028  -0.56357
 Alpha  occ. eigenvalues --   -0.55934  -0.55809  -0.55434  -0.54546  -0.54260
 Alpha  occ. eigenvalues --   -0.54046  -0.53547  -0.53214  -0.53111  -0.52550
 Alpha  occ. eigenvalues --   -0.52464  -0.52318  -0.52300  -0.51278  -0.50660
 Alpha  occ. eigenvalues --   -0.49749  -0.49730  -0.49200  -0.49171  -0.48596
 Alpha  occ. eigenvalues --   -0.48466  -0.48375  -0.47991  -0.47452  -0.47106
 Alpha  occ. eigenvalues --   -0.47035  -0.45493  -0.45134  -0.44466  -0.43452
 Alpha  occ. eigenvalues --   -0.41528  -0.40845  -0.39316  -0.37820  -0.37691
 Alpha  occ. eigenvalues --   -0.37652  -0.37005  -0.36939  -0.35939  -0.34467
 Alpha  occ. eigenvalues --   -0.34326  -0.33960  -0.33901  -0.33060  -0.32902
 Alpha  occ. eigenvalues --   -0.32401  -0.32229  -0.31833  -0.31584  -0.31255
 Alpha  occ. eigenvalues --   -0.30959  -0.29543  -0.26081  -0.24806
 Alpha virt. eigenvalues --    0.03280   0.04089   0.07021   0.07275   0.08433
 Alpha virt. eigenvalues --    0.08963   0.09994   0.10742   0.10969   0.11840
 Alpha virt. eigenvalues --    0.13134   0.13826   0.14046   0.14562   0.14900

 Mulliken charges:
               1
     1  N   -0.312668
     2  C    0.178345
     3  C    0.068941
     4  N   -0.258480
     5  C    0.133935
     6  H    0.027532
     7  N   -0.280677
     8  C    0.143116
     9  H    0.012778
    10  N   -0.284905
    11  C    0.230899
    12  C    0.099234
    13  N   -0.051759
    14  H    0.109012
    15  H    0.086657
    16  H    0.027969
    17  H    0.032366
    18  H    0.026130
    19  N   -0.277999
    20  C    0.210915
    21  C    0.180935
    22  N   -0.092146
    23  H    0.113736
    24  H    0.110948
    25  N   -0.293353
    26  C    0.201641
    27  N   -0.145781
    28  H    0.131736
    29  C    0.163865
    30  O   -0.323563
    31  C    0.012365
    32  N   -0.220695
    33  C    0.123757
    34  H    0.015693
    35  H    0.020899
    36  H    0.025386
    37  H    0.020227
    38  H    0.052184
    39  H    0.058895
    40  H    0.068849
    41  H    0.027840
    42  C   -0.113824
    43  O   -0.266757
    44  C    0.174983
    45  H    0.131722
    46  N   -0.124510
    47  O   -0.335046
    48  C    0.337516
    49  H    0.045831
    50  C    0.176177
    51  C    0.044145
    52  N   -0.280307
    53  H    0.036582
    54  H    0.034745
    55  H    0.022911
    56  H    0.123807
    57  H    0.118941
    58  N   -0.062605
    59  C    0.109689
    60  C    0.236179
    61  N   -0.278735
    62  H    0.050729
    63  C    0.144172
    64  N   -0.300887
    65  H    0.039362
    66  C    0.099627
    67  N   -0.249315
    68  C    0.021609
    69  C    0.181746
    70  N   -0.293244
 Sum of Mulliken charges =  -0.00000

 Dipole moment (field-independent basis, Debye):
    X=             -6.4546    Y=              6.2522    Z=             -3.8940  Tot=              9.7936
 Quadrupole moment (field-independent basis, Debye-Ang):
   XX=           -146.5910   YY=           -227.1133   ZZ=           -258.3271
   XY=             -9.4817   XZ=              4.1743   YZ=             11.5532

 Normal termination of Gaussian 16 at Sun Jan 21 10:00:49 2018.
