 Gaussian 16, Revision A.03,
 Gaussian 16:  EM64L-G16RevA.03 25-Dec-2016

 ---------------------------------------
 #p wb97xd/cc-pvdz sp scf=(maxcycles=20)
 ---------------------------------------

 ------------------
 Base pair stacking
 ------------------
 Symbolic Z-matrix:
 Charge =  0 Multiplicity = 1

                         Standard orientation:
 ---------------------------------------------------------------------
 Center     Atomic      Atomic             Coordinates (Angstroms)
 Number     Number       Type             X           Y           Z
 ---------------------------------------------------------------------
      1          7           0        5.489047   -1.416912   -1.240146
      2          6           0        6.845143   -0.841145   -1.326668
      3          6           0        3.304215   -1.669422   -1.232474
      4          7           0        3.840680   -2.923213   -0.977659
      5          6           0        5.135494   -2.720902   -0.992483
      6          1           0        5.885828   -3.494622   -0.827252
      7          7           0        1.789229    0.099197   -1.606351
      8          6           0        2.860795    0.887568   -1.739761
      9          1           0        2.644749    1.934545   -1.948130
     10          7           0        4.153083    0.578269   -1.654818
     11          6           0        4.308027   -0.730811   -1.396482
     12          6           0        1.978480   -1.213008   -1.346745
     13          7           0        0.910080   -2.001588   -1.213243
     14          1           0        1.002972   -2.979108   -1.020768
     15          1           0       -0.019109   -1.642351   -1.301009
     16          1           0        7.353728   -1.291444   -2.060668
     17          1           0        6.780856    0.137660   -1.518842
     18          1           0        7.323631   -0.978085   -0.459308
     19          7           0        4.446057    1.784603    1.201002
     20          6           0        3.073071    1.782812    1.146756
     21          6           0        5.313222    2.923841    0.839233
     22          7           0        0.088005    3.418949    0.458140
     23          1           0       -0.889881    3.214128    0.490329
     24          1           0        0.350022    4.333960    0.150204
     25          7           0        2.291765    2.813202    0.756988
     26          6           0        1.007411    2.508171    0.811795
     27          7           0        0.523173    1.288005    1.217034
     28          1           0       -0.474821    1.143559    1.227415
     29          6           0        1.308604    0.213438    1.622340
     30          8           0        0.771388   -0.845655    1.969399
     31          6           0        2.690741    0.526035    1.568795
     32          7           0        3.801352   -0.245665    1.881713
     33          6           0        4.817342    0.540308    1.648814
     34          1           0        5.862527    0.261729    1.787527
     35          1           0        5.920588    2.658238    0.091331
     36          1           0        4.745537    3.693049    0.548884
     37          1           0        5.859035    3.194201    1.631579
     38          1           0       -5.489728    0.848494    0.442314
     39          1           0       -5.569211    1.154074    2.175792
     40          1           0       -4.253957    1.838140    1.220020
     41          1           0       -4.419381   -3.517546    2.156545
     42          6           0       -3.940781   -2.549527    2.007842
     43          8           0       -1.738031   -3.393695    2.257654
     44          6           0       -2.513469   -2.459149    2.057358
     45          1           0       -1.006161   -1.085678    1.884351
     46          7           0       -2.010753   -1.189426    1.856579
     47          8           0       -2.191696    1.038495    1.455532
     48          6           0       -2.727781   -0.043036    1.621613
     49          1           0       -5.755308   -1.464208    1.733319
     50          6           0       -4.667241   -1.448988    1.780523
     51          6           0       -4.906031    0.985823    1.340368
     52          7           0       -4.098088   -0.211436    1.588469
     53          1           0       -5.297938    3.488911   -2.588280
     54          1           0       -4.027645    3.587674   -1.569108
     55          1           0       -5.545001    3.493659   -0.975091
     56          1           0       -2.535077   -3.279968   -1.317664
     57          1           0       -4.197401   -2.993919   -1.572556
     58          7           0       -3.279037   -2.621757   -1.433545
     59          6           0       -3.057398   -1.306006   -1.404193
     60          6           0       -3.683097    0.987361   -1.507602
     61          7           0       -2.439377    1.458648   -1.319234
     62          1           0       -0.538735    0.749800   -1.026494
     63          6           0       -1.575274    0.454706   -1.183822
     64          7           0       -1.795295   -0.863750   -1.212925
     65          1           0       -6.876896    1.103228   -1.995844
     66          6           0       -5.842648    0.796670   -1.836809
     67          7           0       -5.435973   -0.447481   -1.770441
     68          6           0       -4.068541   -0.340790   -1.561939
     69          6           0       -4.934169    3.189501   -1.706221
     70          7           0       -4.834408    1.717215   -1.685951
 ---------------------------------------------------------------------

 SCF Done:  E(RwB97XD) =  -2048.74803334     A.U. after   15 cycles

 The electronic state is 1-A.
 Alpha  occ. eigenvalues --  -19.25349 -19.21606 -19.20485 -14.52654 -14.51960
 Alpha  occ. eigenvalues --  -14.48847 -14.48446 -14.48280 -14.47386 -14.46672
 Alpha  occ. eigenvalues --  -14.46389 -14.45801 -14.44504 -14.44424 -14.42661
 Alpha  occ. eigenvalues --  -14.41840 -14.41398 -14.41219 -14.40807 -14.40484
 Alpha  occ. eigenvalues --  -10.44944 -10.41052 -10.40128 -10.39711 -10.38216
 Alpha  occ. eigenvalues --  -10.38080 -10.37383 -10.37311 -10.35954 -10.35697
 Alpha  occ. eigenvalues --  -10.34644 -10.34248 -10.34124 -10.34111 -10.33507
 Alpha  occ. eigenvalues --  -10.33233 -10.33232 -10.32890 -10.31341 -10.30686
 Alpha  occ. eigenvalues --  -10.30520 -10.28626 -10.27932  -1.19064  -1.15523
 Alpha  occ. eigenvalues --   -1.13018  -1.12629  -1.11412  -1.10361  -1.09467
 Alpha  occ. eigenvalues --   -1.08895  -1.08368  -1.05290  -1.04946  -1.02055
 Alpha  occ. eigenvalues --   -1.01253  -1.00732  -0.99494  -0.98374  -0.97176
 Alpha  occ. eigenvalues --   -0.96931  -0.96364  -0.92980  -0.90621  -0.87894
 Alpha  occ. eigenvalues --   -0.86203  -0.84119  -0.83888  -0.83280  -0.82544
 Alpha  occ. eigenvalues --   -0.82215  -0.78435  -0.77263  -0.75085  -0.74414
 Alpha  occ. eigenvalues --   -0.73429  -0.73104  -0.72948  -0.71257  -0.70620
 Alpha  occ. eigenvalues --   -0.67176  -0.66993  -0.66542  -0.66131  -0.64473
 Alpha  occ. eigenvalues --   -0.64177  -0.63537  -0.62973  -0.62495  -0.61581
 Alpha  occ. eigenvalues --   -0.61402  -0.60758  -0.60608  -0.59694  -0.59128
 Alpha  occ. eigenvalues --   -0.58579  -0.58122  -0.57104  -0.56804  -0.56099
 Alpha  occ. eigenvalues --   -0.55840  -0.55672  -0.55479  -0.54119  -0.54034
 Alpha  occ. eigenvalues --   -0.53851  -0.53718  -0.53394  -0.53327  -0.52967
 Alpha  occ. eigenvalues --   -0.52712  -0.52152  -0.52052  -0.50901  -0.50399
 Alpha  occ. eigenvalues --   -0.50148  -0.49885  -0.49135  -0.49119  -0.48752
 Alpha  occ. eigenvalues --   -0.48515  -0.48385  -0.48123  -0.47335  -0.47136
 Alpha  occ. eigenvalues --   -0.47073  -0.45869  -0.44890  -0.44787  -0.43108
 Alpha  occ. eigenvalues --   -0.41123  -0.40975  -0.39099  -0.38016  -0.37816
 Alpha  occ. eigenvalues --   -0.37511  -0.37147  -0.37011  -0.36042  -0.34898
 Alpha  occ. eigenvalues --   -0.34515  -0.33987  -0.33687  -0.33384  -0.32874
 Alpha  occ. eigenvalues --   -0.32491  -0.32184  -0.31915  -0.31727  -0.31016
 Alpha  occ. eigenvalues --   -0.30698  -0.29499  -0.25869  -0.25312
 Alpha virt. eigenvalues --    0.03476   0.03646   0.06844   0.07587   0.08899
 Alpha virt. eigenvalues --    0.09172   0.09880   0.10216   0.10949   0.12333
 Alpha virt. eigenvalues --    0.12894   0.13927   0.14201   0.14257   0.14761

 Mulliken charges:
               1
     1  N   -0.309367
     2  C    0.175875
     3  C    0.072600
     4  N   -0.258492
     5  C    0.138907
     6  H    0.026783
     7  N   -0.288725
     8  C    0.135943
     9  H    0.013521
    10  N   -0.285327
    11  C    0.235353
    12  C    0.086971
    13  N   -0.050162
    14  H    0.110207
    15  H    0.083331
    16  H    0.027751
    17  H    0.031764
    18  H    0.024428
    19  N   -0.285700
    20  C    0.233315
    21  C    0.183465
    22  N   -0.112059
    23  H    0.115523
    24  H    0.115767
    25  N   -0.299436
    26  C    0.229038
    27  N   -0.136467
    28  H    0.115780
    29  C    0.180358
    30  O   -0.322419
    31  C   -0.010274
    32  N   -0.218920
    33  C    0.114519
    34  H    0.016070
    35  H    0.023383
    36  H    0.028010
    37  H    0.021040
    38  H    0.050098
    39  H    0.058747
    40  H    0.072621
    41  H    0.025089
    42  C   -0.105097
    43  O   -0.268086
    44  C    0.168424
    45  H    0.130298
    46  N   -0.115563
    47  O   -0.335378
    48  C    0.331193
    49  H    0.046150
    50  C    0.166126
    51  C    0.051070
    52  N   -0.278407
    53  H    0.036512
    54  H    0.038489
    55  H    0.024961
    56  H    0.124729
    57  H    0.117872
    58  N   -0.058183
    59  C    0.090899
    60  C    0.199877
    61  N   -0.256460
    62  H    0.032631
    63  C    0.155103
    64  N   -0.298661
    65  H    0.036648
    66  C    0.110788
    67  N   -0.249646
    68  C    0.043933
    69  C    0.182844
    70  N   -0.291978
 Sum of Mulliken charges =  -0.00000

 Dipole moment (field-independent basis, Debye):
    X=             -6.6711    Y=              6.7197    Z=             -3.2024  Tot=              9.9957
 Quadrupole moment (field-independent basis, Debye-Ang):
   XX=           -149.5945   YY=           -225.8779   ZZ=           -257.9719
   XY=             -5.9562   XZ=             -2.7690   YZ=             11.4978

 Normal termination of Gaussian 16 at Sun Jan 21 05:51:21 2018.
