 Gaussian 16, Revision A.03,
 Gaussian 16:  EM64L-G16RevA.03 25-Dec-2016

 ---------------------------------------
 #p wb97xd/cc-pvdz sp scf=(maxcycles=20)
 ---------------------------------------

 ------------------
 Base pair stacking
 ------------------
 Symbolic Z-matrix:
 Charge =  0 Multiplicity = 1

                         Standard orientation:
 ---------------------------------------------------------------------
 Center     Atomic      Atomic             Coordinates (Angstroms)
 Number     Number       Type             X           Y           Z
 ---------------------------------------------------------------------
      1          7           0        5.497632   -1.561012   -1.196073
      2          6           0        6.853671   -1.019938   -1.411463
      3          6           0        3.312559   -1.791675   -1.098321
      4          7           0        3.849762   -2.984506   -0.636493
      5          6           0        5.144693   -2.797806   -0.713871
      6          1           0        5.895546   -3.535661   -0.429746
      7          7           0        1.796413   -0.105871   -1.748199
      8          6           0        2.867755    0.638285   -2.041507
      9          1           0        2.651138    1.633395   -2.427626
     10          7           0        4.160418    0.339177   -1.929981
     11          6           0        4.316055   -0.904560   -1.446956
     12          6           0        1.986371   -1.352733   -1.264098
     13          7           0        0.918183   -2.097100   -0.970717
     14          1           0        1.011601   -3.025739   -0.609990
     15          1           0       -0.011351   -1.752095   -1.101433
     16          1           0        7.344439   -1.596951   -2.064430
     17          1           0        6.788867   -0.090196   -1.772731
     18          1           0        7.350433   -1.004662   -0.543712
     19          7           0        4.431721    1.938697    1.148629
     20          6           0        3.058134    1.936013    1.112509
     21          6           0        5.293587    3.074537    0.764254
     22          7           0        0.063605    3.564495    0.447218
     23          1           0       -0.913692    3.359744    0.494321
     24          1           0        0.321175    4.476493    0.126868
     25          7           0        2.271347    2.962304    0.722942
     26          6           0        0.987952    2.657489    0.797684
     27          7           0        0.509576    1.441251    1.221270
     28          1           0       -0.488145    1.296645    1.246226
     29          6           0        1.300709    0.370933    1.626745
     30          8           0        0.768536   -0.684831    1.991288
     31          6           0        2.681891    0.683349    1.551913
     32          7           0        3.796844   -0.084932    1.857746
     33          6           0        4.809356    0.698982    1.603741
     34          1           0        5.856394    0.422051    1.731396
     35          1           0        5.891147    2.801741    0.011055
     36          1           0        4.721811    3.840703    0.473852
     37          1           0        5.849690    3.352842    1.546632
     38          1           0       -5.512843    0.992532    0.530273
     39          1           0       -5.569591    1.315161    2.261557
     40          1           0       -4.267312    1.990120    1.281825
     41          1           0       -4.418264   -3.356119    2.273162
     42          6           0       -3.942044   -2.389491    2.108637
     43          8           0       -1.735870   -3.230568    2.337685
     44          6           0       -2.514245   -2.298247    2.138434
     45          1           0       -1.009892   -0.926148    1.932042
     46          7           0       -2.014714   -1.030428    1.918541
     47          8           0       -2.201813    1.193378    1.497996
     48          6           0       -2.735230    0.113402    1.681775
     49          1           0       -5.760469   -1.307406    1.847387
     50          6           0       -4.671877   -1.291435    1.880088
     51          6           0       -4.917404    1.138852    1.419153
     52          7           0       -4.105792   -0.055678    1.668357
     53          1           0       -5.297747    3.109679   -3.167851
     54          1           0       -4.005167    3.377831   -2.208984
     55          1           0       -5.509553    3.401991   -1.576282
     56          1           0       -2.533188   -3.347717   -0.775213
     57          1           0       -4.199585   -3.098812   -1.042146
     58          7           0       -3.277025   -2.714850   -0.990441
     59          6           0       -3.049883   -1.416425   -1.199401
     60          6           0       -3.669090    0.827015   -1.694672
     61          7           0       -2.419802    1.314808   -1.618743
     62          1           0       -0.515902    0.654709   -1.244577
     63          6           0       -1.556723    0.344238   -1.325503
     64          7           0       -1.782256   -0.956819   -1.115846
     65          1           0       -6.872329    0.878659   -2.129187
     66          6           0       -5.836012    0.597313   -1.939883
     67          7           0       -5.432645   -0.618427   -1.662493
     68          6           0       -4.060604   -0.486818   -1.504685
     69          6           0       -4.915946    2.968524   -2.254451
     70          7           0       -4.821276    1.522396   -1.975601
 ---------------------------------------------------------------------

 SCF Done:  E(RwB97XD) =  -2048.75359532     A.U. after   15 cycles

 The electronic state is 1-A.
 Alpha  occ. eigenvalues --  -19.25552 -19.21858 -19.20554 -14.52529 -14.52087
 Alpha  occ. eigenvalues --  -14.48699 -14.48658 -14.48041 -14.47532 -14.46801
 Alpha  occ. eigenvalues --  -14.46532 -14.45589 -14.44300 -14.44266 -14.42396
 Alpha  occ. eigenvalues --  -14.41931 -14.41214 -14.41090 -14.40908 -14.40382
 Alpha  occ. eigenvalues --  -10.45125 -10.41154 -10.39929 -10.39908 -10.38171
 Alpha  occ. eigenvalues --  -10.38065 -10.37369 -10.37212 -10.35766 -10.35510
 Alpha  occ. eigenvalues --  -10.34890 -10.34268 -10.34038 -10.33956 -10.33352
 Alpha  occ. eigenvalues --  -10.33343 -10.33172 -10.32707 -10.31184 -10.30809
 Alpha  occ. eigenvalues --  -10.30723 -10.28467 -10.28049  -1.19158  -1.15296
 Alpha  occ. eigenvalues --   -1.13111  -1.12855  -1.11250  -1.10499  -1.09269
 Alpha  occ. eigenvalues --   -1.09009  -1.08470  -1.05119  -1.04752  -1.02214
 Alpha  occ. eigenvalues --   -1.01046  -1.00527  -0.99619  -0.98463  -0.96989
 Alpha  occ. eigenvalues --   -0.96737  -0.96503  -0.92802  -0.90733  -0.87682
 Alpha  occ. eigenvalues --   -0.85992  -0.84029  -0.83947  -0.83377  -0.82401
 Alpha  occ. eigenvalues --   -0.82353  -0.78548  -0.77056  -0.74852  -0.74534
 Alpha  occ. eigenvalues --   -0.73539  -0.73084  -0.72933  -0.71095  -0.70409
 Alpha  occ. eigenvalues --   -0.67291  -0.66790  -0.66357  -0.66237  -0.64290
 Alpha  occ. eigenvalues --   -0.64242  -0.63619  -0.62784  -0.62554  -0.61685
 Alpha  occ. eigenvalues --   -0.60993  -0.60559  -0.60413  -0.59490  -0.59181
 Alpha  occ. eigenvalues --   -0.58756  -0.58251  -0.56875  -0.56639  -0.56155
 Alpha  occ. eigenvalues --   -0.55763  -0.55613  -0.55296  -0.54181  -0.53942
 Alpha  occ. eigenvalues --   -0.53800  -0.53652  -0.53485  -0.53351  -0.52858
 Alpha  occ. eigenvalues --   -0.52811  -0.52225  -0.51874  -0.50780  -0.50325
 Alpha  occ. eigenvalues --   -0.50072  -0.49931  -0.49255  -0.48963  -0.48734
 Alpha  occ. eigenvalues --   -0.48656  -0.48466  -0.48284  -0.47466  -0.47242
 Alpha  occ. eigenvalues --   -0.46980  -0.45890  -0.44958  -0.44780  -0.43251
 Alpha  occ. eigenvalues --   -0.41075  -0.40760  -0.39191  -0.37886  -0.37592
 Alpha  occ. eigenvalues --   -0.37291  -0.37199  -0.37110  -0.36085  -0.34682
 Alpha  occ. eigenvalues --   -0.34335  -0.33994  -0.33500  -0.33330  -0.33066
 Alpha  occ. eigenvalues --   -0.32606  -0.32333  -0.32071  -0.31824  -0.30923
 Alpha  occ. eigenvalues --   -0.30551  -0.29438  -0.25774  -0.25364
 Alpha virt. eigenvalues --    0.03370   0.03865   0.07069   0.07760   0.08678
 Alpha virt. eigenvalues --    0.09218   0.09841   0.10405   0.10995   0.12238
 Alpha virt. eigenvalues --    0.12912   0.13907   0.14315   0.14509   0.14840

 Mulliken charges:
               1
     1  N   -0.309735
     2  C    0.177952
     3  C    0.068829
     4  N   -0.256371
     5  C    0.138333
     6  H    0.026245
     7  N   -0.292662
     8  C    0.135227
     9  H    0.011973
    10  N   -0.287602
    11  C    0.236253
    12  C    0.091871
    13  N   -0.048858
    14  H    0.111979
    15  H    0.083682
    16  H    0.026851
    17  H    0.031527
    18  H    0.022752
    19  N   -0.298828
    20  C    0.252278
    21  C    0.182837
    22  N   -0.118005
    23  H    0.116752
    24  H    0.116922
    25  N   -0.307387
    26  C    0.238417
    27  N   -0.142475
    28  H    0.118027
    29  C    0.185380
    30  O   -0.323022
    31  C   -0.015959
    32  N   -0.220350
    33  C    0.119707
    34  H    0.017797
    35  H    0.026569
    36  H    0.028772
    37  H    0.021943
    38  H    0.054544
    39  H    0.060654
    40  H    0.073895
    41  H    0.023231
    42  C   -0.103662
    43  O   -0.269762
    44  C    0.161929
    45  H    0.130511
    46  N   -0.112296
    47  O   -0.340362
    48  C    0.333338
    49  H    0.046152
    50  C    0.167626
    51  C    0.042259
    52  N   -0.277489
    53  H    0.035080
    54  H    0.039620
    55  H    0.024834
    56  H    0.126795
    57  H    0.116521
    58  N   -0.054183
    59  C    0.084147
    60  C    0.222005
    61  N   -0.264925
    62  H    0.032888
    63  C    0.160020
    64  N   -0.300342
    65  H    0.036504
    66  C    0.115028
    67  N   -0.254131
    68  C    0.038522
    69  C    0.182807
    70  N   -0.299377
 Sum of Mulliken charges =  -0.00000

 Dipole moment (field-independent basis, Debye):
    X=             -6.7401    Y=              6.7438    Z=             -2.8636  Tot=              9.9553
 Quadrupole moment (field-independent basis, Debye-Ang):
   XX=           -149.3627   YY=           -224.0645   ZZ=           -257.4656
   XY=             -6.0117   XZ=             -1.7806   YZ=              7.7319

 Normal termination of Gaussian 16 at Sun Jan 21 03:28:45 2018.
