 Gaussian 16, Revision A.03,
 Gaussian 16:  EM64L-G16RevA.03 25-Dec-2016

 ---------------------------------------
 #p wb97xd/cc-pvdz sp scf=(maxcycles=20)
 ---------------------------------------

 ------------------
 Base pair stacking
 ------------------
 Symbolic Z-matrix:
 Charge =  0 Multiplicity = 1

                         Standard orientation:
 ---------------------------------------------------------------------
 Center     Atomic      Atomic             Coordinates (Angstroms)
 Number     Number       Type             X           Y           Z
 ---------------------------------------------------------------------
      1          7           0        6.318226   -1.221368   -0.672363
      2          6           0        7.651439   -0.602313   -0.540741
      3          6           0        4.155804   -1.532317   -0.926385
      4          7           0        4.714971   -2.793771   -0.782215
      5          6           0        5.995375   -2.555946   -0.634938
      6          1           0        6.756466   -3.323984   -0.494208
      7          7           0        2.614689    0.228289   -1.223359
      8          6           0        3.661013    1.056451   -1.140080
      9          1           0        3.424213    2.115584   -1.231836
     10          7           0        4.949890    0.774040   -0.961316
     11          6           0        5.131678   -0.553093   -0.860813
     12          6           0        2.830599   -1.101161   -1.118425
     13          7           0        1.787409   -1.929447   -1.201292
     14          1           0        1.900536   -2.921015   -1.129064
     15          1           0        0.857737   -1.587269   -1.338338
     16          1           0        8.248988   -0.936341   -1.269801
     17          1           0        7.566671    0.391268   -0.609520
     18          1           0        8.045863   -0.840862    0.346687
     19          7           0        3.560089    1.821706    1.445793
     20          6           0        2.199073    1.784259    1.260606
     21          6           0        4.433720    2.968912    1.127369
     22          7           0       -0.739720    3.321871    0.230584
     23          1           0       -1.711584    3.094257    0.176546
     24          1           0       -0.468712    4.231990   -0.083991
     25          7           0        1.437308    2.781160    0.760647
     26          6           0        0.160418    2.446642    0.703465
     27          7           0       -0.334636    1.229492    1.104695
     28          1           0       -1.325691    1.060953    1.024853
     29          6           0        0.430680    0.189093    1.622109
     30          8           0       -0.114889   -0.870425    1.954545
     31          6           0        1.804589    0.533614    1.689635
     32          7           0        2.895985   -0.199347    2.135201
     33          6           0        3.912781    0.602986    1.972069
     34          1           0        4.945399    0.355133    2.220139
     35          1           0        5.115879    2.692923    0.451135
     36          1           0        3.880470    3.713535    0.756247
     37          1           0        4.894715    3.279578    1.957905
     38          1           0       -6.234110    0.615799   -0.224930
     39          1           0       -6.486862    0.978446    1.480722
     40          1           0       -5.100376    1.661598    0.630825
     41          1           0       -5.241625   -3.661376    1.741631
     42          6           0       -4.771571   -2.687510    1.604229
     43          8           0       -2.585763   -3.468138    2.094101
     44          6           0       -3.357928   -2.560379    1.786676
     45          1           0       -1.870469   -1.156920    1.708699
     46          7           0       -2.865255   -1.286262    1.588786
     47          8           0       -3.053945    0.921507    1.091431
     48          6           0       -3.580456   -0.166589    1.244746
     49          1           0       -6.573800   -1.657234    1.118115
     50          6           0       -5.495929   -1.613622    1.268565
     51          6           0       -5.742780    0.798093    0.719227
     52          7           0       -4.937298   -0.369721    1.086875
     53          1           0       -4.471418    3.523682   -2.492125
     54          1           0       -3.314697    3.520000   -1.341447
     55          1           0       -4.878786    3.305932   -0.926855
     56          1           0       -1.574688   -3.276156   -1.831338
     57          1           0       -3.213445   -3.004191   -2.219426
     58          7           0       -2.329644   -2.628968   -1.937791
     59          6           0       -2.166154   -1.323392   -1.714352
     60          6           0       -2.871789    0.945228   -1.583249
     61          7           0       -1.673540    1.420935   -1.205975
     62          1           0        0.215673    0.731586   -0.810665
     63          6           0       -0.786948    0.431922   -1.112706
     64          7           0       -0.948743   -0.876326   -1.336073
     65          1           0       -6.002698    1.037905   -2.383885
     66          6           0       -4.977885    0.741246   -2.158732
     67          7           0       -4.529271   -0.489007   -2.212693
     68          6           0       -3.195113   -0.373784   -1.850085
     69          6           0       -4.185850    3.119085   -1.623358
     70          7           0       -4.028382    1.660595   -1.784600
 ---------------------------------------------------------------------

 SCF Done:  E(RwB97XD) =  -2048.70289409     A.U. after   15 cycles

 The electronic state is 1-A.
 Alpha  occ. eigenvalues --  -19.25710 -19.21805 -19.20405 -14.52374 -14.52177
 Alpha  occ. eigenvalues --  -14.49414 -14.48149 -14.47796 -14.47743 -14.46225
 Alpha  occ. eigenvalues --  -14.45454 -14.45190 -14.43836 -14.43242 -14.43054
 Alpha  occ. eigenvalues --  -14.41995 -14.41703 -14.41647 -14.40849 -14.40556
 Alpha  occ. eigenvalues --  -10.45366 -10.40561 -10.39931 -10.39586 -10.37820
 Alpha  occ. eigenvalues --  -10.37766 -10.37615 -10.36868 -10.36151 -10.35375
 Alpha  occ. eigenvalues --  -10.35357 -10.34621 -10.34521 -10.34018 -10.33824
 Alpha  occ. eigenvalues --  -10.33819 -10.32979 -10.32070 -10.31648 -10.30907
 Alpha  occ. eigenvalues --  -10.29686 -10.29099 -10.27615  -1.19479  -1.14962
 Alpha  occ. eigenvalues --   -1.13029  -1.12849  -1.11984  -1.10279  -1.09290
 Alpha  occ. eigenvalues --   -1.08914  -1.08155  -1.05740  -1.04455  -1.02387
 Alpha  occ. eigenvalues --   -1.01240  -1.00823  -0.99136  -0.98304  -0.97613
 Alpha  occ. eigenvalues --   -0.96469  -0.96107  -0.93446  -0.90924  -0.87562
 Alpha  occ. eigenvalues --   -0.86062  -0.84630  -0.83792  -0.83563  -0.82979
 Alpha  occ. eigenvalues --   -0.81795  -0.78751  -0.76857  -0.74787  -0.74257
 Alpha  occ. eigenvalues --   -0.73580  -0.73302  -0.73172  -0.71825  -0.70309
 Alpha  occ. eigenvalues --   -0.67047  -0.66973  -0.66649  -0.66404  -0.64414
 Alpha  occ. eigenvalues --   -0.64207  -0.63484  -0.63399  -0.62710  -0.61268
 Alpha  occ. eigenvalues --   -0.61198  -0.60979  -0.60627  -0.59530  -0.59344
 Alpha  occ. eigenvalues --   -0.58603  -0.57972  -0.57613  -0.57134  -0.56596
 Alpha  occ. eigenvalues --   -0.56001  -0.55943  -0.55307  -0.54971  -0.54464
 Alpha  occ. eigenvalues --   -0.54167  -0.53430  -0.53231  -0.52849  -0.52514
 Alpha  occ. eigenvalues --   -0.52419  -0.52338  -0.52248  -0.51428  -0.50672
 Alpha  occ. eigenvalues --   -0.49788  -0.49729  -0.49284  -0.48976  -0.48727
 Alpha  occ. eigenvalues --   -0.48421  -0.48314  -0.47944  -0.47594  -0.47137
 Alpha  occ. eigenvalues --   -0.47013  -0.45682  -0.45076  -0.44099  -0.43534
 Alpha  occ. eigenvalues --   -0.41730  -0.40926  -0.39481  -0.38034  -0.37696
 Alpha  occ. eigenvalues --   -0.37533  -0.36970  -0.36811  -0.35763  -0.34497
 Alpha  occ. eigenvalues --   -0.34270  -0.33992  -0.33877  -0.32985  -0.32464
 Alpha  occ. eigenvalues --   -0.32433  -0.31998  -0.31801  -0.31606  -0.31499
 Alpha  occ. eigenvalues --   -0.31084  -0.29120  -0.26277  -0.24678
 Alpha virt. eigenvalues --    0.03185   0.04363   0.07109   0.07238   0.08527
 Alpha virt. eigenvalues --    0.09116   0.09906   0.10446   0.11192   0.11745
 Alpha virt. eigenvalues --    0.13115   0.13568   0.14002   0.14725   0.15007

 Mulliken charges:
               1
     1  N   -0.313243
     2  C    0.179273
     3  C    0.062707
     4  N   -0.259038
     5  C    0.133473
     6  H    0.027990
     7  N   -0.272935
     8  C    0.142743
     9  H    0.012494
    10  N   -0.288803
    11  C    0.230696
    12  C    0.102050
    13  N   -0.050750
    14  H    0.108102
    15  H    0.087607
    16  H    0.027942
    17  H    0.032501
    18  H    0.026836
    19  N   -0.279629
    20  C    0.214125
    21  C    0.174586
    22  N   -0.066866
    23  H    0.113401
    24  H    0.106376
    25  N   -0.290084
    26  C    0.182508
    27  N   -0.143228
    28  H    0.134291
    29  C    0.145985
    30  O   -0.322837
    31  C    0.031557
    32  N   -0.219081
    33  C    0.119743
    34  H    0.017078
    35  H    0.023612
    36  H    0.025755
    37  H    0.019379
    38  H    0.053169
    39  H    0.060040
    40  H    0.064738
    41  H    0.029859
    42  C   -0.113260
    43  O   -0.265128
    44  C    0.179184
    45  H    0.131647
    46  N   -0.128922
    47  O   -0.337941
    48  C    0.346163
    49  H    0.046268
    50  C    0.178004
    51  C    0.048683
    52  N   -0.283803
    53  H    0.036282
    54  H    0.027891
    55  H    0.022303
    56  H    0.121977
    57  H    0.119184
    58  N   -0.065506
    59  C    0.116875
    60  C    0.252327
    61  N   -0.306260
    62  H    0.039048
    63  C    0.177251
    64  N   -0.306638
    65  H    0.038858
    66  C    0.093457
    67  N   -0.247799
    68  C    0.005380
    69  C    0.182894
    70  N   -0.292541
 Sum of Mulliken charges =  -0.00000

 Dipole moment (field-independent basis, Debye):
    X=             -6.2768    Y=              6.0601    Z=             -4.1253  Tot=              9.6510
 Quadrupole moment (field-independent basis, Debye-Ang):
   XX=           -145.2027   YY=           -228.3349   ZZ=           -258.2622
   XY=            -10.9259   XZ=              6.8184   YZ=             12.1481

 Normal termination of Gaussian 16 at Sun Jan 21 15:10:20 2018.
