 Gaussian 16, Revision A.03,
 Gaussian 16:  EM64L-G16RevA.03 25-Dec-2016

 ---------------------------------------
 #p wb97xd/cc-pvdz sp scf=(maxcycles=20)
 ---------------------------------------

 ------------------
 Base pair stacking
 ------------------
 Symbolic Z-matrix:
 Charge =  0 Multiplicity = 1

                         Standard orientation:
 ---------------------------------------------------------------------
 Center     Atomic      Atomic             Coordinates (Angstroms)
 Number     Number       Type             X           Y           Z
 ---------------------------------------------------------------------
      1          7           0       -6.910174   -1.173675    0.292457
      2          6           0       -8.245818   -0.546092    0.305820
      3          6           0       -4.750151   -1.534726    0.495626
      4          7           0       -5.296389   -2.713029    0.007804
      5          6           0       -6.575856   -2.448345   -0.095067
      6          1           0       -7.328031   -3.152852   -0.451213
      7          7           0       -3.228961    0.086481    1.283404
      8          6           0       -4.280340    0.903426    1.404937
      9          1           0       -4.053832    1.899886    1.781791
     10          7           0       -5.563480    0.675343    1.132118
     11          6           0       -5.732650   -0.576778    0.676058
     12          6           0       -3.432134   -1.166805    0.821803
     13          7           0       -2.383872   -1.983774    0.699787
     14          1           0       -2.487628   -2.919999    0.362239
     15          1           0       -1.459618   -1.688032    0.941491
     16          1           0       -8.853533   -1.065208    0.906966
     17          1           0       -8.170373    0.392918    0.640041
     18          1           0       -8.622417   -0.539135   -0.620535
     19          7           0       -2.863616    2.128324   -1.579813
     20          6           0       -1.509595    2.047473   -1.360399
     21          6           0       -3.694970    3.327672   -1.353680
     22          7           0        1.468568    3.526372   -0.357815
     23          1           0        2.428668    3.263421   -0.266775
     24          1           0        1.229322    4.464651   -0.106582
     25          7           0       -0.717497    3.042089   -0.905025
     26          6           0        0.542762    2.660380   -0.796985
     27          7           0        0.994783    1.401438   -1.110406
     28          1           0        1.975983    1.198237   -0.996789
     29          6           0        0.197669    0.362489   -1.580591
     30          8           0        0.705297   -0.737001   -1.833914
     31          6           0       -1.158857    0.757452   -1.701872
     32          7           0       -2.270320    0.042801   -2.127117
     33          6           0       -3.255833    0.894286   -2.038034
     34          1           0       -4.292444    0.673398   -2.294769
     35          1           0       -4.402256    3.122465   -0.678082
     36          1           0       -3.118997    4.071078   -1.016228
     37          1           0       -4.124847    3.604068   -2.212530
     38          1           0        6.833881    0.633917    0.394286
     39          1           0        7.137669    0.878387   -1.324027
     40          1           0        5.763333    1.669061   -0.551104
     41          1           0        5.704955   -3.714424   -1.327351
     42          6           0        5.273299   -2.715631   -1.261562
     43          8           0        3.067577   -3.436288   -1.754049
     44          6           0        3.870411   -2.543047   -1.485032
     45          1           0        2.441732   -1.078378   -1.529223
     46          7           0        3.427471   -1.240127   -1.377965
     47          8           0        3.697904    0.985017   -1.013574
     48          6           0        4.181505   -0.130965   -1.086858
     49          1           0        7.106412   -1.730726   -0.797357
     50          6           0        6.034743   -1.653024   -0.975762
     51          6           0        6.370721    0.776407   -0.570723
     52          7           0        5.524992   -0.378582   -0.884565
     53          1           0        3.806374    2.942650    3.525899
     54          1           0        2.670397    3.244123    2.394191
     55          1           0        4.243311    3.153857    1.967734
     56          1           0        0.977300   -3.439811    1.010718
     57          1           0        2.606616   -3.276846    1.489139
     58          7           0        1.724950   -2.842550    1.301334
     59          6           0        1.554856   -1.525386    1.432907
     60          6           0        2.244218    0.697457    1.928367
     61          7           0        1.049059    1.253232    1.669309
     62          1           0       -0.827142    0.689349    1.067209
     63          6           0        0.172338    0.322747    1.297211
     64          7           0        0.340766   -0.996979    1.164824
     65          1           0        5.359503    0.581633    2.784962
     66          6           0        4.341318    0.353077    2.468753
     67          7           0        3.901838   -0.847951    2.182285
     68          6           0        2.573466   -0.643804    1.838084
     69          6           0        3.539624    2.784966    2.575123
     70          7           0        3.391180    1.336172    2.336449
 ---------------------------------------------------------------------

 SCF Done:  E(RwB97XD) =  -2048.74477624     A.U. after   15 cycles

 The electronic state is 1-A.
 Alpha  occ. eigenvalues --  -19.26016 -19.22036 -19.20594 -14.52459 -14.51480
 Alpha  occ. eigenvalues --  -14.49481 -14.48569 -14.47902 -14.46717 -14.46694
 Alpha  occ. eigenvalues --  -14.46603 -14.44502 -14.42946 -14.42775 -14.42686
 Alpha  occ. eigenvalues --  -14.42122 -14.42041 -14.41704 -14.40801 -14.40704
 Alpha  occ. eigenvalues --  -10.45579 -10.41144 -10.40136 -10.38550 -10.38188
 Alpha  occ. eigenvalues --  -10.37718 -10.37100 -10.36054 -10.36011 -10.35666
 Alpha  occ. eigenvalues --  -10.34771 -10.34515 -10.34286 -10.34106 -10.33803
 Alpha  occ. eigenvalues --  -10.33522 -10.33141 -10.31568 -10.31442 -10.31003
 Alpha  occ. eigenvalues --  -10.30458 -10.29261 -10.28065  -1.19542  -1.14163
 Alpha  occ. eigenvalues --   -1.13192  -1.13060  -1.12073  -1.10472  -1.09357
 Alpha  occ. eigenvalues --   -1.08538  -1.07885  -1.05657  -1.03447  -1.02536
 Alpha  occ. eigenvalues --   -1.01071  -0.99998  -0.99740  -0.98480  -0.97624
 Alpha  occ. eigenvalues --   -0.96411  -0.95494  -0.93293  -0.91018  -0.86639
 Alpha  occ. eigenvalues --   -0.85132  -0.84631  -0.83999  -0.83856  -0.82971
 Alpha  occ. eigenvalues --   -0.82260  -0.78872  -0.75898  -0.74549  -0.73682
 Alpha  occ. eigenvalues --   -0.73590  -0.73529  -0.73393  -0.71752  -0.69290
 Alpha  occ. eigenvalues --   -0.67354  -0.66947  -0.66574  -0.65621  -0.64465
 Alpha  occ. eigenvalues --   -0.63699  -0.63417  -0.63064  -0.62659  -0.61707
 Alpha  occ. eigenvalues --   -0.60799  -0.60133  -0.59538  -0.59442  -0.58838
 Alpha  occ. eigenvalues --   -0.58538  -0.58333  -0.57133  -0.57080  -0.56549
 Alpha  occ. eigenvalues --   -0.56041  -0.55925  -0.54790  -0.54452  -0.54392
 Alpha  occ. eigenvalues --   -0.53599  -0.53569  -0.52879  -0.52794  -0.52677
 Alpha  occ. eigenvalues --   -0.52370  -0.52273  -0.51782  -0.51433  -0.50818
 Alpha  occ. eigenvalues --   -0.50070  -0.49712  -0.49474  -0.48908  -0.48711
 Alpha  occ. eigenvalues --   -0.48650  -0.48202  -0.47836  -0.47650  -0.47601
 Alpha  occ. eigenvalues --   -0.47377  -0.45616  -0.45389  -0.43991  -0.43289
 Alpha  occ. eigenvalues --   -0.41883  -0.39733  -0.39554  -0.37880  -0.37272
 Alpha  occ. eigenvalues --   -0.37203  -0.36755  -0.36324  -0.35692  -0.34425
 Alpha  occ. eigenvalues --   -0.34219  -0.34159  -0.33279  -0.33215  -0.32907
 Alpha  occ. eigenvalues --   -0.32633  -0.32213  -0.31975  -0.31818  -0.31603
 Alpha  occ. eigenvalues --   -0.31023  -0.28485  -0.26477  -0.25406
 Alpha virt. eigenvalues --    0.03157   0.04899   0.07306   0.08127   0.08639
 Alpha virt. eigenvalues --    0.09159   0.09636   0.10210   0.10890   0.11704
 Alpha virt. eigenvalues --    0.12860   0.13500   0.14416   0.14662   0.15125

 Mulliken charges:
               1
     1  N   -0.311322
     2  C    0.180474
     3  C    0.041628
     4  N   -0.256729
     5  C    0.132713
     6  H    0.028644
     7  N   -0.278986
     8  C    0.125605
     9  H    0.016536
    10  N   -0.290424
    11  C    0.231057
    12  C    0.108469
    13  N   -0.046359
    14  H    0.108361
    15  H    0.088538
    16  H    0.027491
    17  H    0.034691
    18  H    0.026006
    19  N   -0.302219
    20  C    0.239967
    21  C    0.180448
    22  N   -0.106468
    23  H    0.109497
    24  H    0.116159
    25  N   -0.296774
    26  C    0.226471
    27  N   -0.120449
    28  H    0.118863
    29  C    0.141594
    30  O   -0.320845
    31  C    0.009792
    32  N   -0.223295
    33  C    0.123741
    34  H    0.027614
    35  H    0.028426
    36  H    0.026571
    37  H    0.022698
    38  H    0.054251
    39  H    0.063951
    40  H    0.071822
    41  H    0.030136
    42  C   -0.107373
    43  O   -0.271965
    44  C    0.173471
    45  H    0.137235
    46  N   -0.132479
    47  O   -0.351015
    48  C    0.355342
    49  H    0.046902
    50  C    0.179860
    51  C    0.037511
    52  N   -0.289077
    53  H    0.034046
    54  H    0.033567
    55  H    0.021579
    56  H    0.121965
    57  H    0.118800
    58  N   -0.055449
    59  C    0.118738
    60  C    0.233808
    61  N   -0.266777
    62  H    0.050005
    63  C    0.155306
    64  N   -0.300547
    65  H    0.028329
    66  C    0.120400
    67  N   -0.256631
    68  C    0.007148
    69  C    0.174115
    70  N   -0.305157
 Sum of Mulliken charges =  -0.00000

 Dipole moment (field-independent basis, Debye):
    X=              6.3205    Y=              6.0043    Z=              3.1774  Tot=              9.2788
 Quadrupole moment (field-independent basis, Debye-Ang):
   XX=           -140.9247   YY=           -225.8513   ZZ=           -254.7362
   XY=             12.0738   XZ=             14.9831   YZ=             -7.1455

 Normal termination of Gaussian 16 at Sun Jan 21 04:28:01 2018.
