 Gaussian 16, Revision A.03,
 Gaussian 16:  EM64L-G16RevA.03 25-Dec-2016

 ---------------------------------------
 #p wb97xd/cc-pvdz sp scf=(maxcycles=20)
 ---------------------------------------

 ------------------
 Base pair stacking
 ------------------
 Symbolic Z-matrix:
 Charge =  0 Multiplicity = 1

                         Standard orientation:
 ---------------------------------------------------------------------
 Center     Atomic      Atomic             Coordinates (Angstroms)
 Number     Number       Type             X           Y           Z
 ---------------------------------------------------------------------
      1          7           0        6.333590   -1.246142   -0.666572
      2          6           0        7.670600   -0.626210   -0.588499
      3          6           0        4.167924   -1.563137   -0.882699
      4          7           0        4.722286   -2.814093   -0.653552
      5          6           0        6.004842   -2.573052   -0.532517
      6          1           0        6.763365   -3.333122   -0.343146
      7          7           0        2.632845    0.179968   -1.292672
      8          6           0        3.683592    1.006534   -1.275602
      9          1           0        3.451037    2.057737   -1.440419
     10          7           0        4.972430    0.730846   -1.086383
     11          6           0        5.148802   -0.586774   -0.893486
     12          6           0        2.843353   -1.139837   -1.095430
     13          7           0        1.795745   -1.966518   -1.112118
     14          1           0        1.904802   -2.951052   -0.970684
     15          1           0        0.866685   -1.630100   -1.266480
     16          1           0        8.261189   -1.014048   -1.296292
     17          1           0        7.589933    0.360444   -0.726839
     18          1           0        8.070459   -0.803403    0.310780
     19          7           0        3.539197    1.882249    1.459768
     20          6           0        2.177447    1.841593    1.280782
     21          6           0        4.406627    3.036946    1.151627
     22          7           0       -0.772556    3.380110    0.284700
     23          1           0       -1.743753    3.149239    0.232541
     24          1           0       -0.506763    4.295232   -0.019644
     25          7           0        1.409215    2.841624    0.797224
     26          6           0        0.133419    2.502654    0.742060
     27          7           0       -0.354755    1.278523    1.130254
     28          1           0       -1.345510    1.106970    1.053126
     29          6           0        0.417284    0.234794    1.630694
     30          8           0       -0.122380   -0.831057    1.952355
     31          6           0        1.790123    0.584027    1.695857
     32          7           0        2.886632   -0.150052    2.126764
     33          6           0        3.899374    0.658415    1.968830
     34          1           0        4.934194    0.411663    2.208689
     35          1           0        5.086537    2.772306    0.468623
     36          1           0        3.848571    3.783935    0.792676
     37          1           0        4.870471    3.338960    1.983758
     38          1           0       -6.258221    0.657647   -0.178161
     39          1           0       -6.503993    0.997655    1.533161
     40          1           0       -5.124477    1.697150    0.685219
     41          1           0       -5.238861   -3.639971    1.729193
     42          6           0       -4.773401   -2.662540    1.601842
     43          8           0       -2.582084   -3.440388    2.071089
     44          6           0       -3.359407   -2.531960    1.778961
     45          1           0       -1.877986   -1.121580    1.711494
     46          7           0       -2.872832   -1.253457    1.594818
     47          8           0       -3.072839    0.959640    1.126391
     48          6           0       -3.594214   -0.132447    1.268491
     49          1           0       -6.582135   -1.633555    1.137629
     50          6           0       -5.503716   -1.587455    1.283342
     51          6           0       -5.762961    0.829980    0.765810
     52          7           0       -4.950992   -0.339091    1.114696
     53          1           0       -4.447083    3.413812   -2.741524
     54          1           0       -3.281904    3.485579   -1.601651
     55          1           0       -4.843855    3.309441   -1.161936
     56          1           0       -1.577133   -3.337082   -1.621542
     57          1           0       -3.217434   -3.084807   -2.016359
     58          7           0       -2.329837   -2.695157   -1.768217
     59          6           0       -2.158650   -1.377911   -1.638897
     60          6           0       -2.852756    0.897905   -1.663717
     61          7           0       -1.649559    1.392936   -1.329526
     62          1           0        0.239309    0.723552   -0.899738
     63          6           0       -0.766893    0.408447   -1.172733
     64          7           0       -0.936406   -0.911472   -1.301804
     65          1           0       -5.989035    0.949840   -2.446827
     66          6           0       -4.963964    0.664580   -2.208468
     67          7           0       -4.521481   -0.568703   -2.178379
     68          6           0       -3.184165   -0.434993   -1.834239
     69          6           0       -4.156977    3.070222   -1.848338
     70          7           0       -4.007473    1.603188   -1.907051
 ---------------------------------------------------------------------

 SCF Done:  E(RwB97XD) =  -2048.72712732     A.U. after   15 cycles

 The electronic state is 1-A.
 Alpha  occ. eigenvalues --  -19.25753 -19.21835 -19.20424 -14.52366 -14.52134
 Alpha  occ. eigenvalues --  -14.49384 -14.48250 -14.47755 -14.47671 -14.46360
 Alpha  occ. eigenvalues --  -14.45765 -14.45141 -14.43767 -14.43390 -14.42952
 Alpha  occ. eigenvalues --  -14.41960 -14.41735 -14.41673 -14.40817 -14.40564
 Alpha  occ. eigenvalues --  -10.45395 -10.40667 -10.39964 -10.39495 -10.37878
 Alpha  occ. eigenvalues --  -10.37703 -10.37625 -10.36798 -10.36089 -10.35396
 Alpha  occ. eigenvalues --  -10.35359 -10.34601 -10.34308 -10.33978 -10.33899
 Alpha  occ. eigenvalues --  -10.33774 -10.33012 -10.32052 -10.31605 -10.30911
 Alpha  occ. eigenvalues --  -10.29904 -10.29085 -10.27681  -1.19445  -1.14875
 Alpha  occ. eigenvalues --   -1.12993  -1.12872  -1.11948  -1.10268  -1.09257
 Alpha  occ. eigenvalues --   -1.08816  -1.08184  -1.05680  -1.04351  -1.02398
 Alpha  occ. eigenvalues --   -1.01155  -1.00719  -0.99213  -0.98284  -0.97568
 Alpha  occ. eigenvalues --   -0.96377  -0.96137  -0.93368  -0.90921  -0.87431
 Alpha  occ. eigenvalues --   -0.85914  -0.84573  -0.83772  -0.83609  -0.82931
 Alpha  occ. eigenvalues --   -0.81878  -0.78750  -0.76741  -0.74597  -0.74249
 Alpha  occ. eigenvalues --   -0.73529  -0.73330  -0.73196  -0.71745  -0.70167
 Alpha  occ. eigenvalues --   -0.66999  -0.66957  -0.66531  -0.66392  -0.64356
 Alpha  occ. eigenvalues --   -0.64064  -0.63432  -0.63368  -0.62603  -0.61300
 Alpha  occ. eigenvalues --   -0.61019  -0.60904  -0.60416  -0.59449  -0.59282
 Alpha  occ. eigenvalues --   -0.58620  -0.57924  -0.57406  -0.57093  -0.56478
 Alpha  occ. eigenvalues --   -0.55964  -0.55879  -0.55252  -0.54811  -0.54322
 Alpha  occ. eigenvalues --   -0.54184  -0.53302  -0.53258  -0.52820  -0.52516
 Alpha  occ. eigenvalues --   -0.52444  -0.52346  -0.52257  -0.51354  -0.50751
 Alpha  occ. eigenvalues --   -0.49805  -0.49728  -0.49304  -0.49008  -0.48758
 Alpha  occ. eigenvalues --   -0.48468  -0.48277  -0.47962  -0.47564  -0.47220
 Alpha  occ. eigenvalues --   -0.47138  -0.45565  -0.45191  -0.44137  -0.43642
 Alpha  occ. eigenvalues --   -0.41777  -0.40720  -0.39431  -0.37932  -0.37572
 Alpha  occ. eigenvalues --   -0.37445  -0.36992  -0.36791  -0.35741  -0.34451
 Alpha  occ. eigenvalues --   -0.34206  -0.33999  -0.33909  -0.33017  -0.32774
 Alpha  occ. eigenvalues --   -0.32452  -0.32033  -0.31811  -0.31634  -0.31526
 Alpha  occ. eigenvalues --   -0.31058  -0.29214  -0.26303  -0.24837
 Alpha virt. eigenvalues --    0.03175   0.04462   0.07276   0.07297   0.08540
 Alpha virt. eigenvalues --    0.09190   0.09965   0.10437   0.11022   0.11599
 Alpha virt. eigenvalues --    0.13125   0.13605   0.14139   0.14737   0.14947

 Mulliken charges:
               1
     1  N   -0.312634
     2  C    0.179504
     3  C    0.061976
     4  N   -0.258455
     5  C    0.133517
     6  H    0.028038
     7  N   -0.275907
     8  C    0.138456
     9  H    0.014178
    10  N   -0.288240
    11  C    0.229634
    12  C    0.103179
    13  N   -0.049543
    14  H    0.108600
    15  H    0.088162
    16  H    0.027797
    17  H    0.032602
    18  H    0.026346
    19  N   -0.285031
    20  C    0.228117
    21  C    0.176172
    22  N   -0.078107
    23  H    0.112512
    24  H    0.109184
    25  N   -0.294656
    26  C    0.194417
    27  N   -0.140077
    28  H    0.130670
    29  C    0.149098
    30  O   -0.322917
    31  C    0.021879
    32  N   -0.220608
    33  C    0.120381
    34  H    0.018330
    35  H    0.023571
    36  H    0.025386
    37  H    0.020359
    38  H    0.051759
    39  H    0.061204
    40  H    0.067849
    41  H    0.029406
    42  C   -0.113671
    43  O   -0.266088
    44  C    0.176956
    45  H    0.132334
    46  N   -0.128423
    47  O   -0.339697
    48  C    0.346113
    49  H    0.046276
    50  C    0.179090
    51  C    0.044923
    52  N   -0.283105
    53  H    0.035924
    54  H    0.030819
    55  H    0.021308
    56  H    0.122794
    57  H    0.118848
    58  N   -0.063706
    59  C    0.116097
    60  C    0.249967
    61  N   -0.294915
    62  H    0.036545
    63  C    0.172403
    64  N   -0.304909
    65  H    0.038453
    66  C    0.098795
    67  N   -0.249013
    68  C    0.004179
    69  C    0.181016
    70  N   -0.295423
 Sum of Mulliken charges =  -0.00000

 Dipole moment (field-independent basis, Debye):
    X=             -6.3120    Y=              6.0704    Z=             -3.8887  Tot=              9.5819
 Quadrupole moment (field-independent basis, Debye-Ang):
   XX=           -145.0492   YY=           -227.2961   ZZ=           -257.9016
   XY=            -10.7311   XZ=              7.2809   YZ=             11.0361

 Normal termination of Gaussian 16 at Sun Jan 21 10:48:30 2018.
