 Gaussian 16, Revision A.03,
 Gaussian 16:  EM64L-G16RevA.03 25-Dec-2016

 ---------------------------------------
 #p wb97xd/cc-pvdz sp scf=(maxcycles=20)
 ---------------------------------------

 ------------------
 Base pair stacking
 ------------------
 Symbolic Z-matrix:
 Charge =  0 Multiplicity = 1

                         Standard orientation:
 ---------------------------------------------------------------------
 Center     Atomic      Atomic             Coordinates (Angstroms)
 Number     Number       Type             X           Y           Z
 ---------------------------------------------------------------------
      1          7           0        4.881603   -1.495900   -1.618560
      2          6           0        6.237201   -0.952602   -1.831105
      3          6           0        2.699464   -1.702488   -1.437115
      4          7           0        3.231598   -2.955118   -1.167893
      5          6           0        4.524954   -2.780523   -1.287983
      6          1           0        5.271962   -3.561878   -1.145107
      7          7           0        1.191798    0.079595   -1.774820
      8          6           0        2.263891    0.839175   -2.022278
      9          1           0        2.051115    1.880559   -2.259956
     10          7           0        3.553310    0.507042   -2.020216
     11          6           0        3.704334   -0.792749   -1.716643
     12          6           0        1.377084   -1.223975   -1.472406
     13          7           0        0.308139   -1.983816   -1.225073
     14          1           0        0.398155   -2.953942   -0.997123
     15          1           0       -0.618605   -1.609462   -1.259178
     16          1           0        6.681142   -1.444253   -2.580349
     17          1           0        6.175747    0.018239   -2.060944
     18          1           0        6.777151   -1.062291   -0.996582
     19          7           0        5.046993    1.689270    0.959375
     20          6           0        3.673806    1.713938    1.001635
     21          6           0        5.910094    2.827108    0.583763
     22          7           0        0.682266    3.429634    0.590743
     23          1           0       -0.295013    3.240914    0.683254
     24          1           0        0.940960    4.351901    0.302272
     25          7           0        2.888586    2.773243    0.709484
     26          6           0        1.605164    2.488872    0.842028
     27          7           0        1.125345    1.261631    1.230817
     28          1           0        0.127720    1.134486    1.305421
     29          6           0        1.914847    0.157475    1.536372
     30          8           0        1.381450   -0.905512    1.877392
     31          6           0        3.296049    0.447616    1.398549
     32          7           0        4.409666   -0.355882    1.601379
     33          6           0        5.422910    0.421074    1.329555
     34          1           0        6.469282    0.118599    1.383204
     35          1           0        6.458492    2.582176   -0.215033
     36          1           0        5.339489    3.617615    0.365193
     37          1           0        6.515029    3.054620    1.346062
     38          1           0       -4.934574    0.960732    0.863154
     39          1           0       -4.887223    1.195312    2.608835
     40          1           0       -3.627773    1.895251    1.591375
     41          1           0       -3.837422   -3.491006    2.320839
     42          6           0       -3.350581   -2.526219    2.177987
     43          8           0       -1.153557   -3.418732    2.238323
     44          6           0       -1.921726   -2.463148    2.130757
     45          1           0       -0.402265   -1.110440    1.907775
     46          7           0       -1.408262   -1.195219    1.946448
     47          8           0       -1.570959    1.050288    1.649122
     48          6           0       -2.116242   -0.027597    1.808756
     49          1           0       -5.157183   -1.398623    2.075471
     50          6           0       -4.068380   -1.404554    2.046738
     51          6           0       -4.287239    1.050286    1.722800
     52          7           0       -3.488715   -0.170303    1.865161
     53          1           0       -5.888828    3.570568   -2.374959
     54          1           0       -4.543886    3.686367   -1.458540
     55          1           0       -6.013630    3.649276   -0.749636
     56          1           0       -3.156926   -3.193757   -1.016235
     57          1           0       -4.828464   -2.884436   -1.159035
     58          7           0       -3.895876   -2.525809   -1.105332
     59          6           0       -3.649694   -1.214888   -1.150627
     60          6           0       -4.241201    1.084461   -1.308219
     61          7           0       -2.978779    1.537459   -1.233932
     62          1           0       -1.074181    0.802493   -1.052529
     63          6           0       -2.124628    0.522505   -1.119073
     64          7           0       -2.369229   -0.791138   -1.073534
     65          1           0       -7.460180    1.245586   -1.561965
     66          6           0       -6.422414    0.924717   -1.467011
     67          7           0       -6.033713   -0.323632   -1.376292
     68          6           0       -4.652803   -0.236524   -1.275071
     69          6           0       -5.464982    3.301595   -1.510081
     70          7           0       -5.389728    1.829757   -1.432376
 ---------------------------------------------------------------------

 SCF Done:  E(RwB97XD) =  -2048.74908650     A.U. after   15 cycles

 The electronic state is 1-A.
 Alpha  occ. eigenvalues --  -19.25328 -19.21600 -19.20531 -14.52766 -14.51918
 Alpha  occ. eigenvalues --  -14.48941 -14.48505 -14.48428 -14.47321 -14.46688
 Alpha  occ. eigenvalues --  -14.46598 -14.45728 -14.44652 -14.44584 -14.42700
 Alpha  occ. eigenvalues --  -14.41947 -14.41216 -14.41100 -14.41069 -14.40610
 Alpha  occ. eigenvalues --  -10.44948 -10.41147 -10.40298 -10.39686 -10.38239
 Alpha  occ. eigenvalues --  -10.38171 -10.37498 -10.37283 -10.36209 -10.35689
 Alpha  occ. eigenvalues --  -10.34415 -10.34376 -10.34141 -10.33830 -10.33653
 Alpha  occ. eigenvalues --  -10.33311 -10.33227 -10.32939 -10.31061 -10.30963
 Alpha  occ. eigenvalues --  -10.30642 -10.28506 -10.28178  -1.18968  -1.15567
 Alpha  occ. eigenvalues --   -1.13145  -1.12601  -1.11120  -1.10671  -1.09659
 Alpha  occ. eigenvalues --   -1.08803  -1.08489  -1.05265  -1.05116  -1.01976
 Alpha  occ. eigenvalues --   -1.01256  -1.00660  -0.99657  -0.98520  -0.97234
 Alpha  occ. eigenvalues --   -0.96782  -0.96709  -0.92958  -0.90563  -0.87973
 Alpha  occ. eigenvalues --   -0.86175  -0.84225  -0.83868  -0.83089  -0.82602
 Alpha  occ. eigenvalues --   -0.82302  -0.78397  -0.77348  -0.75155  -0.74674
 Alpha  occ. eigenvalues --   -0.73572  -0.72972  -0.72866  -0.71139  -0.70695
 Alpha  occ. eigenvalues --   -0.67377  -0.67089  -0.66380  -0.66088  -0.64536
 Alpha  occ. eigenvalues --   -0.64318  -0.63586  -0.62834  -0.62580  -0.61789
 Alpha  occ. eigenvalues --   -0.61233  -0.60759  -0.60582  -0.59724  -0.59098
 Alpha  occ. eigenvalues --   -0.58814  -0.58321  -0.57154  -0.56658  -0.55953
 Alpha  occ. eigenvalues --   -0.55808  -0.55660  -0.55481  -0.54446  -0.54067
 Alpha  occ. eigenvalues --   -0.53886  -0.53742  -0.53430  -0.53096  -0.52955
 Alpha  occ. eigenvalues --   -0.52700  -0.51916  -0.51769  -0.50579  -0.50411
 Alpha  occ. eigenvalues --   -0.50170  -0.50075  -0.49326  -0.49094  -0.48924
 Alpha  occ. eigenvalues --   -0.48764  -0.48306  -0.48172  -0.47871  -0.47146
 Alpha  occ. eigenvalues --   -0.46975  -0.45834  -0.45454  -0.44743  -0.42676
 Alpha  occ. eigenvalues --   -0.41224  -0.41013  -0.39025  -0.38128  -0.37920
 Alpha  occ. eigenvalues --   -0.37348  -0.37246  -0.37117  -0.35758  -0.35021
 Alpha  occ. eigenvalues --   -0.34583  -0.34149  -0.33529  -0.33303  -0.32924
 Alpha  occ. eigenvalues --   -0.32614  -0.32578  -0.31868  -0.31666  -0.30806
 Alpha  occ. eigenvalues --   -0.30576  -0.30027  -0.25912  -0.25532
 Alpha virt. eigenvalues --    0.03270   0.03806   0.06602   0.07821   0.08875
 Alpha virt. eigenvalues --    0.09210   0.09758   0.10219   0.10879   0.12385
 Alpha virt. eigenvalues --    0.12876   0.13881   0.14296   0.14438   0.14533

 Mulliken charges:
               1
     1  N   -0.305514
     2  C    0.179333
     3  C    0.063534
     4  N   -0.257657
     5  C    0.146610
     6  H    0.027058
     7  N   -0.287640
     8  C    0.126376
     9  H    0.012486
    10  N   -0.278024
    11  C    0.240439
    12  C    0.079689
    13  N   -0.055339
    14  H    0.113545
    15  H    0.083911
    16  H    0.027120
    17  H    0.029991
    18  H    0.019867
    19  N   -0.303237
    20  C    0.265587
    21  C    0.184128
    22  N   -0.120862
    23  H    0.120897
    24  H    0.117628
    25  N   -0.303251
    26  C    0.231599
    27  N   -0.128352
    28  H    0.116350
    29  C    0.178316
    30  O   -0.321477
    31  C   -0.016578
    32  N   -0.220457
    33  C    0.106025
    34  H    0.022473
    35  H    0.023371
    36  H    0.031185
    37  H    0.023604
    38  H    0.059615
    39  H    0.055340
    40  H    0.075746
    41  H    0.022770
    42  C   -0.102479
    43  O   -0.268330
    44  C    0.170334
    45  H    0.130258
    46  N   -0.119046
    47  O   -0.344570
    48  C    0.338719
    49  H    0.045026
    50  C    0.159914
    51  C    0.051604
    52  N   -0.276090
    53  H    0.035638
    54  H    0.040642
    55  H    0.027637
    56  H    0.123121
    57  H    0.117370
    58  N   -0.055013
    59  C    0.093914
    60  C    0.200756
    61  N   -0.259861
    62  H    0.020953
    63  C    0.175106
    64  N   -0.309879
    65  H    0.036965
    66  C    0.124126
    67  N   -0.249633
    68  C    0.020796
    69  C    0.181811
    70  N   -0.295994
 Sum of Mulliken charges =  -0.00000

 Dipole moment (field-independent basis, Debye):
    X=             -6.7575    Y=              7.1748    Z=             -2.2551  Tot=             10.1108
 Quadrupole moment (field-independent basis, Debye-Ang):
   XX=           -152.4017   YY=           -225.6835   ZZ=           -256.0699
   XY=             -2.3013   XZ=            -10.1146   YZ=             11.4360

 Normal termination of Gaussian 16 at Sun Jan 21 20:31:03 2018.
