 Gaussian 16, Revision A.03,
 Gaussian 16:  EM64L-G16RevA.03 25-Dec-2016

 ---------------------------------------
 #p wb97xd/cc-pvdz sp scf=(maxcycles=20)
 ---------------------------------------

 ------------------
 Base pair stacking
 ------------------
 Symbolic Z-matrix:
 Charge =  0 Multiplicity = 1

                         Standard orientation:
 ---------------------------------------------------------------------
 Center     Atomic      Atomic             Coordinates (Angstroms)
 Number     Number       Type             X           Y           Z
 ---------------------------------------------------------------------
      1          7           0        5.493157   -1.484200   -1.225938
      2          6           0        6.849496   -0.922177   -1.375799
      3          6           0        3.307982   -1.728279   -1.173380
      4          7           0        3.844432   -2.957417   -0.818172
      5          6           0        5.139445   -2.761174   -0.864051
      6          1           0        5.889831   -3.520310   -0.641379
      7          7           0        1.792935    0.006705   -1.680711
      8          6           0        2.864714    0.777455   -1.892407
      9          1           0        2.648722    1.803499   -2.187101
     10          7           0        4.157168    0.472480   -1.795186
     11          6           0        4.312014   -0.810246   -1.427658
     12          6           0        1.982105   -1.279131   -1.312038
     13          7           0        0.913473   -2.050075   -1.100263
     14          1           0        1.006307   -3.007883   -0.826017
     15          1           0       -0.015822   -1.696741   -1.208456
     16          1           0        7.349045   -1.435079   -2.074062
     17          1           0        6.785283    0.036842   -1.650167
     18          1           0        7.337122   -0.986076   -0.505085
     19          7           0        4.439206    1.856451    1.183974
     20          6           0        3.065885    1.854383    1.138760
     21          6           0        5.303778    2.995430    0.815269
     22          7           0        0.076076    3.489284    0.468016
     23          1           0       -0.901541    3.284339    0.506861
     24          1           0        0.335912    4.403996    0.157370
     25          7           0        2.281862    2.884220    0.753019
     26          6           0        0.997943    2.579036    0.816623
     27          7           0        0.516582    1.359242    1.226359
     28          1           0       -0.481295    1.214646    1.243460
     29          6           0        1.304848    0.285249    1.627663
     30          8           0        0.770107   -0.773558    1.979412
     31          6           0        2.686550    0.598003    1.564684
     32          7           0        3.799332   -0.173170    1.871128
     33          6           0        4.813628    0.612711    1.630699
     34          1           0        5.859760    0.334446    1.762826
     35          1           0        5.906252    2.729102    0.063669
     36          1           0        4.734055    3.764228    0.527821
     37          1           0        5.854739    3.266736    1.603706
     38          1           0       -5.501212    0.917920    0.491709
     39          1           0       -5.569333    1.225381    2.225338
     40          1           0       -4.260508    1.908606    1.260177
     41          1           0       -4.418869   -3.446070    2.203632
     42          6           0       -3.941418   -2.478140    2.050726
     43          8           0       -1.736940   -3.321680    2.286958
     44          6           0       -2.513827   -2.387490    2.090743
     45          1           0       -1.007923   -1.013959    1.906322
     46          7           0       -2.012655   -1.117894    1.885277
     47          8           0       -2.196613    1.109556    1.483002
     48          6           0       -2.731403    0.028116    1.653776
     49          1           0       -5.757905   -1.393410    1.786963
     50          6           0       -4.669551   -1.377968    1.826987
     51          6           0       -4.911636    1.056317    1.385750
     52          7           0       -4.101882   -0.140537    1.629842
     53          1           0       -5.297010    3.322440   -2.872728
     54          1           0       -4.015450    3.503862   -1.879353
     55          1           0       -5.526448    3.465662   -1.263299
     56          1           0       -2.535433   -3.321888   -1.058311
     57          1           0       -4.199802   -3.053432   -1.318922
     58          7           0       -3.279154   -2.673647   -1.222025
     59          6           0       -3.054305   -1.360897   -1.307507
     60          6           0       -3.676008    0.917224   -1.599692
     61          7           0       -2.429271    1.398966   -1.465571
     62          1           0       -0.527117    0.711741   -1.133691
     63          6           0       -1.565968    0.407539   -1.254146
     64          7           0       -1.789207   -0.907888   -1.168206
     65          1           0       -6.874693    1.001004   -2.061879
     66          6           0       -5.839446    0.705897   -1.888315
     67          7           0       -5.434827   -0.529315   -1.720292
     68          6           0       -4.064967   -0.409503   -1.536294
     69          6           0       -4.924297    3.098285   -1.972268
     70          7           0       -4.827580    1.632799   -1.827412
 ---------------------------------------------------------------------

 SCF Done:  E(RwB97XD) =  -2048.75265575     A.U. after   15 cycles

 The electronic state is 1-A.
 Alpha  occ. eigenvalues --  -19.25452 -19.21722 -19.20512 -14.52601 -14.52024
 Alpha  occ. eigenvalues --  -14.48780 -14.48558 -14.48165 -14.47454 -14.46733
 Alpha  occ. eigenvalues --  -14.46453 -14.45690 -14.44400 -14.44349 -14.42535
 Alpha  occ. eigenvalues --  -14.41880 -14.41312 -14.41173 -14.40852 -14.40447
 Alpha  occ. eigenvalues --  -10.45036 -10.41097 -10.40019 -10.39813 -10.38141
 Alpha  occ. eigenvalues --  -10.38119 -10.37345 -10.37299 -10.35860 -10.35612
 Alpha  occ. eigenvalues --  -10.34782 -10.34189 -10.34141 -10.34047 -10.33433
 Alpha  occ. eigenvalues --  -10.33289 -10.33224 -10.32797 -10.31264 -10.30745
 Alpha  occ. eigenvalues --  -10.30621 -10.28556 -10.27984  -1.19102  -1.15405
 Alpha  occ. eigenvalues --   -1.13055  -1.12732  -1.11337  -1.10426  -1.09364
 Alpha  occ. eigenvalues --   -1.08951  -1.08410  -1.05212  -1.04846  -1.02129
 Alpha  occ. eigenvalues --   -1.01146  -1.00636  -0.99548  -0.98408  -0.97085
 Alpha  occ. eigenvalues --   -0.96834  -0.96429  -0.92899  -0.90675  -0.87785
 Alpha  occ. eigenvalues --   -0.86094  -0.84045  -0.83945  -0.83325  -0.82468
 Alpha  occ. eigenvalues --   -0.82291  -0.78488  -0.77157  -0.74961  -0.74468
 Alpha  occ. eigenvalues --   -0.73475  -0.73025  -0.73010  -0.71183  -0.70511
 Alpha  occ. eigenvalues --   -0.67224  -0.66887  -0.66453  -0.66182  -0.64357
 Alpha  occ. eigenvalues --   -0.64218  -0.63566  -0.62885  -0.62511  -0.61623
 Alpha  occ. eigenvalues --   -0.61192  -0.60660  -0.60512  -0.59590  -0.59149
 Alpha  occ. eigenvalues --   -0.58669  -0.58178  -0.56972  -0.56728  -0.56119
 Alpha  occ. eigenvalues --   -0.55749  -0.55681  -0.55395  -0.54136  -0.53918
 Alpha  occ. eigenvalues --   -0.53820  -0.53746  -0.53413  -0.53356  -0.52902
 Alpha  occ. eigenvalues --   -0.52769  -0.52181  -0.51968  -0.50839  -0.50380
 Alpha  occ. eigenvalues --   -0.50075  -0.49942  -0.49181  -0.49054  -0.48715
 Alpha  occ. eigenvalues --   -0.48571  -0.48456  -0.48198  -0.47382  -0.47178
 Alpha  occ. eigenvalues --   -0.47047  -0.45884  -0.44912  -0.44827  -0.43192
 Alpha  occ. eigenvalues --   -0.41115  -0.40868  -0.39134  -0.37947  -0.37701
 Alpha  occ. eigenvalues --   -0.37377  -0.37165  -0.37078  -0.36058  -0.34787
 Alpha  occ. eigenvalues --   -0.34421  -0.33979  -0.33601  -0.33371  -0.32958
 Alpha  occ. eigenvalues --   -0.32546  -0.32258  -0.31989  -0.31771  -0.30988
 Alpha  occ. eigenvalues --   -0.30639  -0.29492  -0.25828  -0.25338
 Alpha virt. eigenvalues --    0.03437   0.03745   0.06957   0.07670   0.08792
 Alpha virt. eigenvalues --    0.09205   0.09883   0.10314   0.10940   0.12279
 Alpha virt. eigenvalues --    0.12896   0.13917   0.14252   0.14374   0.14795

 Mulliken charges:
               1
     1  N   -0.309372
     2  C    0.176931
     3  C    0.070942
     4  N   -0.257445
     5  C    0.138735
     6  H    0.026572
     7  N   -0.290828
     8  C    0.135491
     9  H    0.012555
    10  N   -0.286211
    11  C    0.235198
    12  C    0.089780
    13  N   -0.049483
    14  H    0.111098
    15  H    0.083499
    16  H    0.027278
    17  H    0.031697
    18  H    0.023557
    19  N   -0.293249
    20  C    0.244948
    21  C    0.183214
    22  N   -0.115273
    23  H    0.116242
    24  H    0.116349
    25  N   -0.303895
    26  C    0.233854
    27  N   -0.139663
    28  H    0.116841
    29  C    0.182806
    30  O   -0.322751
    31  C   -0.013904
    32  N   -0.219830
    33  C    0.117395
    34  H    0.016996
    35  H    0.025141
    36  H    0.028381
    37  H    0.021429
    38  H    0.052683
    39  H    0.060032
    40  H    0.073519
    41  H    0.024165
    42  C   -0.104301
    43  O   -0.268824
    44  C    0.165232
    45  H    0.130429
    46  N   -0.114056
    47  O   -0.337966
    48  C    0.332087
    49  H    0.046161
    50  C    0.166802
    51  C    0.045616
    52  N   -0.277766
    53  H    0.035711
    54  H    0.038972
    55  H    0.024803
    56  H    0.125785
    57  H    0.117170
    58  N   -0.056378
    59  C    0.087740
    60  C    0.212547
    61  N   -0.261230
    62  H    0.032998
    63  C    0.157480
    64  N   -0.299567
    65  H    0.036644
    66  C    0.112623
    67  N   -0.251770
    68  C    0.040458
    69  C    0.182953
    70  N   -0.295776
 Sum of Mulliken charges =  -0.00000

 Dipole moment (field-independent basis, Debye):
    X=             -6.7049    Y=              6.7251    Z=             -3.0106  Tot=              9.9622
 Quadrupole moment (field-independent basis, Debye-Ang):
   XX=           -149.4448   YY=           -224.9036   ZZ=           -257.7442
   XY=             -6.0173   XZ=             -2.3300   YZ=              9.7345

 Normal termination of Gaussian 16 at Sun Jan 21 18:55:39 2018.
