 Gaussian 16, Revision A.03,
 Gaussian 16:  EM64L-G16RevA.03 25-Dec-2016

 ---------------------------------------
 #p wb97xd/cc-pvdz sp scf=(maxcycles=20)
 ---------------------------------------

 ------------------
 Base pair stacking
 ------------------
 Symbolic Z-matrix:
 Charge =  0 Multiplicity = 1

                         Standard orientation:
 ---------------------------------------------------------------------
 Center     Atomic      Atomic             Coordinates (Angstroms)
 Number     Number       Type             X           Y           Z
 ---------------------------------------------------------------------
      1          7           0        4.900092   -1.276849   -1.588502
      2          6           0        6.260527   -0.705295   -1.611994
      3          6           0        2.713421   -1.509849   -1.549867
      4          7           0        3.240324   -2.793198   -1.560883
      5          6           0        4.536629   -2.601460   -1.583722
      6          1           0        5.281039   -3.398075   -1.597989
      7          7           0        1.211976    0.308871   -1.520807
      8          6           0        2.289500    1.100192   -1.538989
      9          1           0        2.081448    2.169278   -1.533921
     10          7           0        3.579390    0.770717   -1.562377
     11          6           0        3.724340   -0.564718   -1.566656
     12          6           0        1.391224   -1.030126   -1.525709
     13          7           0        0.316851   -1.821690   -1.507596
     14          1           0        0.402300   -2.818642   -1.510383
     15          1           0       -0.609561   -1.445379   -1.490612
     16          1           0        6.737088   -1.009344   -2.437003
     17          1           0        6.203696    0.292646   -1.609718
     18          1           0        6.766526   -1.010493   -0.805269
     19          7           0        5.036244    1.545508    0.980361
     20          6           0        3.662263    1.558338    0.988942
     21          6           0        5.898294    2.685376    0.608541
     22          7           0        0.666797    3.240444    0.479604
     23          1           0       -0.310761    3.044266    0.551241
     24          1           0        0.924396    4.160595    0.183492
     25          7           0        2.875208    2.605969    0.661770
     26          6           0        1.591458    2.311973    0.767459
     27          7           0        1.113008    1.086398    1.163103
     28          1           0        0.115016    0.951332    1.215431
     29          6           0        1.904419   -0.005842    1.504477
     30          8           0        1.372155   -1.068401    1.848576
     31          6           0        3.285990    0.294730    1.395787
     32          7           0        4.401297   -0.495491    1.637751
     33          6           0        5.414049    0.286476    1.378792
     34          1           0        6.461405   -0.005652    1.462387
     35          1           0        6.468118    2.433495   -0.172906
     36          1           0        5.326320    3.467303    0.364211
     37          1           0        6.482458    2.929776    1.381743
     38          1           0       -4.933299    0.725011    0.653240
     39          1           0       -4.930565    0.986138    2.395786
     40          1           0       -3.652822    1.682157    1.398642
     41          1           0       -3.833264   -3.694237    2.204611
     42          6           0       -3.351511   -2.727322    2.058959
     43          8           0       -1.148921   -3.598840    2.186109
     44          6           0       -1.922525   -2.651991    2.045427
     45          1           0       -0.409918   -1.289037    1.838813
     46          7           0       -1.415793   -1.382363    1.854370
     47          8           0       -1.590736    0.856875    1.519087
     48          6           0       -2.130348   -0.223405    1.681809
     49          1           0       -5.164827   -1.617832    1.895532
     50          6           0       -4.075641   -1.614310    1.893296
     51          6           0       -4.307907    0.833314    1.526871
     52          7           0       -3.502484   -0.377708    1.707085
     53          1           0       -5.855465    3.876897   -1.572712
     54          1           0       -4.549611    3.767810   -0.600629
     55          1           0       -6.046849    3.572277    0.019142
     56          1           0       -3.147814   -3.030291   -1.730359
     57          1           0       -4.813645   -2.688104   -1.864610
     58          7           0       -3.885808   -2.356570   -1.690164
     59          6           0       -3.644472   -1.072876   -1.416209
     60          6           0       -4.240439    1.201962   -1.053379
     61          7           0       -2.984360    1.618816   -0.823324
     62          1           0       -1.085120    0.852713   -0.742036
     63          6           0       -2.130588    0.601207   -0.915291
     64          7           0       -2.370335   -0.685206   -1.189573
     65          1           0       -7.447144    1.433549   -1.393331
     66          6           0       -6.412536    1.094396   -1.334126
     67          7           0       -6.021687   -0.142180   -1.523348
     68          6           0       -4.646512   -0.087874   -1.348235
     69          6           0       -5.465931    3.410305   -0.778641
     70          7           0       -5.386625    1.961041   -1.045787
 ---------------------------------------------------------------------

 SCF Done:  E(RwB97XD) =  -2048.70306019     A.U. after   15 cycles

 The electronic state is 1-A.
 Alpha  occ. eigenvalues --  -19.25123 -19.21375 -19.20453 -14.52868 -14.51732
 Alpha  occ. eigenvalues --  -14.48781 -14.48697 -14.48679 -14.47243 -14.46689
 Alpha  occ. eigenvalues --  -14.46450 -14.45981 -14.44771 -14.44532 -14.43002
 Alpha  occ. eigenvalues --  -14.41756 -14.41293 -14.41146 -14.41101 -14.40684
 Alpha  occ. eigenvalues --  -10.44794 -10.41019 -10.40529 -10.39490 -10.38436
 Alpha  occ. eigenvalues --  -10.38056 -10.37679 -10.37153 -10.36437 -10.35872
 Alpha  occ. eigenvalues --  -10.34370 -10.34281 -10.34006 -10.33605 -10.33476
 Alpha  occ. eigenvalues --  -10.33451 -10.33076 -10.32977 -10.31165 -10.31014
 Alpha  occ. eigenvalues --  -10.30522 -10.28636 -10.28024  -1.19010  -1.15935
 Alpha  occ. eigenvalues --   -1.13148  -1.12424  -1.11298  -1.10570  -1.09857
 Alpha  occ. eigenvalues --   -1.08697  -1.08511  -1.05483  -1.05385  -1.01844
 Alpha  occ. eigenvalues --   -1.01501  -1.00949  -0.99660  -0.98476  -0.97482
 Alpha  occ. eigenvalues --   -0.96998  -0.96642  -0.93190  -0.90430  -0.88334
 Alpha  occ. eigenvalues --   -0.86407  -0.84252  -0.84018  -0.82916  -0.82547
 Alpha  occ. eigenvalues --   -0.82509  -0.78267  -0.77605  -0.75465  -0.74610
 Alpha  occ. eigenvalues --   -0.73625  -0.73152  -0.72768  -0.71394  -0.70967
 Alpha  occ. eigenvalues --   -0.67400  -0.67324  -0.66625  -0.66075  -0.64844
 Alpha  occ. eigenvalues --   -0.64279  -0.63739  -0.63096  -0.62567  -0.61880
 Alpha  occ. eigenvalues --   -0.61743  -0.61011  -0.60855  -0.60033  -0.59084
 Alpha  occ. eigenvalues --   -0.58657  -0.58343  -0.57742  -0.56896  -0.56228
 Alpha  occ. eigenvalues --   -0.55863  -0.55857  -0.55601  -0.54885  -0.54297
 Alpha  occ. eigenvalues --   -0.54165  -0.53909  -0.53403  -0.53139  -0.52897
 Alpha  occ. eigenvalues --   -0.52004  -0.51937  -0.51899  -0.50908  -0.50557
 Alpha  occ. eigenvalues --   -0.50066  -0.49868  -0.49373  -0.49193  -0.48887
 Alpha  occ. eigenvalues --   -0.48622  -0.48180  -0.48095  -0.47890  -0.47248
 Alpha  occ. eigenvalues --   -0.47026  -0.45329  -0.45076  -0.44732  -0.42188
 Alpha  occ. eigenvalues --   -0.41295  -0.41251  -0.39024  -0.38174  -0.38125
 Alpha  occ. eigenvalues --   -0.37727  -0.37202  -0.36932  -0.35577  -0.35197
 Alpha  occ. eigenvalues --   -0.34833  -0.34515  -0.33739  -0.33285  -0.32829
 Alpha  occ. eigenvalues --   -0.32457  -0.32386  -0.31800  -0.31275  -0.30809
 Alpha  occ. eigenvalues --   -0.30385  -0.30148  -0.25919  -0.25409
 Alpha virt. eigenvalues --    0.03421   0.03671   0.06419   0.07341   0.08806
 Alpha virt. eigenvalues --    0.09323   0.09762   0.09939   0.10901   0.12582
 Alpha virt. eigenvalues --    0.12858   0.13923   0.14258   0.14347   0.14513

 Mulliken charges:
               1
     1  N   -0.307377
     2  C    0.184102
     3  C    0.069667
     4  N   -0.260890
     5  C    0.144516
     6  H    0.027206
     7  N   -0.277087
     8  C    0.120976
     9  H    0.016558
    10  N   -0.271110
    11  C    0.241891
    12  C    0.073426
    13  N   -0.057345
    14  H    0.110242
    15  H    0.082190
    16  H    0.028654
    17  H    0.023670
    18  H    0.021769
    19  N   -0.289135
    20  C    0.253289
    21  C    0.185001
    22  N   -0.101338
    23  H    0.121924
    24  H    0.117361
    25  N   -0.274741
    26  C    0.166567
    27  N   -0.095725
    28  H    0.115350
    29  C    0.159309
    30  O   -0.320952
    31  C   -0.003709
    32  N   -0.215832
    33  C    0.093291
    34  H    0.021749
    35  H    0.018045
    36  H    0.031393
    37  H    0.023488
    38  H    0.058334
    39  H    0.044665
    40  H    0.080214
    41  H    0.025683
    42  C   -0.103198
    43  O   -0.266216
    44  C    0.175268
    45  H    0.130069
    46  N   -0.119695
    47  O   -0.341355
    48  C    0.331006
    49  H    0.045626
    50  C    0.160331
    51  C    0.065776
    52  N   -0.276457
    53  H    0.037455
    54  H    0.040860
    55  H    0.028365
    56  H    0.121280
    57  H    0.119891
    58  N   -0.060726
    59  C    0.101854
    60  C    0.180811
    61  N   -0.256004
    62  H   -0.000412
    63  C    0.197506
    64  N   -0.308077
    65  H    0.036783
    66  C    0.119609
    67  N   -0.244245
    68  C    0.015164
    69  C    0.180936
    70  N   -0.297493
 Sum of Mulliken charges =  -0.00000

 Dipole moment (field-independent basis, Debye):
    X=             -6.6604    Y=              7.1999    Z=             -2.8706  Tot=             10.2196
 Quadrupole moment (field-independent basis, Debye-Ang):
   XX=           -153.0788   YY=           -228.9034   ZZ=           -256.5100
   XY=             -0.6762   XZ=            -10.6451   YZ=             15.6890

 Normal termination of Gaussian 16 at Sun Jan 21 16:10:44 2018.
