 Gaussian 16, Revision A.03,
 Gaussian 16:  EM64L-G16RevA.03 25-Dec-2016

 ---------------------------------------
 #p wb97xd/cc-pvdz sp scf=(maxcycles=20)
 ---------------------------------------

 ------------------
 Base pair stacking
 ------------------
 Symbolic Z-matrix:
 Charge =  0 Multiplicity = 1

                         Standard orientation:
 ---------------------------------------------------------------------
 Center     Atomic      Atomic             Coordinates (Angstroms)
 Number     Number       Type             X           Y           Z
 ---------------------------------------------------------------------
      1          7           0        4.230204   -2.188955   -1.599900
      2          6           0        5.541652   -1.899756   -2.211825
      3          6           0        2.093347   -2.150074   -1.080617
      4          7           0        2.664715   -3.143519   -0.298750
      5          6           0        3.929227   -3.127185   -0.642890
      6          1           0        4.693603   -3.783942   -0.226566
      7          7           0        0.542679   -0.669673   -2.063884
      8          6           0        1.567137   -0.191827   -2.777843
      9          1           0        1.317808    0.613580   -3.467344
     10          7           0        2.847318   -0.557808   -2.768006
     11          6           0        3.045928   -1.552833   -1.887716
     12          6           0        0.775108   -1.670614   -1.186856
     13          7           0       -0.246245   -2.148928   -0.473249
     14          1           0       -0.120329   -2.889569    0.187680
     15          1           0       -1.171582   -1.783474   -0.574897
     16          1           0        5.884453   -2.719093   -2.671561
     17          1           0        5.443785   -1.161142   -2.878158
     18          1           0        6.189124   -1.622406   -1.502002
     19          7           0        5.628059    1.832701    0.319377
     20          6           0        4.268212    1.933869    0.488516
     21          6           0        6.499230    2.885069   -0.241253
     22          7           0        1.329413    3.762351    0.202315
     23          1           0        0.358694    3.634763    0.403938
     24          1           0        1.598815    4.640160   -0.194673
     25          7           0        3.505519    3.003041    0.173508
     26          6           0        2.230178    2.800134    0.452684
     27          7           0        1.737390    1.639695    0.998617
     28          1           0        0.747399    1.572830    1.178638
     29          6           0        2.503692    0.526888    1.330723
     30          8           0        1.960182   -0.471614    1.818926
     31          6           0        3.875961    0.729866    1.036533
     32          7           0        4.967605   -0.110264    1.208004
     33          6           0        5.982339    0.584460    0.769981
     34          1           0        7.014513    0.232884    0.752842
     35          1           0        6.954634    2.541065   -1.061660
     36          1           0        5.945283    3.682072   -0.478321
     37          1           0        7.185994    3.147289    0.435801
     38          1           0       -4.336543    1.629152    1.234287
     39          1           0       -4.106581    2.015765    2.937900
     40          1           0       -2.924167    2.554275    1.744891
     41          1           0       -3.298399   -2.726626    2.993825
     42          6           0       -2.785917   -1.805638    2.715642
     43          8           0       -0.635264   -2.804517    2.652024
     44          6           0       -1.367345   -1.822939    2.528082
     45          1           0        0.180899   -0.578075    2.036602
     46          7           0       -0.819104   -0.605566    2.177822
     47          8           0       -0.911051    1.609903    1.687467
     48          6           0       -1.484968    0.581023    1.998421
     49          1           0       -4.542240   -0.597424    2.678536
     50          6           0       -3.462938   -0.663665    2.547874
     51          6           0       -3.604088    1.760610    2.016787
     52          7           0       -2.850101    0.516949    2.197232
     53          1           0       -6.576725    2.507706   -3.442505
     54          1           0       -5.122000    2.973192   -2.868758
     55          1           0       -6.483384    3.373385   -2.062178
     56          1           0       -3.644378   -2.894732    0.714486
     57          1           0       -5.321931   -2.594099    0.640028
     58          7           0       -4.392861   -2.311222    0.399146
     59          6           0       -4.163331   -1.204837   -0.311080
     60          6           0       -4.785296    0.759157   -1.501717
     61          7           0       -3.527216    1.114530   -1.810525
     62          1           0       -1.610809    0.447509   -1.522305
     63          6           0       -2.658901    0.234037   -1.316899
     64          7           0       -2.886808   -0.874687   -0.605307
     65          1           0       -8.010233    0.969485   -1.414071
     66          6           0       -6.967070    0.673557   -1.299345
     67          7           0       -6.561761   -0.394268   -0.656571
     68          6           0       -5.180312   -0.351980   -0.777233
     69          6           0       -6.039230    2.667870   -2.614592
     70          7           0       -5.944855    1.417644   -1.836123
 ---------------------------------------------------------------------

 SCF Done:  E(RwB97XD) =  -2048.74106677     A.U. after   15 cycles

 The electronic state is 1-A.
 Alpha  occ. eigenvalues --  -19.25643 -19.21920 -19.20881 -14.52483 -14.52243
 Alpha  occ. eigenvalues --  -14.49464 -14.48246 -14.47835 -14.47568 -14.47195
 Alpha  occ. eigenvalues --  -14.47018 -14.45424 -14.44710 -14.44589 -14.42402
 Alpha  occ. eigenvalues --  -14.42118 -14.41747 -14.40630 -14.40279 -14.40169
 Alpha  occ. eigenvalues --  -10.45218 -10.41635 -10.40169 -10.40030 -10.38580
 Alpha  occ. eigenvalues --  -10.38015 -10.37674 -10.37396 -10.36065 -10.35176
 Alpha  occ. eigenvalues --  -10.34927 -10.34880 -10.34108 -10.33809 -10.33111
 Alpha  occ. eigenvalues --  -10.32934 -10.32801 -10.32767 -10.31505 -10.30801
 Alpha  occ. eigenvalues --  -10.30190 -10.28687 -10.27957  -1.19184  -1.15277
 Alpha  occ. eigenvalues --   -1.13595  -1.12963  -1.11162  -1.10486  -1.09699
 Alpha  occ. eigenvalues --   -1.09041  -1.08894  -1.05105  -1.04761  -1.02240
 Alpha  occ. eigenvalues --   -1.01025  -1.00157  -1.00109  -0.99006  -0.97211
 Alpha  occ. eigenvalues --   -0.97165  -0.96115  -0.92464  -0.90926  -0.87767
 Alpha  occ. eigenvalues --   -0.85913  -0.84711  -0.83393  -0.83249  -0.83056
 Alpha  occ. eigenvalues --   -0.81636  -0.78748  -0.77201  -0.75142  -0.75034
 Alpha  occ. eigenvalues --   -0.74035  -0.73189  -0.72390  -0.70657  -0.70516
 Alpha  occ. eigenvalues --   -0.67827  -0.67016  -0.66409  -0.65815  -0.64794
 Alpha  occ. eigenvalues --   -0.64437  -0.63837  -0.63014  -0.62272  -0.62201
 Alpha  occ. eigenvalues --   -0.60707  -0.60400  -0.60067  -0.59430  -0.59343
 Alpha  occ. eigenvalues --   -0.59159  -0.58740  -0.57251  -0.56104  -0.56052
 Alpha  occ. eigenvalues --   -0.55539  -0.55367  -0.55119  -0.54660  -0.54358
 Alpha  occ. eigenvalues --   -0.53892  -0.53801  -0.53705  -0.53395  -0.53046
 Alpha  occ. eigenvalues --   -0.52813  -0.52219  -0.51124  -0.50593  -0.50280
 Alpha  occ. eigenvalues --   -0.50049  -0.49697  -0.49623  -0.49494  -0.49207
 Alpha  occ. eigenvalues --   -0.48645  -0.48390  -0.48335  -0.48044  -0.47482
 Alpha  occ. eigenvalues --   -0.46425  -0.45850  -0.45743  -0.44605  -0.42951
 Alpha  occ. eigenvalues --   -0.40827  -0.40794  -0.39356  -0.38095  -0.37820
 Alpha  occ. eigenvalues --   -0.37718  -0.37675  -0.36560  -0.35690  -0.35039
 Alpha  occ. eigenvalues --   -0.34585  -0.34372  -0.33417  -0.33163  -0.33068
 Alpha  occ. eigenvalues --   -0.32908  -0.32675  -0.32178  -0.31847  -0.30331
 Alpha  occ. eigenvalues --   -0.30073  -0.29940  -0.26058  -0.25359
 Alpha virt. eigenvalues --    0.02591   0.04102   0.06719   0.08348   0.08591
 Alpha virt. eigenvalues --    0.08815   0.09378   0.10391   0.11368   0.11690
 Alpha virt. eigenvalues --    0.13386   0.13700   0.14174   0.14952   0.15126

 Mulliken charges:
               1
     1  N   -0.306386
     2  C    0.183470
     3  C    0.049102
     4  N   -0.248190
     5  C    0.153621
     6  H    0.026691
     7  N   -0.299482
     8  C    0.128923
     9  H    0.008701
    10  N   -0.284647
    11  C    0.241968
    12  C    0.083981
    13  N   -0.067355
    14  H    0.118809
    15  H    0.087737
    16  H    0.022218
    17  H    0.029544
    18  H    0.020540
    19  N   -0.310774
    20  C    0.258922
    21  C    0.181762
    22  N   -0.123847
    23  H    0.118814
    24  H    0.119634
    25  N   -0.312828
    26  C    0.251703
    27  N   -0.149281
    28  H    0.120742
    29  C    0.199639
    30  O   -0.317142
    31  C   -0.017810
    32  N   -0.228308
    33  C    0.116962
    34  H    0.025449
    35  H    0.026080
    36  H    0.031821
    37  H    0.026179
    38  H    0.063651
    39  H    0.058595
    40  H    0.075262
    41  H    0.021537
    42  C   -0.133379
    43  O   -0.272135
    44  C    0.169424
    45  H    0.132786
    46  N   -0.122394
    47  O   -0.353152
    48  C    0.353201
    49  H    0.042869
    50  C    0.186345
    51  C    0.041002
    52  N   -0.277893
    53  H    0.034240
    54  H    0.042764
    55  H    0.029178
    56  H    0.124788
    57  H    0.115659
    58  N   -0.053602
    59  C    0.079912
    60  C    0.234458
    61  N   -0.265464
    62  H    0.034478
    63  C    0.170936
    64  N   -0.311646
    65  H    0.039392
    66  C    0.140106
    67  N   -0.260939
    68  C    0.023590
    69  C    0.179860
    70  N   -0.310391
 Sum of Mulliken charges =  -0.00000

 Dipole moment (field-independent basis, Debye):
    X=             -6.6952    Y=              7.9495    Z=             -1.5992  Tot=             10.5156
 Quadrupole moment (field-independent basis, Debye-Ang):
   XX=           -154.3085   YY=           -223.6103   ZZ=           -251.8711
   XY=             -3.3940   XZ=            -14.3859   YZ=              1.6813

 Normal termination of Gaussian 16 at Sun Jan 21 18:07:17 2018.
