 Gaussian 16, Revision A.03,
 Gaussian 16:  EM64L-G16RevA.03 25-Dec-2016

 ---------------------------------------
 #p wb97xd/cc-pvdz sp scf=(maxcycles=20)
 ---------------------------------------

 ------------------
 Base pair stacking
 ------------------
 Symbolic Z-matrix:
 Charge =  0 Multiplicity = 1

                         Standard orientation:
 ---------------------------------------------------------------------
 Center     Atomic      Atomic             Coordinates (Angstroms)
 Number     Number       Type             X           Y           Z
 ---------------------------------------------------------------------
      1          7           0       -6.112484   -1.529506    0.699362
      2          6           0       -7.466862   -1.005348    0.961882
      3          6           0       -3.929822   -1.795427    0.648450
      4          7           0       -4.466929   -2.857712   -0.064150
      5          6           0       -5.760399   -2.654988   -0.004951
      6          1           0       -6.510752   -3.301025   -0.461624
      7          7           0       -2.414619   -0.314136    1.684259
      8          6           0       -3.484526    0.385766    2.075429
      9          1           0       -3.267757    1.278090    2.661119
     10          7           0       -4.775942    0.150000    1.852794
     11          6           0       -4.931905   -0.968311    1.125142
     12          6           0       -2.604870   -1.434355    0.953497
     13          7           0       -1.538121   -2.134354    0.562090
     14          1           0       -1.631799   -2.969940    0.019664
     15          1           0       -0.609442   -1.847577    0.797572
     16          1           0       -7.997746   -1.687026    1.465527
     17          1           0       -7.401758   -0.168008    1.503865
     18          1           0       -7.922683   -0.804532    0.094765
     19          7           0       -3.761253    2.281146   -1.241448
     20          6           0       -2.392010    2.227140   -1.139930
     21          6           0       -4.600637    3.435011   -0.861022
     22          7           0        0.621530    3.723318   -0.278659
     23          1           0        1.592196    3.484589   -0.285854
     24          1           0        0.380645    4.633549    0.059241
     25          7           0       -1.589814    3.211192   -0.679312
     26          6           0       -0.315738    2.862203   -0.702838
     27          7           0        0.139964    1.643280   -1.143390
     28          1           0        1.132032    1.463190   -1.125510
     29          6           0       -0.667347    0.615928   -1.621574
     30          8           0       -0.155236   -0.446542   -1.995261
     31          6           0       -2.038778    0.976067   -1.602362
     32          7           0       -3.163623    0.259077   -1.986466
     33          6           0       -4.159312    1.071035   -1.755104
     34          1           0       -5.207901    0.836719   -1.941713
     35          1           0       -5.243473    3.160573   -0.146700
     36          1           0       -4.017305    4.170226   -0.518310
     37          1           0       -5.107761    3.758001   -1.659335
     38          1           0        6.102026    0.953262   -0.181130
     39          1           0        6.254574    1.328110   -1.896027
     40          1           0        4.930357    2.018913   -0.957625
     41          1           0        4.942569   -3.295306   -2.118136
     42          6           0        4.492972   -2.317593   -1.944413
     43          8           0        2.272565   -3.069865   -2.306358
     44          6           0        3.072390   -2.173364   -2.039253
     45          1           0        1.608647   -0.754426   -1.859300
     46          7           0        2.607353   -0.895716   -1.801347
     47          8           0        2.851308    1.305386   -1.298521
     48          6           0        3.354980    0.212985   -1.492501
     49          1           0        6.333167   -1.311456   -1.560797
     50          6           0        5.248703   -1.254700   -1.644862
     51          6           0        5.556229    1.149233   -1.092051
     52          7           0        4.716501   -0.006396   -1.419342
     53          1           0        4.664243    2.361407    4.010950
     54          1           0        3.422422    2.849696    3.072031
     55          1           0        4.954597    2.958167    2.519985
     56          1           0        1.895083   -3.414518    0.264480
     57          1           0        3.551673   -3.268953    0.644777
     58          7           0        2.639677   -2.857455    0.632463
     59          6           0        2.426988   -1.620728    1.086805
     60          6           0        3.063720    0.461955    2.045299
     61          7           0        1.828427    0.988875    2.016417
     62          1           0       -0.067972    0.468228    1.439189
     63          6           0        0.962140    0.119708    1.499693
     64          7           0        1.173213   -1.119416    1.044069
     65          1           0        6.243900    0.339217    2.614158
     66          6           0        5.212439    0.129347    2.329581
     67          7           0        4.800074   -0.995651    1.798543
     68          6           0        3.439425   -0.798094    1.613286
     69          6           0        4.322483    2.414919    3.072688
     70          7           0        4.214269    1.056117    2.507048
 ---------------------------------------------------------------------

 SCF Done:  E(RwB97XD) =  -2048.75131220     A.U. after   15 cycles

 The electronic state is 1-A.
 Alpha  occ. eigenvalues --  -19.25929 -19.22068 -19.20675 -14.52401 -14.52023
 Alpha  occ. eigenvalues --  -14.48841 -14.48706 -14.47835 -14.47040 -14.46965
 Alpha  occ. eigenvalues --  -14.46665 -14.45087 -14.43658 -14.43552 -14.42194
 Alpha  occ. eigenvalues --  -14.42020 -14.41363 -14.41047 -14.40841 -14.40273
 Alpha  occ. eigenvalues --  -10.45526 -10.41235 -10.40293 -10.39187 -10.38262
 Alpha  occ. eigenvalues --  -10.37783 -10.37600 -10.36664 -10.35426 -10.35318
 Alpha  occ. eigenvalues --  -10.35191 -10.34301 -10.34061 -10.33681 -10.33371
 Alpha  occ. eigenvalues --  -10.33306 -10.33169 -10.32078 -10.31201 -10.31003
 Alpha  occ. eigenvalues --  -10.30698 -10.28495 -10.28072  -1.19484  -1.14730
 Alpha  occ. eigenvalues --   -1.13226  -1.13196  -1.11376  -1.10558  -1.09312
 Alpha  occ. eigenvalues --   -1.08580  -1.08536  -1.05051  -1.04067  -1.02550
 Alpha  occ. eigenvalues --   -1.00494  -1.00446  -0.99749  -0.98549  -0.96991
 Alpha  occ. eigenvalues --   -0.96530  -0.96105  -0.92708  -0.91026  -0.87136
 Alpha  occ. eigenvalues --   -0.85513  -0.84065  -0.83998  -0.83697  -0.82404
 Alpha  occ. eigenvalues --   -0.82392  -0.78856  -0.76437  -0.74609  -0.74203
 Alpha  occ. eigenvalues --   -0.73657  -0.73397  -0.72928  -0.71095  -0.69793
 Alpha  occ. eigenvalues --   -0.67382  -0.66565  -0.66329  -0.66125  -0.64477
 Alpha  occ. eigenvalues --   -0.63766  -0.63595  -0.62736  -0.62673  -0.61748
 Alpha  occ. eigenvalues --   -0.60497  -0.60322  -0.59888  -0.59453  -0.58943
 Alpha  occ. eigenvalues --   -0.58792  -0.58368  -0.56735  -0.56601  -0.56351
 Alpha  occ. eigenvalues --   -0.56007  -0.55456  -0.54853  -0.54627  -0.54380
 Alpha  occ. eigenvalues --   -0.53667  -0.53583  -0.53030  -0.52993  -0.52930
 Alpha  occ. eigenvalues --   -0.52523  -0.52272  -0.51873  -0.50881  -0.50294
 Alpha  occ. eigenvalues --   -0.50165  -0.49515  -0.49509  -0.49249  -0.48865
 Alpha  occ. eigenvalues --   -0.48818  -0.48367  -0.47922  -0.47534  -0.47429
 Alpha  occ. eigenvalues --   -0.47010  -0.45638  -0.44991  -0.43990  -0.43892
 Alpha  occ. eigenvalues --   -0.41193  -0.40193  -0.39483  -0.37276  -0.37265
 Alpha  occ. eigenvalues --   -0.37217  -0.37138  -0.36958  -0.36075  -0.34345
 Alpha  occ. eigenvalues --   -0.34083  -0.33775  -0.33467  -0.33413  -0.33302
 Alpha  occ. eigenvalues --   -0.32660  -0.32370  -0.32025  -0.31892  -0.30984
 Alpha  occ. eigenvalues --   -0.30484  -0.29253  -0.25704  -0.25405
 Alpha virt. eigenvalues --    0.02956   0.04656   0.07473   0.07932   0.08463
 Alpha virt. eigenvalues --    0.09048   0.09763   0.10749   0.11047   0.11796
 Alpha virt. eigenvalues --    0.13139   0.14122   0.14505   0.14592   0.15251

 Mulliken charges:
               1
     1  N   -0.311697
     2  C    0.180098
     3  C    0.059823
     4  N   -0.254681
     5  C    0.131140
     6  H    0.025991
     7  N   -0.291038
     8  C    0.134161
     9  H    0.012227
    10  N   -0.291395
    11  C    0.231811
    12  C    0.102998
    13  N   -0.046165
    14  H    0.111960
    15  H    0.090006
    16  H    0.026697
    17  H    0.032709
    18  H    0.022851
    19  N   -0.306892
    20  C    0.255821
    21  C    0.180367
    22  N   -0.117841
    23  H    0.113867
    24  H    0.117049
    25  N   -0.309029
    26  C    0.240495
    27  N   -0.146253
    28  H    0.121979
    29  C    0.180932
    30  O   -0.324648
    31  C   -0.011311
    32  N   -0.223142
    33  C    0.130661
    34  H    0.021328
    35  H    0.030544
    36  H    0.028122
    37  H    0.022413
    38  H    0.054655
    39  H    0.060912
    40  H    0.072253
    41  H    0.025883
    42  C   -0.116982
    43  O   -0.277295
    44  C    0.158225
    45  H    0.134948
    46  N   -0.116885
    47  O   -0.343473
    48  C    0.342003
    49  H    0.046830
    50  C    0.187679
    51  C    0.040987
    52  N   -0.281018
    53  H    0.033640
    54  H    0.040509
    55  H    0.023230
    56  H    0.127725
    57  H    0.115957
    58  N   -0.049841
    59  C    0.097472
    60  C    0.250310
    61  N   -0.274019
    62  H    0.037372
    63  C    0.158849
    64  N   -0.301851
    65  H    0.034830
    66  C    0.119352
    67  N   -0.257610
    68  C    0.010747
    69  C    0.180884
    70  N   -0.308239
 Sum of Mulliken charges =  -0.00000

 Dipole moment (field-independent basis, Debye):
    X=              6.8590    Y=              6.4408    Z=              2.9887  Tot=              9.8723
 Quadrupole moment (field-independent basis, Debye-Ang):
   XX=           -146.2500   YY=           -223.8251   ZZ=           -255.7820
   XY=              7.1751   XZ=              7.0786   YZ=             -2.9354

 Normal termination of Gaussian 16 at Sun Jan 21 06:03:02 2018.
