 Gaussian 16, Revision A.03,
 Gaussian 16:  EM64L-G16RevA.03 25-Dec-2016

 ---------------------------------------
 #p wb97xd/cc-pvdz sp scf=(maxcycles=20)
 ---------------------------------------

 ------------------
 Base pair stacking
 ------------------
 Symbolic Z-matrix:
 Charge =  0 Multiplicity = 1

                         Standard orientation:
 ---------------------------------------------------------------------
 Center     Atomic      Atomic             Coordinates (Angstroms)
 Number     Number       Type             X           Y           Z
 ---------------------------------------------------------------------
      1          7           0       -6.617292   -1.210408    0.481895
      2          6           0       -7.950876   -0.581031    0.423278
      3          6           0       -4.456544   -1.550215    0.712134
      4          7           0       -5.010862   -2.780775    0.390892
      5          6           0       -6.290451   -2.526799    0.265036
      6          1           0       -7.048051   -3.269359    0.012862
      7          7           0       -2.923165    0.155200    1.262807
      8          6           0       -3.970912    0.985486    1.283574
      9          1           0       -3.737890    2.022361    1.521989
     10          7           0       -5.257244    0.728441    1.055120
     11          6           0       -5.434435   -0.572621    0.771834
     12          6           0       -3.134416   -1.147613    0.974491
     13          7           0       -2.089803   -1.977970    0.953279
     14          1           0       -2.199523   -2.950432    0.744672
     15          1           0       -1.162429   -1.656513    1.145064
     16          1           0       -8.554442   -1.012701    1.093761
     17          1           0       -7.869482    0.393861    0.628457
     18          1           0       -8.336157   -0.696190   -0.492302
     19          7           0       -3.213972    1.975989   -1.526701
     20          6           0       -1.856411    1.919045   -1.322155
     21          6           0       -4.069965    3.148004   -1.253989
     22          7           0        1.097164    3.432292   -0.298321
     23          1           0        2.063804    3.188553   -0.224514
     24          1           0        0.839233    4.356171   -0.014365
     25          7           0       -1.082592    2.916180   -0.841543
     26          6           0        0.186942    2.560098   -0.757335
     27          7           0        0.664220    1.322681   -1.115842
     28          1           0        1.650812    1.138407   -1.017713
     29          6           0       -0.113740    0.281622   -1.612670
     30          8           0        0.416104   -0.797144   -1.906383
     31          6           0       -1.479960    0.649176   -1.708824
     32          7           0       -2.579059   -0.076508   -2.147302
     33          6           0       -3.582638    0.748873   -2.021579
     34          1           0       -4.616435    0.512779   -2.276142
     35          1           0       -4.765865    2.904785   -0.579190
     36          1           0       -3.507679    3.893016   -0.897534
     37          1           0       -4.514262    3.442288   -2.099451
     38          1           0        6.533442    0.640415    0.310693
     39          1           0        6.814993    0.947564   -1.401342
     40          1           0        5.430698    1.681004   -0.590693
     41          1           0        5.486370   -3.674289   -1.542303
     42          6           0        5.032939   -2.688306   -1.439979
     43          8           0        2.839385   -3.442822   -1.936079
     44          6           0        3.624410   -2.540678   -1.645135
     45          1           0        2.162671   -1.108430   -1.628568
     46          7           0        3.153229   -1.252413   -1.491499
     47          8           0        3.376869    0.965303   -1.056854
     48          6           0        3.884801   -0.136356   -1.170964
     49          1           0        6.847751   -1.677340   -0.960149
     50          6           0        5.772928   -1.618414   -1.126334
     51          6           0        6.057870    0.803599   -0.644963
     52          7           0        5.235439   -0.359605   -0.988896
     53          1           0        4.141464    3.255429    3.040978
     54          1           0        2.995789    3.407935    1.889343
     55          1           0        4.564347    3.254931    1.464716
     56          1           0        1.269797   -3.393637    1.425763
     57          1           0        2.904026   -3.175147    1.863570
     58          7           0        2.021926   -2.766098    1.627357
     59          6           0        1.857008   -1.442442    1.583416
     60          6           0        2.557651    0.823710    1.771510
     61          7           0        1.361756    1.344975    1.451258
     62          1           0       -0.521701    0.713685    0.946614
     63          6           0        0.478796    0.376854    1.214559
     64          7           0        0.642031   -0.949436    1.258045
     65          1           0        5.680494    0.810123    2.608036
     66          6           0        4.658693    0.545700    2.334275
     67          7           0        4.212957   -0.680957    2.214655
     68          6           0        2.882012   -0.518973    1.858152
     69          6           0        3.865317    2.973382    2.122186
     70          7           0        3.710302    1.506332    2.080391
 ---------------------------------------------------------------------

 SCF Done:  E(RwB97XD) =  -2048.73346538     A.U. after   15 cycles

 The electronic state is 1-A.
 Alpha  occ. eigenvalues --  -19.25941 -19.21925 -19.20524 -14.52437 -14.51786
 Alpha  occ. eigenvalues --  -14.49479 -14.48423 -14.47872 -14.47207 -14.46493
 Alpha  occ. eigenvalues --  -14.46136 -14.44816 -14.43405 -14.42908 -14.42863
 Alpha  occ. eigenvalues --  -14.42083 -14.41930 -14.41795 -14.40824 -14.40631
 Alpha  occ. eigenvalues --  -10.45534 -10.40828 -10.40052 -10.39055 -10.38024
 Alpha  occ. eigenvalues --  -10.37686 -10.37392 -10.36404 -10.36121 -10.35626
 Alpha  occ. eigenvalues --  -10.35096 -10.34728 -10.34119 -10.34100 -10.34013
 Alpha  occ. eigenvalues --  -10.33859 -10.33077 -10.31697 -10.31612 -10.30973
 Alpha  occ. eigenvalues --  -10.30156 -10.29229 -10.27905  -1.19535  -1.14509
 Alpha  occ. eigenvalues --   -1.13110  -1.12967  -1.12057  -1.10370  -1.09324
 Alpha  occ. eigenvalues --   -1.08512  -1.08236  -1.05708  -1.03940  -1.02497
 Alpha  occ. eigenvalues --   -1.01167  -1.00369  -0.99449  -0.98392  -0.97638
 Alpha  occ. eigenvalues --   -0.96304  -0.95945  -0.93370  -0.90992  -0.87057
 Alpha  occ. eigenvalues --   -0.85574  -0.84649  -0.83888  -0.83770  -0.82990
 Alpha  occ. eigenvalues --   -0.82061  -0.78833  -0.76354  -0.74429  -0.74125
 Alpha  occ. eigenvalues --   -0.73587  -0.73452  -0.73336  -0.71804  -0.69776
 Alpha  occ. eigenvalues --   -0.67164  -0.67002  -0.66532  -0.66114  -0.64412
 Alpha  occ. eigenvalues --   -0.63718  -0.63558  -0.63354  -0.62642  -0.61475
 Alpha  occ. eigenvalues --   -0.60897  -0.60619  -0.59959  -0.59481  -0.59016
 Alpha  occ. eigenvalues --   -0.58758  -0.58090  -0.57328  -0.57121  -0.56542
 Alpha  occ. eigenvalues --   -0.55998  -0.55924  -0.55061  -0.54801  -0.54329
 Alpha  occ. eigenvalues --   -0.54003  -0.53428  -0.52991  -0.52712  -0.52631
 Alpha  occ. eigenvalues --   -0.52501  -0.52356  -0.52040  -0.51413  -0.50839
 Alpha  occ. eigenvalues --   -0.49926  -0.49769  -0.49404  -0.49021  -0.48682
 Alpha  occ. eigenvalues --   -0.48588  -0.48157  -0.47966  -0.47618  -0.47542
 Alpha  occ. eigenvalues --   -0.47277  -0.45612  -0.45429  -0.43934  -0.43572
 Alpha  occ. eigenvalues --   -0.41919  -0.40338  -0.39520  -0.37964  -0.37404
 Alpha  occ. eigenvalues --   -0.37142  -0.37100  -0.36487  -0.35663  -0.34354
 Alpha  occ. eigenvalues --   -0.34224  -0.34072  -0.33770  -0.33113  -0.32836
 Alpha  occ. eigenvalues --   -0.32558  -0.32043  -0.31890  -0.31738  -0.31613
 Alpha  occ. eigenvalues --   -0.31100  -0.28712  -0.26489  -0.25167
 Alpha virt. eigenvalues --    0.03162   0.04704   0.07287   0.07720   0.08722
 Alpha virt. eigenvalues --    0.09259   0.09833   0.10155   0.10983   0.11387
 Alpha virt. eigenvalues --    0.13072   0.13533   0.14368   0.14640   0.14777

 Mulliken charges:
               1
     1  N   -0.312130
     2  C    0.180121
     3  C    0.053944
     4  N   -0.257629
     5  C    0.133370
     6  H    0.028548
     7  N   -0.276398
     8  C    0.130094
     9  H    0.016542
    10  N   -0.290328
    11  C    0.229110
    12  C    0.105929
    13  N   -0.048413
    14  H    0.108408
    15  H    0.088539
    16  H    0.027655
    17  H    0.033394
    18  H    0.026340
    19  N   -0.295255
    20  C    0.244536
    21  C    0.175912
    22  N   -0.083475
    23  H    0.107703
    24  H    0.112270
    25  N   -0.294504
    26  C    0.206950
    27  N   -0.124483
    28  H    0.119848
    29  C    0.140540
    30  O   -0.321162
    31  C    0.018914
    32  N   -0.221726
    33  C    0.117169
    34  H    0.023488
    35  H    0.025829
    36  H    0.025783
    37  H    0.021351
    38  H    0.050984
    39  H    0.064405
    40  H    0.070850
    41  H    0.030005
    42  C   -0.112206
    43  O   -0.267475
    44  C    0.176518
    45  H    0.134634
    46  N   -0.131325
    47  O   -0.345750
    48  C    0.352044
    49  H    0.046681
    50  C    0.180613
    51  C    0.039238
    52  N   -0.285369
    53  H    0.035599
    54  H    0.028301
    55  H    0.021577
    56  H    0.122275
    57  H    0.118492
    58  N   -0.062775
    59  C    0.117878
    60  C    0.241275
    61  N   -0.284561
    62  H    0.037604
    63  C    0.177284
    64  N   -0.303680
    65  H    0.034253
    66  C    0.109767
    67  N   -0.251747
    68  C    0.001035
    69  C    0.177882
    70  N   -0.301089
 Sum of Mulliken charges =  -0.00000

 Dipole moment (field-independent basis, Debye):
    X=              6.2086    Y=              5.9979    Z=              3.6285  Tot=              9.3642
 Quadrupole moment (field-independent basis, Debye-Ang):
   XX=           -143.1051   YY=           -226.7483   ZZ=           -256.8231
   XY=             11.7162   XZ=             10.8717   YZ=             -9.6023

 Normal termination of Gaussian 16 at Sun Jan 21 07:15:05 2018.
