 Gaussian 16, Revision A.03,
 Gaussian 16:  EM64L-G16RevA.03 25-Dec-2016

 ---------------------------------------
 #p wb97xd/cc-pvdz sp scf=(maxcycles=20)
 ---------------------------------------

 ------------------
 Base pair stacking
 ------------------
 Symbolic Z-matrix:
 Charge =  0 Multiplicity = 1

                         Standard orientation:
 ---------------------------------------------------------------------
 Center     Atomic      Atomic             Coordinates (Angstroms)
 Number     Number       Type             X           Y           Z
 ---------------------------------------------------------------------
      1          7           0       -7.202903   -1.134716    0.038321
      2          6           0       -8.551686   -0.569713    0.237236
      3          6           0       -5.035162   -1.494831    0.130686
      4          7           0       -5.557111   -2.478655   -0.696604
      5          6           0       -6.842194   -2.222316   -0.719133
      6          1           0       -7.579913   -2.799813   -1.277010
      7          7           0       -3.547300   -0.160611    1.383296
      8          6           0       -4.615690    0.557543    1.744363
      9          1           0       -4.409758    1.395475    2.408990
     10          7           0       -5.894270    0.396789    1.409258
     11          6           0       -6.037574   -0.659036    0.591266
     12          6           0       -3.724589   -1.216561    0.559523
     13          7           0       -2.659328   -1.934653    0.197979
     14          1           0       -2.743732   -2.724674   -0.410264
     15          1           0       -1.741067   -1.707556    0.522600
     16          1           0       -9.146706   -1.260593    0.648083
     17          1           0       -8.495642    0.223376    0.843027
     18          1           0       -8.930494   -0.287630   -0.644207
     19          7           0       -2.478852    2.477148   -1.504862
     20          6           0       -1.127091    2.343346   -1.297766
     21          6           0       -3.256392    3.714787   -1.294211
     22          7           0        1.921646    3.714131   -0.355472
     23          1           0        2.870776    3.412593   -0.269036
     24          1           0        1.724931    4.666411   -0.120581
     25          7           0       -0.288793    3.312230   -0.870476
     26          6           0        0.955389    2.879705   -0.767758
     27          7           0        1.350474    1.596873   -1.060593
     28          1           0        2.323449    1.354580   -0.953007
     29          6           0        0.505152    0.583628   -1.501762
     30          8           0        0.963182   -0.541104   -1.738270
     31          6           0       -0.834800    1.033206   -1.616995
     32          7           0       -1.980021    0.358087   -2.016473
     33          6           0       -2.927749    1.252110   -1.934314
     34          1           0       -3.975525    1.070324   -2.175953
     35          1           0       -3.964162    3.552923   -0.607435
     36          1           0       -2.645911    4.439587   -0.977587
     37          1           0       -3.683740    3.992318   -2.153954
     38          1           0        7.168378    0.612367    0.399210
     39          1           0        7.463132    0.810193   -1.326662
     40          1           0        6.131966    1.673260   -0.555638
     41          1           0        5.838295   -3.717041   -1.223633
     42          6           0        5.449852   -2.699776   -1.173372
     43          8           0        3.210409   -3.335887   -1.628755
     44          6           0        4.053086   -2.472351   -1.385851
     45          1           0        2.686957   -0.949664   -1.444636
     46          7           0        3.666623   -1.150014   -1.300284
     47          8           0        4.034564    1.068377   -0.983181
     48          6           0        4.469885   -0.068300   -1.039117
     49          1           0        7.327850   -1.784480   -0.747728
     50          6           0        6.258495   -1.664981   -0.916656
     51          6           0        6.700970    0.755494   -0.563652
     52          7           0        5.803920   -0.368565   -0.845697
     53          1           0        3.430293    2.020623    4.422690
     54          1           0        2.285470    2.629790    3.432534
     55          1           0        3.858961    2.707628    3.005756
     56          1           0        0.733059   -3.344550    0.063163
     57          1           0        2.359604   -3.301359    0.575593
     58          7           0        1.468381   -2.849187    0.525819
     59          6           0        1.270353   -1.639350    1.053316
     60          6           0        1.912995    0.339364    2.208074
     61          7           0        0.705567    0.922347    2.126272
     62          1           0       -1.159493    0.530166    1.372363
     63          6           0       -0.151835    0.132000    1.483529
     64          7           0        0.044582   -1.080071    0.954465
     65          1           0        5.032031    0.032938    3.001719
     66          6           0        4.018248   -0.109395    2.626317
     67          7           0        3.603992   -1.174193    1.984222
     68          6           0        2.270742   -0.902667    1.713206
     69          6           0        3.164779    2.155795    3.468105
     70          7           0        3.046916    0.846707    2.796976
 ---------------------------------------------------------------------

 SCF Done:  E(RwB97XD) =  -2048.74785985     A.U. after   15 cycles

 The electronic state is 1-A.
 Alpha  occ. eigenvalues --  -19.26156 -19.22543 -19.20917 -14.52664 -14.50850
 Alpha  occ. eigenvalues --  -14.49291 -14.48833 -14.48136 -14.47233 -14.47162
 Alpha  occ. eigenvalues --  -14.45208 -14.43897 -14.42290 -14.42261 -14.42221
 Alpha  occ. eigenvalues --  -14.42008 -14.41970 -14.41328 -14.40934 -14.40522
 Alpha  occ. eigenvalues --  -10.45753 -10.41540 -10.40569 -10.38540 -10.37917
 Alpha  occ. eigenvalues --  -10.37569 -10.36458 -10.35738 -10.35714 -10.35314
 Alpha  occ. eigenvalues --  -10.34609 -10.34541 -10.33882 -10.33803 -10.33490
 Alpha  occ. eigenvalues --  -10.33363 -10.32796 -10.31393 -10.31203 -10.30803
 Alpha  occ. eigenvalues --  -10.30698 -10.29047 -10.28327  -1.19691  -1.13597
 Alpha  occ. eigenvalues --   -1.13560  -1.13421  -1.11882  -1.10760  -1.09576
 Alpha  occ. eigenvalues --   -1.08907  -1.06941  -1.05370  -1.02822  -1.02474
 Alpha  occ. eigenvalues --   -1.00744  -1.00144  -0.99209  -0.98771  -0.97409
 Alpha  occ. eigenvalues --   -0.96686  -0.94582  -0.92975  -0.91203  -0.85895
 Alpha  occ. eigenvalues --   -0.84438  -0.84357  -0.84245  -0.83996  -0.82767
 Alpha  occ. eigenvalues --   -0.82556  -0.79091  -0.75071  -0.74792  -0.73963
 Alpha  occ. eigenvalues --   -0.73633  -0.73297  -0.72788  -0.71476  -0.68403
 Alpha  occ. eigenvalues --   -0.67666  -0.66798  -0.66678  -0.64785  -0.64644
 Alpha  occ. eigenvalues --   -0.63962  -0.63085  -0.62901  -0.62190  -0.62021
 Alpha  occ. eigenvalues --   -0.60493  -0.59896  -0.59737  -0.58762  -0.58623
 Alpha  occ. eigenvalues --   -0.58340  -0.57723  -0.56891  -0.56759  -0.56653
 Alpha  occ. eigenvalues --   -0.56251  -0.55608  -0.54659  -0.54378  -0.53869
 Alpha  occ. eigenvalues --   -0.53725  -0.53616  -0.53116  -0.52802  -0.52349
 Alpha  occ. eigenvalues --   -0.52138  -0.51863  -0.51240  -0.51043  -0.50563
 Alpha  occ. eigenvalues --   -0.50429  -0.49747  -0.49425  -0.49172  -0.48830
 Alpha  occ. eigenvalues --   -0.48472  -0.48199  -0.47915  -0.47723  -0.47419
 Alpha  occ. eigenvalues --   -0.47348  -0.45510  -0.44961  -0.44221  -0.42822
 Alpha  occ. eigenvalues --   -0.41610  -0.39731  -0.38984  -0.37612  -0.37511
 Alpha  occ. eigenvalues --   -0.37438  -0.36622  -0.35739  -0.35435  -0.34741
 Alpha  occ. eigenvalues --   -0.34035  -0.33933  -0.33649  -0.33054  -0.32712
 Alpha  occ. eigenvalues --   -0.32483  -0.32234  -0.32123  -0.31965  -0.31437
 Alpha  occ. eigenvalues --   -0.30696  -0.27744  -0.26123  -0.25679
 Alpha virt. eigenvalues --    0.02879   0.05772   0.07546   0.08177   0.08815
 Alpha virt. eigenvalues --    0.09290   0.09561   0.10527   0.11216   0.12483
 Alpha virt. eigenvalues --    0.12732   0.13615   0.14403   0.14628   0.16238

 Mulliken charges:
               1
     1  N   -0.310298
     2  C    0.180774
     3  C    0.028915
     4  N   -0.256205
     5  C    0.131205
     6  H    0.027685
     7  N   -0.286422
     8  C    0.127823
     9  H    0.014721
    10  N   -0.288691
    11  C    0.234374
    12  C    0.107129
    13  N   -0.039501
    14  H    0.107820
    15  H    0.089949
    16  H    0.027062
    17  H    0.035653
    18  H    0.025007
    19  N   -0.308674
    20  C    0.248771
    21  C    0.180638
    22  N   -0.125650
    23  H    0.112792
    24  H    0.118551
    25  N   -0.306283
    26  C    0.247595
    27  N   -0.133624
    28  H    0.117471
    29  C    0.168874
    30  O   -0.325258
    31  C   -0.007664
    32  N   -0.225045
    33  C    0.131331
    34  H    0.030634
    35  H    0.033253
    36  H    0.028052
    37  H    0.023908
    38  H    0.056959
    39  H    0.062386
    40  H    0.072842
    41  H    0.030733
    42  C   -0.094975
    43  O   -0.286857
    44  C    0.171309
    45  H    0.137194
    46  N   -0.128609
    47  O   -0.353918
    48  C    0.362608
    49  H    0.047997
    50  C    0.178521
    51  C    0.040477
    52  N   -0.293701
    53  H    0.030290
    54  H    0.041418
    55  H    0.018089
    56  H    0.118103
    57  H    0.117171
    58  N   -0.028002
    59  C    0.103694
    60  C    0.243154
    61  N   -0.270800
    62  H    0.036065
    63  C    0.155100
    64  N   -0.302011
    65  H    0.024086
    66  C    0.125288
    67  N   -0.262338
    68  C    0.010966
    69  C    0.180728
    70  N   -0.310640
 Sum of Mulliken charges =  -0.00000

 Dipole moment (field-independent basis, Debye):
    X=              7.0179    Y=              6.1213    Z=              2.2300  Tot=              9.5757
 Quadrupole moment (field-independent basis, Debye-Ang):
   XX=           -138.6802   YY=           -225.4796   ZZ=           -250.2680
   XY=              9.3105   XZ=             18.8917   YZ=             -1.7838

 Normal termination of Gaussian 16 at Sun Jan 21 17:56:16 2018.
