 Gaussian 16, Revision A.03,
 Gaussian 16:  EM64L-G16RevA.03 25-Dec-2016

 ---------------------------------------
 #p wb97xd/cc-pvdz sp scf=(maxcycles=20)
 ---------------------------------------

 ------------------
 Base pair stacking
 ------------------
 Symbolic Z-matrix:
 Charge =  0 Multiplicity = 1

                         Standard orientation:
 ---------------------------------------------------------------------
 Center     Atomic      Atomic             Coordinates (Angstroms)
 Number     Number       Type             X           Y           Z
 ---------------------------------------------------------------------
      1          7           0        4.877597   -1.594805   -1.600230
      2          6           0        6.230149   -1.075019   -1.880298
      3          6           0        2.698145   -1.781152   -1.370886
      4          7           0        3.233953   -3.004338   -0.994760
      5          6           0        4.525542   -2.843110   -1.147990
      6          1           0        5.274455   -3.608906   -0.943975
      7          7           0        1.185941   -0.035873   -1.850642
      8          6           0        2.254525    0.696391   -2.181527
      9          1           0        2.038489    1.711749   -2.511137
     10          7           0        3.543865    0.364288   -2.166447
     11          6           0        3.699075   -0.902230   -1.746599
     12          6           0        1.375382   -1.306304   -1.432076
     13          7           0        0.309951   -2.038845   -1.101334
     14          1           0        0.403100   -2.983989   -0.786303
     15          1           0       -0.617182   -1.668093   -1.157148
     16          1           0        6.663830   -1.634094   -2.587072
     17          1           0        6.165519   -0.129388   -2.197672
     18          1           0        6.781444   -1.108103   -1.046642
     19          7           0        5.047798    1.753945    0.925429
     20          6           0        3.675060    1.783149    0.978233
     21          6           0        5.911314    2.885974    0.533582
     22          7           0        0.685522    3.504473    0.576443
     23          1           0       -0.291554    3.319519    0.678169
     24          1           0        0.944694    4.423514    0.278254
     25          7           0        2.890742    2.842375    0.683396
     26          6           0        1.607550    2.563030    0.828344
     27          7           0        1.127132    1.340543    1.231118
     28          1           0        0.129760    1.217068    1.314585
     29          6           0        1.915716    0.236567    1.539702
     30          8           0        1.381843   -0.821905    1.893757
     31          6           0        3.296647    0.521335    1.388652
     32          7           0        4.409423   -0.283825    1.589476
     33          6           0        5.422814    0.487737    1.303242
     34          1           0        6.468670    0.182529    1.351224
     35          1           0        6.452686    2.632725   -0.267403
     36          1           0        5.341367    3.676370    0.312889
     37          1           0        6.522885    3.117983    1.289203
     38          1           0       -4.936359    1.055090    0.913425
     39          1           0       -4.874605    1.304057    2.656657
     40          1           0       -3.621086    1.991644    1.623559
     41          1           0       -3.841093   -3.387687    2.399623
     42          6           0       -3.352502   -2.425609    2.244910
     43          8           0       -1.157756   -3.324289    2.295507
     44          6           0       -1.923886   -2.367295    2.185974
     45          1           0       -0.402182   -1.021134    1.939803
     46          7           0       -1.408105   -1.102517    1.987062
     47          8           0       -1.566419    1.140922    1.672264
     48          6           0       -2.113651    0.066069    1.845167
     49          1           0       -5.156484   -1.293393    2.147117
     50          6           0       -4.067969   -1.302891    2.109909
     51          6           0       -4.282021    1.149822    1.767201
     52          7           0       -3.486051   -0.071973    1.913497
     53          1           0       -5.902350    3.393686   -2.673211
     54          1           0       -4.545022    3.591688   -1.789726
     55          1           0       -6.004951    3.621796   -1.060498
     56          1           0       -3.151898   -3.220214   -0.734915
     57          1           0       -4.825242   -2.923306   -0.882832
     58          7           0       -3.892024   -2.562390   -0.875057
     59          6           0       -3.646531   -1.261505   -1.044161
     60          6           0       -4.240218    1.014303   -1.404671
     61          7           0       -2.976917    1.470671   -1.389583
     62          1           0       -1.069990    0.753190   -1.167210
     63          6           0       -2.121239    0.469556   -1.193412
     64          7           0       -2.365148   -0.834024   -1.023827
     65          1           0       -7.462367    1.155315   -1.628368
     66          6           0       -6.423386    0.843280   -1.518410
     67          7           0       -6.033441   -0.391891   -1.318463
     68          6           0       -4.651289   -0.297526   -1.244484
     69          6           0       -5.466724    3.204935   -1.793099
     70          7           0       -5.390367    1.746406   -1.581284
 ---------------------------------------------------------------------

 SCF Done:  E(RwB97XD) =  -2048.75076915     A.U. after   15 cycles

 The electronic state is 1-A.
 Alpha  occ. eigenvalues --  -19.25414 -19.21714 -19.20581 -14.52701 -14.51994
 Alpha  occ. eigenvalues --  -14.48998 -14.48413 -14.48314 -14.47378 -14.46780
 Alpha  occ. eigenvalues --  -14.46647 -14.45653 -14.44593 -14.44545 -14.42553
 Alpha  occ. eigenvalues --  -14.42013 -14.41259 -14.41018 -14.40958 -14.40516
 Alpha  occ. eigenvalues --  -10.45019 -10.41220 -10.40205 -10.39779 -10.38229
 Alpha  occ. eigenvalues --  -10.38176 -10.37445 -10.37318 -10.36127 -10.35575
 Alpha  occ. eigenvalues --  -10.34568 -10.34481 -10.34067 -10.33730 -10.33691
 Alpha  occ. eigenvalues --  -10.33221 -10.33162 -10.32900 -10.31104 -10.30884
 Alpha  occ. eigenvalues --  -10.30690 -10.28407 -10.28243  -1.19015  -1.15474
 Alpha  occ. eigenvalues --   -1.13203  -1.12701  -1.11026  -1.10727  -1.09595
 Alpha  occ. eigenvalues --   -1.08863  -1.08546  -1.05158  -1.05038  -1.02047
 Alpha  occ. eigenvalues --   -1.01181  -1.00542  -0.99718  -0.98582  -0.97157
 Alpha  occ. eigenvalues --   -0.96764  -0.96680  -0.92848  -0.90628  -0.87883
 Alpha  occ. eigenvalues --   -0.86101  -0.84275  -0.83776  -0.83171  -0.82652
 Alpha  occ. eigenvalues --   -0.82206  -0.78465  -0.77270  -0.75075  -0.74731
 Alpha  occ. eigenvalues --   -0.73634  -0.72938  -0.72861  -0.71038  -0.70615
 Alpha  occ. eigenvalues --   -0.67433  -0.67019  -0.66274  -0.66140  -0.64465
 Alpha  occ. eigenvalues --   -0.64364  -0.63629  -0.62724  -0.62634  -0.61840
 Alpha  occ. eigenvalues --   -0.61033  -0.60676  -0.60485  -0.59631  -0.59136
 Alpha  occ. eigenvalues --   -0.58885  -0.58374  -0.57064  -0.56561  -0.55966
 Alpha  occ. eigenvalues --   -0.55760  -0.55644  -0.55393  -0.54365  -0.54084
 Alpha  occ. eigenvalues --   -0.53834  -0.53689  -0.53496  -0.53069  -0.53020
 Alpha  occ. eigenvalues --   -0.52861  -0.51988  -0.51677  -0.50558  -0.50346
 Alpha  occ. eigenvalues --   -0.50207  -0.50016  -0.49318  -0.49119  -0.48858
 Alpha  occ. eigenvalues --   -0.48828  -0.48373  -0.48265  -0.47889  -0.47210
 Alpha  occ. eigenvalues --   -0.46888  -0.45855  -0.45496  -0.44707  -0.42753
 Alpha  occ. eigenvalues --   -0.41138  -0.40935  -0.39087  -0.38092  -0.37841
 Alpha  occ. eigenvalues --   -0.37373  -0.37299  -0.37046  -0.35803  -0.34950
 Alpha  occ. eigenvalues --   -0.34518  -0.34109  -0.33430  -0.33259  -0.32976
 Alpha  occ. eigenvalues --   -0.32695  -0.32641  -0.31915  -0.31803  -0.30760
 Alpha  occ. eigenvalues --   -0.30494  -0.29890  -0.25853  -0.25550
 Alpha virt. eigenvalues --    0.03163   0.03875   0.06677   0.07950   0.08872
 Alpha virt. eigenvalues --    0.09152   0.09707   0.10299   0.10965   0.12297
 Alpha virt. eigenvalues --    0.12895   0.13815   0.14334   0.14497   0.14627

 Mulliken charges:
               1
     1  N   -0.306033
     2  C    0.179863
     3  C    0.060826
     4  N   -0.256416
     5  C    0.146749
     6  H    0.026699
     7  N   -0.290309
     8  C    0.128175
     9  H    0.011385
    10  N   -0.281215
    11  C    0.242015
    12  C    0.082152
    13  N   -0.055158
    14  H    0.114637
    15  H    0.084408
    16  H    0.026439
    17  H    0.030194
    18  H    0.019518
    19  N   -0.305915
    20  C    0.265844
    21  C    0.183597
    22  N   -0.123183
    23  H    0.120238
    24  H    0.117984
    25  N   -0.308187
    26  C    0.241903
    27  N   -0.135660
    28  H    0.117564
    29  C    0.182723
    30  O   -0.321263
    31  C   -0.017261
    32  N   -0.221397
    33  C    0.109365
    34  H    0.022590
    35  H    0.024520
    36  H    0.031162
    37  H    0.023888
    38  H    0.060187
    39  H    0.057235
    40  H    0.075480
    41  H    0.021692
    42  C   -0.103300
    43  O   -0.269351
    44  C    0.168895
    45  H    0.130318
    46  N   -0.118631
    47  O   -0.346199
    48  C    0.341069
    49  H    0.044776
    50  C    0.161011
    51  C    0.047273
    52  N   -0.275724
    53  H    0.035216
    54  H    0.040962
    55  H    0.027509
    56  H    0.124061
    57  H    0.116403
    58  N   -0.052960
    59  C    0.090930
    60  C    0.210865
    61  N   -0.262158
    62  H    0.025663
    63  C    0.170690
    64  N   -0.310078
    65  H    0.037125
    66  C    0.125974
    67  N   -0.251747
    68  C    0.020820
    69  C    0.181759
    70  N   -0.298205
 Sum of Mulliken charges =  -0.00000

 Dipole moment (field-independent basis, Debye):
    X=             -6.7740    Y=              7.2154    Z=             -2.1120  Tot=             10.1198
 Quadrupole moment (field-independent basis, Debye-Ang):
   XX=           -152.2525   YY=           -224.7123   ZZ=           -255.9830
   XY=             -2.8338   XZ=             -9.7200   YZ=              9.5326

 Normal termination of Gaussian 16 at Sun Jan 21 04:16:22 2018.
