 Gaussian 16, Revision A.03,
 Gaussian 16:  EM64L-G16RevA.03 25-Dec-2016

 ---------------------------------------
 #p wb97xd/cc-pvdz sp scf=(maxcycles=20)
 ---------------------------------------

 ------------------
 Base pair stacking
 ------------------
 Symbolic Z-matrix:
 Charge =  0 Multiplicity = 1

                         Standard orientation:
 ---------------------------------------------------------------------
 Center     Atomic      Atomic             Coordinates (Angstroms)
 Number     Number       Type             X           Y           Z
 ---------------------------------------------------------------------
      1          7           0       -6.632816   -1.229806    0.467738
      2          6           0       -7.970413   -0.606263    0.463042
      3          6           0       -4.468739   -1.571948    0.660196
      4          7           0       -5.017759   -2.779075    0.252578
      5          6           0       -6.299558   -2.524636    0.152945
      6          1           0       -7.054306   -3.251446   -0.148804
      7          7           0       -2.942102    0.098090    1.325982
      8          6           0       -3.994567    0.917968    1.413584
      9          1           0       -3.766207    1.936007    1.726190
     10          7           0       -5.280728    0.670279    1.174129
     11          6           0       -5.451988   -0.607576    0.797057
     12          6           0       -3.147442   -1.181350    0.943948
     13          7           0       -2.098107   -2.001301    0.855909
     14          1           0       -2.203370   -2.956486    0.577073
     15          1           0       -1.171483   -1.688930    1.065553
     16          1           0       -8.567340   -1.089789    1.103397
     17          1           0       -7.893510    0.351427    0.738811
     18          1           0       -8.360580   -0.656324   -0.456344
     19          7           0       -3.189619    2.046864   -1.531351
     20          6           0       -1.831377    1.983729   -1.333285
     21          6           0       -4.037076    3.226778   -1.266165
     22          7           0        1.136602    3.489282   -0.340234
     23          1           0        2.102125    3.240422   -0.268959
     24          1           0        0.885760    4.417550   -0.064363
     25          7           0       -1.049047    2.980959   -0.866868
     26          6           0        0.218747    2.618035   -0.785614
     27          7           0        0.686646    1.374161   -1.133967
     28          1           0        1.672621    1.184878   -1.039088
     29          6           0       -0.100176    0.332864   -1.616128
     30          8           0        0.421603   -0.752038   -1.901580
     31          6           0       -1.464632    0.707735   -1.708935
     32          7           0       -2.570374   -0.015658   -2.134294
     33          6           0       -3.568280    0.817042   -2.011789
     34          1           0       -4.604801    0.584687   -2.258565
     35          1           0       -4.730889    2.994669   -0.585317
     36          1           0       -3.468453    3.971937   -0.920229
     37          1           0       -4.484024    3.515167   -2.112261
     38          1           0        6.559051    0.670684    0.268996
     39          1           0        6.833474    0.958704   -1.447505
     40          1           0        5.457900    1.708766   -0.637202
     41          1           0        5.476255   -3.656159   -1.534497
     42          6           0        5.029333   -2.666441   -1.439871
     43          8           0        2.828680   -3.412590   -1.916887
     44          6           0        3.620654   -2.512334   -1.639209
     45          1           0        2.167692   -1.071115   -1.629662
     46          7           0        3.158064   -1.219723   -1.496272
     47          8           0        3.397368    1.000883   -1.085404
     48          6           0        3.898034   -0.104946   -1.190911
     49          1           0        6.852695   -1.661728   -0.979785
     50          6           0        5.777388   -1.597952   -1.140986
     51          6           0        6.079474    0.827052   -0.685785
     52          7           0        5.248237   -0.334566   -1.013596
     53          1           0        4.114866    3.103978    3.287144
     54          1           0        2.961318    3.333380    2.156302
     55          1           0        4.528131    3.221856    1.712733
     56          1           0        1.272581   -3.426579    1.204178
     57          1           0        2.908134   -3.230502    1.647610
     58          7           0        2.022219   -2.810797    1.447063
     59          6           0        1.849257   -1.488560    1.501394
     60          6           0        2.537677    0.762052    1.851460
     61          7           0        1.336814    1.297862    1.577107
     62          1           0       -0.545940    0.693439    1.038104
     63          6           0        0.458147    0.344167    1.274936
     64          7           0        0.629449   -0.980679    1.219971
     65          1           0        5.665596    0.706811    2.667085
     66          6           0        4.643722    0.456760    2.380415
     67          7           0        4.204486   -0.760601    2.173539
     68          6           0        2.870470   -0.581299    1.837419
     69          6           0        3.834785    2.888400    2.351684
     70          7           0        3.688161    1.427421    2.203132
 ---------------------------------------------------------------------

 SCF Done:  E(RwB97XD) =  -2048.74380135     A.U. after   15 cycles

 The electronic state is 1-A.
 Alpha  occ. eigenvalues --  -19.25955 -19.21968 -19.20556 -14.52434 -14.51742
 Alpha  occ. eigenvalues --  -14.49408 -14.48490 -14.47884 -14.47056 -14.46622
 Alpha  occ. eigenvalues --  -14.46366 -14.44770 -14.43304 -14.43049 -14.42736
 Alpha  occ. eigenvalues --  -14.42011 -14.41951 -14.41691 -14.40754 -14.40659
 Alpha  occ. eigenvalues --  -10.45542 -10.40954 -10.40092 -10.38951 -10.38084
 Alpha  occ. eigenvalues --  -10.37699 -10.37337 -10.36343 -10.36021 -10.35604
 Alpha  occ. eigenvalues --  -10.34987 -10.34663 -10.34174 -10.34013 -10.33821
 Alpha  occ. eigenvalues --  -10.33761 -10.33110 -10.31675 -10.31553 -10.30979
 Alpha  occ. eigenvalues --  -10.30296 -10.29150 -10.27950  -1.19523  -1.14440
 Alpha  occ. eigenvalues --   -1.13122  -1.13004  -1.11983  -1.10402  -1.09322
 Alpha  occ. eigenvalues --   -1.08447  -1.08242  -1.05612  -1.03833  -1.02512
 Alpha  occ. eigenvalues --   -1.01054  -1.00276  -0.99545  -0.98415  -0.97560
 Alpha  occ. eigenvalues --   -0.96333  -0.95863  -0.93267  -0.90995  -0.86947
 Alpha  occ. eigenvalues --   -0.85440  -0.84565  -0.83899  -0.83798  -0.82914
 Alpha  occ. eigenvalues --   -0.82136  -0.78839  -0.76243  -0.74450  -0.73999
 Alpha  occ. eigenvalues --   -0.73529  -0.73478  -0.73355  -0.71698  -0.69644
 Alpha  occ. eigenvalues --   -0.67215  -0.66904  -0.66539  -0.65982  -0.64421
 Alpha  occ. eigenvalues --   -0.63608  -0.63573  -0.63246  -0.62615  -0.61546
 Alpha  occ. eigenvalues --   -0.60792  -0.60459  -0.59816  -0.59479  -0.58892
 Alpha  occ. eigenvalues --   -0.58739  -0.58162  -0.57174  -0.57054  -0.56466
 Alpha  occ. eigenvalues --   -0.55990  -0.55898  -0.54911  -0.54686  -0.54344
 Alpha  occ. eigenvalues --   -0.53822  -0.53479  -0.52928  -0.52723  -0.52667
 Alpha  occ. eigenvalues --   -0.52502  -0.52311  -0.52017  -0.51362  -0.50779
 Alpha  occ. eigenvalues --   -0.49978  -0.49698  -0.49426  -0.48980  -0.48745
 Alpha  occ. eigenvalues --   -0.48644  -0.48174  -0.47949  -0.47563  -0.47541
 Alpha  occ. eigenvalues --   -0.47315  -0.45526  -0.45423  -0.43928  -0.43656
 Alpha  occ. eigenvalues --   -0.41837  -0.40140  -0.39511  -0.37846  -0.37307
 Alpha  occ. eigenvalues --   -0.37151  -0.37009  -0.36537  -0.35719  -0.34257
 Alpha  occ. eigenvalues --   -0.34160  -0.34009  -0.33704  -0.33160  -0.33090
 Alpha  occ. eigenvalues --   -0.32591  -0.32107  -0.31921  -0.31757  -0.31565
 Alpha  occ. eigenvalues --   -0.31008  -0.28777  -0.26406  -0.25247
 Alpha virt. eigenvalues --    0.03135   0.04778   0.07378   0.07807   0.08765
 Alpha virt. eigenvalues --    0.09196   0.09773   0.10252   0.10919   0.11349
 Alpha virt. eigenvalues --    0.13035   0.13610   0.14418   0.14731   0.14812

 Mulliken charges:
               1
     1  N   -0.311832
     2  C    0.180200
     3  C    0.052255
     4  N   -0.257095
     5  C    0.132886
     6  H    0.028283
     7  N   -0.278845
     8  C    0.129617
     9  H    0.015673
    10  N   -0.290541
    11  C    0.228799
    12  C    0.106623
    13  N   -0.047675
    14  H    0.108770
    15  H    0.088911
    16  H    0.027507
    17  H    0.033601
    18  H    0.025884
    19  N   -0.299398
    20  C    0.248046
    21  C    0.178424
    22  N   -0.095993
    23  H    0.109538
    24  H    0.113735
    25  N   -0.297872
    26  C    0.218939
    27  N   -0.126487
    28  H    0.117729
    29  C    0.145023
    30  O   -0.321262
    31  C    0.013366
    32  N   -0.222909
    33  C    0.120161
    34  H    0.024275
    35  H    0.026757
    36  H    0.026029
    37  H    0.021853
    38  H    0.051251
    39  H    0.064190
    40  H    0.071763
    41  H    0.029596
    42  C   -0.111684
    43  O   -0.269331
    44  C    0.173890
    45  H    0.135372
    46  N   -0.131007
    47  O   -0.346705
    48  C    0.351816
    49  H    0.046706
    50  C    0.181778
    51  C    0.038624
    52  N   -0.285254
    53  H    0.034989
    54  H    0.032416
    55  H    0.021380
    56  H    0.123041
    57  H    0.118311
    58  N   -0.059383
    59  C    0.116336
    60  C    0.240258
    61  N   -0.278085
    62  H    0.039176
    63  C    0.171684
    64  N   -0.302545
    65  H    0.033352
    66  C    0.113933
    67  N   -0.252741
    68  C    0.000811
    69  C    0.177157
    70  N   -0.304073
 Sum of Mulliken charges =  -0.00000

 Dipole moment (field-independent basis, Debye):
    X=              6.3267    Y=              6.0434    Z=              3.3930  Tot=              9.3842
 Quadrupole moment (field-independent basis, Debye-Ang):
   XX=           -143.0375   YY=           -225.9716   ZZ=           -256.2779
   XY=             11.2688   XZ=             11.4746   YZ=             -8.3868

 Normal termination of Gaussian 16 at Sun Jan 21 20:18:55 2018.
