 Gaussian 16, Revision A.03,
 Gaussian 16:  EM64L-G16RevA.03 25-Dec-2016

 ---------------------------------------
 #p wb97xd/cc-pvdz sp scf=(maxcycles=20)
 ---------------------------------------

 ------------------
 Base pair stacking
 ------------------
 Symbolic Z-matrix:
 Charge =  0 Multiplicity = 1

                         Standard orientation:
 ---------------------------------------------------------------------
 Center     Atomic      Atomic             Coordinates (Angstroms)
 Number     Number       Type             X           Y           Z
 ---------------------------------------------------------------------
      1          7           0       -7.133542   -1.094317    0.177518
      2          6           0       -8.453499   -0.445158    0.057963
      3          6           0       -4.988458   -1.463648    0.492990
      4          7           0       -5.551161   -2.691510    0.176071
      5          6           0       -6.820978   -2.419854   -0.001307
      6          1           0       -7.581203   -3.155259   -0.266233
      7          7           0       -3.447859    0.228031    1.065481
      8          6           0       -4.481746    1.075095    1.031682
      9          1           0       -4.240303    2.112764    1.257957
     10          7           0       -5.763073    0.833931    0.761619
     11          6           0       -5.951495   -0.469633    0.497751
     12          6           0       -3.670165   -1.076849    0.795367
     13          7           0       -2.639398   -1.923947    0.828596
     14          1           0       -2.757638   -2.898569    0.635332
     15          1           0       -1.714339   -1.613423    1.047681
     16          1           0       -9.087975   -0.853504    0.714376
     17          1           0       -8.363401    0.532271    0.246731
     18          1           0       -8.807323   -0.572738   -0.868602
     19          7           0       -2.626777    1.994519   -1.592471
     20          6           0       -1.278621    1.920190   -1.337511
     21          6           0       -3.472472    3.185267   -1.374284
     22          7           0        1.660770    3.406812   -0.236742
     23          1           0        2.619934    3.149304   -0.122972
     24          1           0        1.408128    4.340241    0.019372
     25          7           0       -0.506221    2.914453   -0.848763
     26          6           0        0.753363    2.540046   -0.711347
     27          7           0        1.222666    1.288188   -1.027777
     28          1           0        2.201882    1.090295   -0.890153
     29          6           0        0.445978    0.249747   -1.532018
     30          8           0        0.968102   -0.843030   -1.784930
     31          6           0       -0.909584    0.636923   -1.685123
     32          7           0       -2.004030   -0.079968   -2.148970
     33          6           0       -2.997646    0.763617   -2.076185
     34          1           0       -4.025360    0.538858   -2.363549
     35          1           0       -4.196241    2.966873   -0.720620
     36          1           0       -2.911144    3.928339   -1.012313
     37          1           0       -3.881009    3.469357   -2.240998
     38          1           0        7.024403    0.541903    0.624843
     39          1           0        7.372661    0.809743   -1.081514
     40          1           0        5.972362    1.581367   -0.336452
     41          1           0        5.973441   -3.792340   -1.179717
     42          6           0        5.533043   -2.797409   -1.113427
     43          8           0        3.346612   -3.526924   -1.674174
     44          6           0        4.135494   -2.631635   -1.372642
     45          1           0        2.698085   -1.176310   -1.437569
     46          7           0        3.680513   -1.333199   -1.261690
     47          8           0        3.925101    0.889049   -0.862958
     48          6           0        4.418468   -0.222618   -0.936754
     49          1           0        7.345885   -1.805864   -0.587796
     50          6           0        6.278881   -1.733260   -0.794178
     51          6           0        6.586429    0.693194   -0.350537
     52          7           0        5.757750   -0.463550   -0.701233
     53          1           0        3.598446    3.251143    3.038471
     54          1           0        2.497800    3.398422    1.843073
     55          1           0        4.077907    3.211942    1.478977
     56          1           0        0.676976   -3.382902    1.450993
     57          1           0        2.297732   -3.181547    1.943661
     58          7           0        1.431652   -2.763420    1.667449
     59          6           0        1.290428   -1.438477    1.591461
     60          6           0        2.021350    0.819615    1.760281
     61          7           0        0.846627    1.353203    1.386462
     62          1           0       -1.027598    0.741788    0.826056
     63          6           0       -0.043161    0.394621    1.136864
     64          7           0        0.096354   -0.932939    1.212389
     65          1           0        5.111295    0.773429    2.710154
     66          6           0        4.095799    0.519762    2.404604
     67          7           0        3.634362   -0.701844    2.293006
     68          6           0        2.320037   -0.526012    1.885132
     69          6           0        3.351010    2.954925    2.115957
     70          7           0        3.173273    1.489979    2.097464
 ---------------------------------------------------------------------

 SCF Done:  E(RwB97XD) =  -2048.71161469     A.U. after   15 cycles

 The electronic state is 1-A.
 Alpha  occ. eigenvalues --  -19.26022 -19.21914 -19.20485 -14.52486 -14.51517
 Alpha  occ. eigenvalues --  -14.49771 -14.48489 -14.47830 -14.46712 -14.46525
 Alpha  occ. eigenvalues --  -14.46205 -14.44480 -14.43060 -14.42983 -14.42441
 Alpha  occ. eigenvalues --  -14.42406 -14.42077 -14.41912 -14.41169 -14.40652
 Alpha  occ. eigenvalues --  -10.45583 -10.41150 -10.40028 -10.38565 -10.38071
 Alpha  occ. eigenvalues --  -10.37701 -10.37088 -10.36427 -10.35948 -10.35755
 Alpha  occ. eigenvalues --  -10.35086 -10.34457 -10.34264 -10.34217 -10.34179
 Alpha  occ. eigenvalues --  -10.33552 -10.33098 -10.31757 -10.31478 -10.31001
 Alpha  occ. eigenvalues --  -10.30333 -10.29628 -10.28010  -1.19556  -1.14265
 Alpha  occ. eigenvalues --   -1.13155  -1.12952  -1.12387  -1.10419  -1.09376
 Alpha  occ. eigenvalues --   -1.08619  -1.07881  -1.06037  -1.03509  -1.02476
 Alpha  occ. eigenvalues --   -1.01446  -1.00303  -0.99626  -0.98402  -0.97932
 Alpha  occ. eigenvalues --   -0.96384  -0.95527  -0.93673  -0.91021  -0.86777
 Alpha  occ. eigenvalues --   -0.85317  -0.84950  -0.84002  -0.83888  -0.83258
 Alpha  occ. eigenvalues --   -0.82227  -0.78865  -0.75951  -0.74638  -0.73916
 Alpha  occ. eigenvalues --   -0.73793  -0.73491  -0.73337  -0.72141  -0.69393
 Alpha  occ. eigenvalues --   -0.67454  -0.67288  -0.66563  -0.65743  -0.64446
 Alpha  occ. eigenvalues --   -0.63758  -0.63666  -0.63240  -0.62694  -0.61828
 Alpha  occ. eigenvalues --   -0.61147  -0.60226  -0.59602  -0.59484  -0.59344
 Alpha  occ. eigenvalues --   -0.58636  -0.58186  -0.57505  -0.57307  -0.56944
 Alpha  occ. eigenvalues --   -0.56245  -0.55938  -0.55365  -0.54507  -0.54376
 Alpha  occ. eigenvalues --   -0.53680  -0.53514  -0.53008  -0.52773  -0.52678
 Alpha  occ. eigenvalues --   -0.52579  -0.52173  -0.51764  -0.51702  -0.51089
 Alpha  occ. eigenvalues --   -0.50031  -0.49961  -0.49438  -0.49103  -0.48652
 Alpha  occ. eigenvalues --   -0.48578  -0.48141  -0.48108  -0.47786  -0.47411
 Alpha  occ. eigenvalues --   -0.47290  -0.45962  -0.45384  -0.43990  -0.42767
 Alpha  occ. eigenvalues --   -0.42210  -0.39625  -0.39556  -0.38237  -0.37296
 Alpha  occ. eigenvalues --   -0.37162  -0.36806  -0.36158  -0.35638  -0.34872
 Alpha  occ. eigenvalues --   -0.34524  -0.34468  -0.33121  -0.32941  -0.32757
 Alpha  occ. eigenvalues --   -0.32491  -0.32209  -0.31919  -0.31773  -0.31648
 Alpha  occ. eigenvalues --   -0.31282  -0.28224  -0.26820  -0.25298
 Alpha virt. eigenvalues --    0.03221   0.04715   0.06929   0.08020   0.08432
 Alpha virt. eigenvalues --    0.09196   0.09680   0.09835   0.11144   0.12209
 Alpha virt. eigenvalues --    0.12862   0.13205   0.14399   0.14668   0.14780

 Mulliken charges:
               1
     1  N   -0.311614
     2  C    0.180548
     3  C    0.038169
     4  N   -0.257691
     5  C    0.134422
     6  H    0.029977
     7  N   -0.273604
     8  C    0.114421
     9  H    0.023807
    10  N   -0.287821
    11  C    0.234716
    12  C    0.106522
    13  N   -0.046723
    14  H    0.107469
    15  H    0.088285
    16  H    0.027887
    17  H    0.035361
    18  H    0.027228
    19  N   -0.295585
    20  C    0.220958
    21  C    0.183541
    22  N   -0.090265
    23  H    0.099695
    24  H    0.119287
    25  N   -0.279700
    26  C    0.202820
    27  N   -0.107467
    28  H    0.123743
    29  C    0.131960
    30  O   -0.320790
    31  C    0.009333
    32  N   -0.221523
    33  C    0.123608
    34  H    0.028166
    35  H    0.019668
    36  H    0.026151
    37  H    0.022913
    38  H    0.056951
    39  H    0.064537
    40  H    0.071466
    41  H    0.031240
    42  C   -0.108124
    43  O   -0.268155
    44  C    0.181390
    45  H    0.135015
    46  N   -0.134698
    47  O   -0.352425
    48  C    0.360291
    49  H    0.046862
    50  C    0.175504
    51  C    0.035010
    52  N   -0.292608
    53  H    0.033074
    54  H    0.026478
    55  H    0.026240
    56  H    0.119213
    57  H    0.118921
    58  N   -0.064276
    59  C    0.129214
    60  C    0.224272
    61  N   -0.262775
    62  H    0.066742
    63  C    0.141942
    64  N   -0.300384
    65  H    0.025632
    66  C    0.121928
    67  N   -0.257299
    68  C    0.015192
    69  C    0.164281
    70  N   -0.298526
 Sum of Mulliken charges =  -0.00000

 Dipole moment (field-independent basis, Debye):
    X=              5.7996    Y=              5.8274    Z=              3.7452  Tot=              9.0344
 Quadrupole moment (field-independent basis, Debye-Ang):
   XX=           -138.7218   YY=           -227.6843   ZZ=           -255.1515
   XY=             14.4927   XZ=             16.6239   YZ=             -9.3296

 Normal termination of Gaussian 16 at Sun Jan 21 08:49:22 2018.
