 Gaussian 16, Revision A.03,
 Gaussian 16:  EM64L-G16RevA.03 25-Dec-2016

 ---------------------------------------
 #p wb97xd/cc-pvdz sp scf=(maxcycles=20)
 ---------------------------------------

 ------------------
 Base pair stacking
 ------------------
 Symbolic Z-matrix:
 Charge =  0 Multiplicity = 1

                         Standard orientation:
 ---------------------------------------------------------------------
 Center     Atomic      Atomic             Coordinates (Angstroms)
 Number     Number       Type             X           Y           Z
 ---------------------------------------------------------------------
      1          7           0       -5.507812   -1.751754    1.062611
      2          6           0       -6.861677   -1.283382    1.417129
      3          6           0       -3.324168   -1.934845    0.874191
      4          7           0       -3.865064   -3.003765    0.174485
      5          6           0       -5.158973   -2.850676    0.316002
      6          1           0       -5.911978   -3.516192   -0.107101
      7          7           0       -1.803063   -0.416383    1.845493
      8          6           0       -2.871663    0.235968    2.314660
      9          1           0       -2.651898    1.125313    2.903752
     10          7           0       -4.164886   -0.044002    2.166071
     11          6           0       -4.324489   -1.154360    1.427123
     12          6           0       -1.996981   -1.529868    1.105484
     13          7           0       -0.931542   -2.182443    0.636268
     14          1           0       -1.027921   -3.011253    0.084006
     15          1           0       -0.001190   -1.865290    0.820686
     16          1           0       -7.335586   -1.993226    1.938385
     17          1           0       -6.793890   -0.453883    1.970725
     18          1           0       -7.376796   -1.084505    0.583407
     19          7           0       -4.414257    2.142250   -0.990701
     20          6           0       -3.040310    2.137757   -0.973483
     21          6           0       -5.270052    3.256996   -0.537212
     22          7           0       -0.035910    3.730265   -0.266892
     23          1           0        0.940510    3.528204   -0.337676
     24          1           0       -0.288495    4.624741    0.103018
     25          7           0       -2.247617    3.142868   -0.542853
     26          6           0       -0.965559    2.842287   -0.650523
     27          7           0       -0.493796    1.649236   -1.142038
     28          1           0        0.503382    1.506122   -1.187930
     29          6           0       -1.291096    0.600978   -1.590739
     30          8           0       -0.764645   -0.434820   -2.015844
     31          6           0       -2.670932    0.909134   -1.481271
     32          7           0       -3.790452    0.157426   -1.810650
     33          6           0       -4.798888    0.927335   -1.503247
     34          1           0       -5.847753    0.657261   -1.630576
     35          1           0       -5.857495    2.946129    0.209168
     36          1           0       -4.693867    4.007371   -0.215939
     37          1           0       -5.836566    3.574816   -1.296738
     38          1           0        5.537155    1.166016   -0.556919
     39          1           0        5.570561    1.576503   -2.270115
     40          1           0        4.282182    2.200590   -1.239595
     41          1           0        4.416044   -3.088149   -2.504181
     42          6           0        3.942763   -2.131167   -2.284119
     43          8           0        1.733104   -2.959528   -2.525669
     44          6           0        2.514742   -2.038566   -2.289765
     45          1           0        1.014264   -0.678811   -1.993218
     46          7           0        2.019105   -0.783611   -1.998737
     47          8           0        2.213407    1.415863   -1.467957
     48          6           0        2.743545    0.346672   -1.713794
     49          1           0        5.765292   -1.063774   -1.992833
     50          6           0        4.676371   -1.046180   -2.009843
     51          6           0        4.929779    1.357454   -1.428988
     52          7           0        4.114052    0.177157   -1.727699
     53          1           0        5.303386    2.480810    3.791518
     54          1           0        3.989443    2.938759    2.939499
     55          1           0        5.479932    3.114236    2.297848
     56          1           0        2.521142   -3.327734    0.105679
     57          1           0        4.191558   -3.127003    0.387654
     58          7           0        3.266186   -2.749772    0.438840
     59          6           0        3.037019   -1.530081    0.929759
     60          6           0        3.655335    0.557753    1.889123
     61          7           0        2.402284    1.038482    1.945669
     62          1           0        0.494203    0.457476    1.474220
     63          6           0        1.538061    0.146754    1.465229
     64          7           0        1.765618   -1.075378    0.973090
     65          1           0        6.866762    0.544122    2.261585
     66          6           0        5.828088    0.300840    2.035945
     67          7           0        5.425039   -0.829268    1.508601
     68          6           0        4.049313   -0.679539    1.410141
     69          6           0        4.903021    2.538033    2.876951
     70          7           0        4.809713    1.186329    2.291998
 ---------------------------------------------------------------------

 SCF Done:  E(RwB97XD) =  -2048.74911750     A.U. after   15 cycles

 The electronic state is 1-A.
 Alpha  occ. eigenvalues --  -19.25741 -19.22199 -19.20679 -14.52359 -14.52208
 Alpha  occ. eigenvalues --  -14.48838 -14.48522 -14.47741 -14.47729 -14.46962
 Alpha  occ. eigenvalues --  -14.46717 -14.45419 -14.44111 -14.44090 -14.42091
 Alpha  occ. eigenvalues --  -14.42066 -14.41028 -14.41002 -14.40865 -14.40191
 Alpha  occ. eigenvalues --  -10.45299 -10.41303 -10.40230 -10.39681 -10.38304
 Alpha  occ. eigenvalues --  -10.37911 -10.37379 -10.37035 -10.35583 -10.35273
 Alpha  occ. eigenvalues --  -10.35039 -10.34425 -10.33844 -10.33756 -10.33478
 Alpha  occ. eigenvalues --  -10.33140 -10.33001 -10.32539 -10.31021 -10.30975
 Alpha  occ. eigenvalues --  -10.30912 -10.28263 -10.28192  -1.19304  -1.15101
 Alpha  occ. eigenvalues --   -1.13259  -1.13193  -1.11060  -1.10655  -1.09192
 Alpha  occ. eigenvalues --   -1.09045  -1.08621  -1.04905  -1.04587  -1.02429
 Alpha  occ. eigenvalues --   -1.00867  -1.00282  -0.99793  -0.98606  -0.96794
 Alpha  occ. eigenvalues --   -0.96660  -0.96549  -0.92577  -0.90875  -0.87495
 Alpha  occ. eigenvalues --   -0.85803  -0.84181  -0.83765  -0.83494  -0.82546
 Alpha  occ. eigenvalues --   -0.82184  -0.78697  -0.76873  -0.74717  -0.74631
 Alpha  occ. eigenvalues --   -0.73697  -0.73277  -0.72725  -0.70894  -0.70226
 Alpha  occ. eigenvalues --   -0.67450  -0.66651  -0.66369  -0.66127  -0.64462
 Alpha  occ. eigenvalues --   -0.64076  -0.63741  -0.62690  -0.62556  -0.61836
 Alpha  occ. eigenvalues --   -0.60697  -0.60357  -0.60219  -0.59304  -0.59269
 Alpha  occ. eigenvalues --   -0.58903  -0.58422  -0.56789  -0.56439  -0.56187
 Alpha  occ. eigenvalues --   -0.55925  -0.55378  -0.55099  -0.54316  -0.54174
 Alpha  occ. eigenvalues --   -0.53696  -0.53646  -0.53467  -0.53358  -0.53015
 Alpha  occ. eigenvalues --   -0.52654  -0.52348  -0.51679  -0.50641  -0.50235
 Alpha  occ. eigenvalues --   -0.50156  -0.49754  -0.49446  -0.49038  -0.48921
 Alpha  occ. eigenvalues --   -0.48741  -0.48472  -0.48233  -0.47656  -0.47407
 Alpha  occ. eigenvalues --   -0.46806  -0.45921  -0.44946  -0.44672  -0.43305
 Alpha  occ. eigenvalues --   -0.40916  -0.40572  -0.39342  -0.37818  -0.37400
 Alpha  occ. eigenvalues --   -0.37344  -0.37302  -0.36957  -0.36178  -0.34502
 Alpha  occ. eigenvalues --   -0.34247  -0.33996  -0.33376  -0.33285  -0.33214
 Alpha  occ. eigenvalues --   -0.32724  -0.32468  -0.32272  -0.31946  -0.30739
 Alpha  occ. eigenvalues --   -0.30337  -0.29204  -0.25733  -0.25330
 Alpha virt. eigenvalues --    0.03171   0.04153   0.07288   0.07945   0.08415
 Alpha virt. eigenvalues --    0.09204   0.09698   0.10534   0.11180   0.12212
 Alpha virt. eigenvalues --    0.12983   0.13904   0.14477   0.14554   0.15143

 Mulliken charges:
               1
     1  N   -0.310464
     2  C    0.179506
     3  C    0.064505
     4  N   -0.254027
     5  C    0.137058
     6  H    0.025378
     7  N   -0.295803
     8  C    0.134932
     9  H    0.010822
    10  N   -0.290263
    11  C    0.238036
    12  C    0.094983
    13  N   -0.047451
    14  H    0.113684
    15  H    0.084056
    16  H    0.026120
    17  H    0.031550
    18  H    0.021353
    19  N   -0.306147
    20  C    0.257980
    21  C    0.181948
    22  N   -0.121640
    23  H    0.117000
    24  H    0.117980
    25  N   -0.310760
    26  C    0.245215
    27  N   -0.147405
    28  H    0.119893
    29  C    0.191303
    30  O   -0.323504
    31  C   -0.017685
    32  N   -0.220853
    33  C    0.123940
    34  H    0.019166
    35  H    0.028419
    36  H    0.029434
    37  H    0.023073
    38  H    0.056984
    39  H    0.060594
    40  H    0.073741
    41  H    0.021983
    42  C   -0.106384
    43  O   -0.272054
    44  C    0.154837
    45  H    0.130651
    46  N   -0.107796
    47  O   -0.343700
    48  C    0.334872
    49  H    0.046150
    50  C    0.171676
    51  C    0.040338
    52  N   -0.277382
    53  H    0.034253
    54  H    0.041021
    55  H    0.025207
    56  H    0.127385
    57  H    0.115280
    58  N   -0.048522
    59  C    0.078512
    60  C    0.235714
    61  N   -0.269813
    62  H    0.033131
    63  C    0.163407
    64  N   -0.301529
    65  H    0.036048
    66  C    0.120767
    67  N   -0.258596
    68  C    0.035096
    69  C    0.182028
    70  N   -0.305232
 Sum of Mulliken charges =  -0.00000

 Dipole moment (field-independent basis, Debye):
    X=              6.8148    Y=              6.7755    Z=              2.8051  Tot=             10.0109
 Quadrupole moment (field-independent basis, Debye-Ang):
   XX=           -149.3547   YY=           -223.0594   ZZ=           -256.4476
   XY=              5.7931   XZ=             -0.3704   YZ=             -2.7825

 Normal termination of Gaussian 16 at Sun Jan 21 06:14:37 2018.
