 Gaussian 16, Revision A.03,
 Gaussian 16:  EM64L-G16RevA.03 25-Dec-2016

 ---------------------------------------
 #p wb97xd/cc-pvdz sp scf=(maxcycles=20)
 ---------------------------------------

 ------------------
 Base pair stacking
 ------------------
 Symbolic Z-matrix:
 Charge =  0 Multiplicity = 1

                         Standard orientation:
 ---------------------------------------------------------------------
 Center     Atomic      Atomic             Coordinates (Angstroms)
 Number     Number       Type             X           Y           Z
 ---------------------------------------------------------------------
      1          7           0        5.775560   -1.334917   -1.047285
      2          6           0        7.126059   -0.739870   -1.038971
      3          6           0        3.595827   -1.611106   -1.146359
      4          7           0        4.138669   -2.873429   -0.955039
      5          6           0        5.430142   -2.656509   -0.903008
      6          1           0        6.183714   -3.431474   -0.759788
      7          7           0        2.073131    0.162268   -1.461730
      8          6           0        3.138338    0.969502   -1.497480
      9          1           0        2.916589    2.025827   -1.643316
     10          7           0        4.430266    0.669219   -1.380673
     11          6           0        4.592527   -0.652644   -1.205236
     12          6           0        2.269662   -1.162422   -1.283840
     13          7           0        1.207606   -1.969830   -1.247879
     14          1           0        1.306010   -2.957120   -1.118242
     15          1           0        0.277885   -1.615590   -1.349228
     16          1           0        7.669842   -1.133607   -1.780227
     17          1           0        7.056204    0.248978   -1.167047
     18          1           0        7.571105   -0.930325   -0.163949
     19          7           0        4.148729    1.785900    1.303240
     20          6           0        2.778718    1.771158    1.198831
     21          6           0        5.019226    2.926712    0.954679
     22          7           0       -0.192351    3.369592    0.374515
     23          1           0       -1.169042    3.156728    0.374282
     24          1           0        0.073289    4.281763    0.061308
     25          7           0        2.003839    2.788179    0.763770
     26          6           0        0.720882    2.472794    0.776583
     27          7           0        0.232100    1.255144    1.183920
     28          1           0       -0.764384    1.102109    1.160165
     29          6           0        1.010905    0.194239    1.635391
     30          8           0        0.470003   -0.863775    1.980013
     31          6           0        2.391467    0.518069    1.627299
     32          7           0        3.496122   -0.238657    1.993343
     33          6           0        4.513494    0.552344    1.784830
     34          1           0        5.555133    0.285255    1.966274
     35          1           0        5.655806    2.654370    0.233982
     36          1           0        4.456297    3.686094    0.631082
     37          1           0        5.533339    3.214664    1.761888
     38          1           0       -5.744481    0.750261    0.197084
     39          1           0       -5.890083    1.083180    1.921207
     40          1           0       -4.546258    1.763213    1.003028
     41          1           0       -4.702062   -3.577846    2.021218
     42          6           0       -4.226280   -2.608193    1.874150
     43          8           0       -2.027347   -3.428789    2.218307
     44          6           0       -2.802538   -2.504475    1.974361
     45          1           0       -1.301207   -1.120776    1.833954
     46          7           0       -2.303208   -1.233796    1.771157
     47          8           0       -2.487559    0.985653    1.327026
     48          6           0       -3.020495   -0.097718    1.491210
     49          1           0       -6.038330   -1.543466    1.515530
     50          6           0       -4.952895   -1.517917    1.602257
     51          6           0       -5.195304    0.907248    1.113495
     52          7           0       -4.387237   -0.278677    1.410734
     53          1           0       -5.014387    3.533676   -2.502394
     54          1           0       -3.787567    3.576652   -1.427612
     55          1           0       -5.326163    3.425928   -0.904072
     56          1           0       -2.212814   -3.275532   -1.579744
     57          1           0       -3.867285   -2.990897   -1.882725
     58          7           0       -2.960409   -2.619088   -1.681318
     59          6           0       -2.758102   -1.306061   -1.554058
     60          6           0       -3.410347    0.982088   -1.527856
     61          7           0       -2.181742    1.452949   -1.257199
     62          1           0       -0.284914    0.746542   -0.935266
     63          6           0       -1.310183    0.451573   -1.154576
     64          7           0       -1.510853   -0.864147   -1.281701
     65          1           0       -6.583218    1.096168   -2.137800
     66          6           0       -5.552117    0.790758   -1.957551
     67          7           0       -5.131515   -0.450512   -1.958761
     68          6           0       -3.775147   -0.343410   -1.687583
     69          6           0       -4.682335    3.178904   -1.628398
     70          7           0       -4.563394    1.709820   -1.703576
 ---------------------------------------------------------------------

 SCF Done:  E(RwB97XD) =  -2048.73670319     A.U. after   15 cycles

 The electronic state is 1-A.
 Alpha  occ. eigenvalues --  -19.25387 -19.21559 -19.20458 -14.52611 -14.51984
 Alpha  occ. eigenvalues --  -14.49091 -14.48206 -14.48163 -14.47398 -14.46611
 Alpha  occ. eigenvalues --  -14.46101 -14.45786 -14.44397 -14.44387 -14.42799
 Alpha  occ. eigenvalues --  -14.41725 -14.41640 -14.41370 -14.40628 -14.40522
 Alpha  occ. eigenvalues --  -10.44948 -10.40920 -10.40052 -10.39683 -10.38225
 Alpha  occ. eigenvalues --  -10.38005 -10.37368 -10.37341 -10.35817 -10.35697
 Alpha  occ. eigenvalues --  -10.34703 -10.34389 -10.34320 -10.33879 -10.33683
 Alpha  occ. eigenvalues --  -10.33328 -10.33012 -10.32874 -10.31513 -10.30642
 Alpha  occ. eigenvalues --  -10.30140 -10.28769 -10.27755  -1.19135  -1.15508
 Alpha  occ. eigenvalues --   -1.12970  -1.12602  -1.11639  -1.10228  -1.09408
 Alpha  occ. eigenvalues --   -1.08900  -1.08267  -1.05425  -1.04894  -1.02071
 Alpha  occ. eigenvalues --   -1.01263  -1.00909  -0.99328  -0.98314  -0.97333
 Alpha  occ. eigenvalues --   -0.96906  -0.96184  -0.93116  -0.90625  -0.87930
 Alpha  occ. eigenvalues --   -0.86276  -0.84316  -0.83701  -0.83358  -0.82713
 Alpha  occ. eigenvalues --   -0.81969  -0.78444  -0.77265  -0.75120  -0.74268
 Alpha  occ. eigenvalues --   -0.73371  -0.73233  -0.72966  -0.71427  -0.70634
 Alpha  occ. eigenvalues --   -0.67061  -0.66949  -0.66724  -0.66143  -0.64487
 Alpha  occ. eigenvalues --   -0.64163  -0.63456  -0.63138  -0.62501  -0.61490
 Alpha  occ. eigenvalues --   -0.61392  -0.60829  -0.60683  -0.59719  -0.59160
 Alpha  occ. eigenvalues --   -0.58453  -0.57952  -0.57269  -0.56949  -0.56244
 Alpha  occ. eigenvalues --   -0.55907  -0.55775  -0.55522  -0.54273  -0.54119
 Alpha  occ. eigenvalues --   -0.53980  -0.53735  -0.53377  -0.53214  -0.52805
 Alpha  occ. eigenvalues --   -0.52548  -0.52238  -0.52199  -0.51161  -0.50534
 Alpha  occ. eigenvalues --   -0.49941  -0.49761  -0.49243  -0.49089  -0.48646
 Alpha  occ. eigenvalues --   -0.48434  -0.48327  -0.48028  -0.47340  -0.47092
 Alpha  occ. eigenvalues --   -0.47032  -0.45671  -0.45052  -0.44578  -0.43216
 Alpha  occ. eigenvalues --   -0.41262  -0.40964  -0.39228  -0.37952  -0.37824
 Alpha  occ. eigenvalues --   -0.37738  -0.37084  -0.36921  -0.36056  -0.34775
 Alpha  occ. eigenvalues --   -0.34470  -0.33898  -0.33789  -0.33356  -0.32819
 Alpha  occ. eigenvalues --   -0.32408  -0.32278  -0.31871  -0.31632  -0.31043
 Alpha  occ. eigenvalues --   -0.30821  -0.29459  -0.25929  -0.25022
 Alpha virt. eigenvalues --    0.03436   0.03701   0.06895   0.07208   0.08598
 Alpha virt. eigenvalues --    0.08972   0.09974   0.10429   0.11150   0.12113
 Alpha virt. eigenvalues --    0.13064   0.13983   0.14071   0.14269   0.14874

 Mulliken charges:
               1
     1  N   -0.311625
     2  C    0.176623
     3  C    0.073539
     4  N   -0.258651
     5  C    0.135804
     6  H    0.027094
     7  N   -0.286169
     8  C    0.143865
     9  H    0.013209
    10  N   -0.284938
    11  C    0.232967
    12  C    0.092358
    13  N   -0.052438
    14  H    0.108985
    15  H    0.084531
    16  H    0.028071
    17  H    0.032094
    18  H    0.026059
    19  N   -0.273762
    20  C    0.204062
    21  C    0.182807
    22  N   -0.101548
    23  H    0.112708
    24  H    0.113409
    25  N   -0.292857
    26  C    0.213776
    27  N   -0.142482
    28  H    0.123795
    29  C    0.175717
    30  O   -0.322741
    31  C    0.003275
    32  N   -0.219669
    33  C    0.120082
    34  H    0.014343
    35  H    0.020431
    36  H    0.026284
    37  H    0.020260
    38  H    0.049061
    39  H    0.058255
    40  H    0.069951
    41  H    0.026341
    42  C   -0.111410
    43  O   -0.267542
    44  C    0.172649
    45  H    0.130873
    46  N   -0.119945
    47  O   -0.332007
    48  C    0.331771
    49  H    0.045867
    50  C    0.171599
    51  C    0.046546
    52  N   -0.278650
    53  H    0.037290
    54  H    0.036840
    55  H    0.024467
    56  H    0.124224
    57  H    0.118815
    58  N   -0.061514
    59  C    0.100000
    60  C    0.209794
    61  N   -0.259601
    62  H    0.049202
    63  C    0.137508
    64  N   -0.296912
    65  H    0.039196
    66  C    0.105971
    67  N   -0.249290
    68  C    0.040105
    69  C    0.182380
    70  N   -0.291104
 Sum of Mulliken charges =  -0.00000

 Dipole moment (field-independent basis, Debye):
    X=             -6.5645    Y=              6.5016    Z=             -3.7427  Tot=              9.9685
 Quadrupole moment (field-independent basis, Debye-Ang):
   XX=           -148.1576   YY=           -226.9859   ZZ=           -258.4767
   XY=             -7.9185   XZ=              0.7870   YZ=             12.2717

 Normal termination of Gaussian 16 at Sun Jan 21 09:36:35 2018.
