 Gaussian 16, Revision A.03,
 Gaussian 16:  EM64L-G16RevA.03 25-Dec-2016

 ---------------------------------------
 #p wb97xd/cc-pvdz sp scf=(maxcycles=20)
 ---------------------------------------

 ------------------
 Base pair stacking
 ------------------
 Symbolic Z-matrix:
 Charge =  0 Multiplicity = 1

                         Standard orientation:
 ---------------------------------------------------------------------
 Center     Atomic      Atomic             Coordinates (Angstroms)
 Number     Number       Type             X           Y           Z
 ---------------------------------------------------------------------
      1          7           0        4.274561   -1.404632   -1.932858
      2          6           0        5.622914   -0.862225   -2.189279
      3          6           0        2.103542   -1.601392   -1.640808
      4          7           0        2.634020   -2.872733   -1.476527
      5          6           0        3.920749   -2.703317   -1.659052
      6          1           0        4.664639   -3.498702   -1.605026
      7          7           0        0.601983    0.211602   -1.786910
      8          6           0        1.668083    0.974589   -2.049332
      9          1           0        1.455519    2.030233   -2.212718
     10          7           0        2.951295    0.630964   -2.139816
     11          6           0        3.102627   -0.685975   -1.922526
     12          6           0        0.787402   -1.109351   -1.572939
     13          7           0       -0.275559   -1.872628   -1.310835
     14          1           0       -0.185203   -2.855418   -1.146007
     15          1           0       -1.197958   -1.488314   -1.270326
     16          1           0        6.018022   -1.312422   -2.990153
     17          1           0        5.560969    0.121117   -2.357571
     18          1           0        6.207235   -1.026518   -1.394568
     19          7           0        5.616198    1.543739    0.724609
     20          6           0        4.247941    1.578586    0.845847
     21          6           0        6.471258    2.693889    0.368619
     22          7           0        1.260024    3.343458    0.706802
     23          1           0        0.287146    3.158648    0.843121
     24          1           0        1.513810    4.278851    0.459098
     25          7           0        3.461070    2.660689    0.661620
     26          6           0        2.183568    2.380860    0.849505
     27          7           0        1.710760    1.137118    1.191685
     28          1           0        0.717353    1.015022    1.314953
     29          6           0        2.502111    0.009415    1.386398
     30          8           0        1.975225   -1.067020    1.693683
     31          6           0        3.876989    0.294415    1.188042
     32          7           0        4.989972   -0.530054    1.279790
     33          6           0        5.996170    0.252285    0.997437
     34          1           0        7.039999   -0.062563    0.973864
     35          1           0        6.971005    2.491956   -0.472975
     36          1           0        5.899359    3.501294    0.229716
     37          1           0        7.120694    2.869889    1.107588
     38          1           0       -4.363552    0.915003    1.150213
     39          1           0       -4.215729    1.044586    2.901211
     40          1           0       -3.006370    1.792236    1.857247
     41          1           0       -3.242956   -3.625761    2.278169
     42          6           0       -2.752705   -2.658740    2.165226
     43          8           0       -0.567202   -3.573630    2.048422
     44          6           0       -1.328049   -2.606238    2.041059
     45          1           0        0.193546   -1.256807    1.812741
     46          7           0       -0.809708   -1.334403    1.903187
     47          8           0       -0.960383    0.926261    1.748610
     48          6           0       -1.509478   -0.154115    1.874910
     49          1           0       -4.547830   -1.510294    2.231786
     50          6           0       -3.462498   -1.524618    2.141213
     51          6           0       -3.668080    0.947101    1.975657
     52          7           0       -2.878330   -0.287174    2.000320
     53          1           0       -6.456452    3.797791   -1.778526
     54          1           0       -5.061028    3.846218   -0.934411
     55          1           0       -6.489195    3.780565   -0.146949
     56          1           0       -3.738540   -3.060627   -0.978167
     57          1           0       -5.411399   -2.727830   -1.007696
     58          7           0       -4.472817   -2.381718   -0.985745
     59          6           0       -4.213004   -1.072778   -0.967414
     60          6           0       -4.783307    1.237281   -0.955295
     61          7           0       -3.513085    1.673290   -0.925921
     62          1           0       -1.610755    0.911141   -0.896222
     63          6           0       -2.666739    0.645400   -0.919666
     64          7           0       -2.924988   -0.666291   -0.937992
     65          1           0       -8.009144    1.443155   -1.016634
     66          6           0       -6.971824    1.107556   -0.999637
     67          7           0       -6.594467   -0.147530   -1.004888
     68          6           0       -5.209068   -0.079451   -0.976970
     69          6           0       -5.988352    3.473780   -0.956402
     70          7           0       -5.927472    1.999292   -0.970097
 ---------------------------------------------------------------------

 SCF Done:  E(RwB97XD) =  -2048.74568196     A.U. after   15 cycles

 The electronic state is 1-A.
 Alpha  occ. eigenvalues --  -19.25118 -19.21277 -19.20621 -14.52856 -14.51480
 Alpha  occ. eigenvalues --  -14.49304 -14.48800 -14.48394 -14.47088 -14.46789
 Alpha  occ. eigenvalues --  -14.46691 -14.45714 -14.45031 -14.44864 -14.43048
 Alpha  occ. eigenvalues --  -14.42023 -14.41598 -14.41259 -14.40981 -14.40808
 Alpha  occ. eigenvalues --  -10.44661 -10.41248 -10.40627 -10.39392 -10.38309
 Alpha  occ. eigenvalues --  -10.38293 -10.37668 -10.37067 -10.36370 -10.35901
 Alpha  occ. eigenvalues --  -10.34658 -10.34126 -10.33967 -10.33760 -10.33733
 Alpha  occ. eigenvalues --  -10.33391 -10.33357 -10.33285 -10.31403 -10.30477
 Alpha  occ. eigenvalues --  -10.30390 -10.28612 -10.28432  -1.18662  -1.15647
 Alpha  occ. eigenvalues --   -1.13307  -1.12297  -1.11075  -1.10961  -1.09999
 Alpha  occ. eigenvalues --   -1.08631  -1.08397  -1.05484  -1.05419  -1.01688
 Alpha  occ. eigenvalues --   -1.01335  -1.00882  -0.99763  -0.98707  -0.97551
 Alpha  occ. eigenvalues --   -0.96992  -0.96720  -0.93143  -0.90266  -0.88158
 Alpha  occ. eigenvalues --   -0.86246  -0.84510  -0.83824  -0.82940  -0.82608
 Alpha  occ. eigenvalues --   -0.82139  -0.78128  -0.77519  -0.75399  -0.74885
 Alpha  occ. eigenvalues --   -0.73706  -0.73050  -0.72585  -0.71256  -0.70921
 Alpha  occ. eigenvalues --   -0.67523  -0.67309  -0.66451  -0.65823  -0.64706
 Alpha  occ. eigenvalues --   -0.64500  -0.63363  -0.62929  -0.62677  -0.61928
 Alpha  occ. eigenvalues --   -0.61065  -0.60842  -0.60624  -0.59889  -0.58947
 Alpha  occ. eigenvalues --   -0.58821  -0.58402  -0.57422  -0.56715  -0.55942
 Alpha  occ. eigenvalues --   -0.55791  -0.55639  -0.55577  -0.54894  -0.54195
 Alpha  occ. eigenvalues --   -0.54012  -0.53840  -0.53307  -0.53190  -0.53020
 Alpha  occ. eigenvalues --   -0.52032  -0.51619  -0.51438  -0.50628  -0.50488
 Alpha  occ. eigenvalues --   -0.50308  -0.50134  -0.49708  -0.49211  -0.48993
 Alpha  occ. eigenvalues --   -0.48752  -0.48130  -0.48067  -0.47491  -0.47066
 Alpha  occ. eigenvalues --   -0.46987  -0.45809  -0.45465  -0.45163  -0.42680
 Alpha  occ. eigenvalues --   -0.41496  -0.41117  -0.38897  -0.38294  -0.38073
 Alpha  occ. eigenvalues --   -0.37758  -0.37341  -0.36973  -0.35425  -0.35155
 Alpha  occ. eigenvalues --   -0.34898  -0.34106  -0.33706  -0.33598  -0.33089
 Alpha  occ. eigenvalues --   -0.32644  -0.32431  -0.31965  -0.31028  -0.30841
 Alpha  occ. eigenvalues --   -0.30722  -0.30617  -0.26099  -0.25721
 Alpha virt. eigenvalues --    0.02854   0.04446   0.06140   0.07656   0.08692
 Alpha virt. eigenvalues --    0.09080   0.09686   0.10107   0.10800   0.12133
 Alpha virt. eigenvalues --    0.13366   0.13857   0.14147   0.14530   0.14736

 Mulliken charges:
               1
     1  N   -0.302674
     2  C    0.185656
     3  C    0.063160
     4  N   -0.256489
     5  C    0.152801
     6  H    0.029242
     7  N   -0.289380
     8  C    0.124004
     9  H    0.007935
    10  N   -0.274517
    11  C    0.234546
    12  C    0.078257
    13  N   -0.064472
    14  H    0.115629
    15  H    0.083513
    16  H    0.023333
    17  H    0.026963
    18  H    0.023514
    19  N   -0.306562
    20  C    0.265791
    21  C    0.183419
    22  N   -0.114740
    23  H    0.121455
    24  H    0.118327
    25  N   -0.301183
    26  C    0.220673
    27  N   -0.127225
    28  H    0.119090
    29  C    0.182664
    30  O   -0.318756
    31  C   -0.018508
    32  N   -0.224198
    33  C    0.102126
    34  H    0.025755
    35  H    0.022355
    36  H    0.032517
    37  H    0.025746
    38  H    0.058335
    39  H    0.051857
    40  H    0.076485
    41  H    0.021491
    42  C   -0.112977
    43  O   -0.267776
    44  C    0.171539
    45  H    0.133472
    46  N   -0.124547
    47  O   -0.348384
    48  C    0.340370
    49  H    0.044349
    50  C    0.168774
    51  C    0.051916
    52  N   -0.275926
    53  H    0.035098
    54  H    0.041353
    55  H    0.030666
    56  H    0.121424
    57  H    0.119678
    58  N   -0.058145
    59  C    0.086340
    60  C    0.200240
    61  N   -0.252851
    62  H    0.031080
    63  C    0.158340
    64  N   -0.303350
    65  H    0.040731
    66  C    0.139883
    67  N   -0.255637
    68  C    0.031396
    69  C    0.179891
    70  N   -0.304883
 Sum of Mulliken charges =  -0.00000

 Dipole moment (field-independent basis, Debye):
    X=             -6.9128    Y=              7.5321    Z=             -1.5212  Tot=             10.3360
 Quadrupole moment (field-independent basis, Debye-Ang):
   XX=           -154.5290   YY=           -227.4571   ZZ=           -252.9998
   XY=              2.4136   XZ=            -16.0501   YZ=             13.2558

 Normal termination of Gaussian 16 at Sun Jan 21 22:04:50 2018.
