 Gaussian 16, Revision A.03,
 Gaussian 16:  EM64L-G16RevA.03 25-Dec-2016

 ---------------------------------------
 #p wb97xd/cc-pvdz sp scf=(maxcycles=20)
 ---------------------------------------

 ------------------
 Base pair stacking
 ------------------
 Symbolic Z-matrix:
 Charge =  0 Multiplicity = 1

                         Standard orientation:
 ---------------------------------------------------------------------
 Center     Atomic      Atomic             Coordinates (Angstroms)
 Number     Number       Type             X           Y           Z
 ---------------------------------------------------------------------
      1          7           0       -6.582304   -1.175809    0.498778
      2          6           0       -7.907235   -0.546459    0.336057
      3          6           0       -4.428740   -1.503404    0.802345
      4          7           0       -4.994452   -2.760619    0.647128
      5          6           0       -6.269254   -2.512931    0.470446
      6          1           0       -7.032995   -3.275168    0.313437
      7          7           0       -2.880899    0.245443    1.132025
      8          6           0       -3.918479    1.081693    1.023893
      9          1           0       -3.675457    2.139062    1.119641
     10          7           0       -5.205147    0.809187    0.816207
     11          6           0       -5.395094   -0.516620    0.713316
     12          6           0       -3.104876   -1.082419    1.023929
     13          7           0       -2.070425   -1.918775    1.131585
     14          1           0       -2.189720   -2.909526    1.058088
     15          1           0       -1.141440   -1.583723    1.289307
     16          1           0       -8.523841   -0.874686    1.051766
     17          1           0       -7.816197    0.446524    0.405458
     18          1           0       -8.283249   -0.783203   -0.559806
     19          7           0       -3.264469    1.852946   -1.496735
     20          6           0       -1.908355    1.805051   -1.280580
     21          6           0       -4.136014    3.007469   -1.199759
     22          7           0        1.018323    3.320982   -0.185951
     23          1           0        1.986870    3.085793   -0.109525
     24          1           0        0.747438    4.233671    0.121195
     25          7           0       -1.150294    2.796645   -0.764718
     26          6           0        0.122271    2.452169   -0.678062
     27          7           0        0.616686    1.230571   -1.066339
     28          1           0        1.604304    1.054348   -0.963749
     29          6           0       -0.144871    0.195471   -1.599683
     30          8           0        0.399720   -0.868803   -1.918245
     31          6           0       -1.514127    0.550700   -1.698905
     32          7           0       -2.600870   -0.174297   -2.168238
     33          6           0       -3.614722    0.636261   -2.029320
     34          1           0       -4.643367    0.396191   -2.300499
     35          1           0       -4.835530    2.737855   -0.538866
     36          1           0       -3.585481    3.748252   -0.817117
     37          1           0       -4.575522    3.320524   -2.040974
     38          1           0        6.479355    0.572383    0.397971
     39          1           0        6.773694    0.930508   -1.301958
     40          1           0        5.373679    1.625811   -0.484721
     41          1           0        5.498051   -3.699740   -1.585116
     42          6           0        5.032711   -2.721999   -1.459708
     43          8           0        2.852503   -3.486105   -1.998174
     44          6           0        3.624633   -2.584004   -1.674437
     45          1           0        2.146927   -1.168762   -1.632152
     46          7           0        3.137681   -1.305754   -1.489461
     47          8           0        3.332459    0.901181   -0.990803
     48          6           0        3.853707   -0.191244   -1.130689
     49          1           0        6.831512   -1.705237   -0.934048
     50          6           0        5.757720   -1.653357   -1.109041
     51          6           0        6.011082    0.757147   -0.557356
     52          7           0        5.204958   -0.404826   -0.941722
     53          1           0        4.200364    3.486776    2.557422
     54          1           0        3.070112    3.490514    1.380729
     55          1           0        4.641481    3.263501    1.002111
     56          1           0        1.265713   -3.291003    1.839722
     57          1           0        2.897312   -3.031379    2.264646
     58          7           0        2.023144   -2.649615    1.962479
     59          6           0        1.875117   -1.343129    1.733683
     60          6           0        2.601468    0.919659    1.615723
     61          7           0        1.415915    1.404240    1.210671
     62          1           0       -0.469213    0.729213    0.773371
     63          6           0        0.523872    0.422101    1.098530
     64          7           0        0.670190   -0.887039    1.327224
     65          1           0        5.713983    0.988850    2.487279
     66          6           0        4.692249    0.699936    2.239249
     67          7           0        4.232808   -0.526647    2.284584
     68          6           0        2.908196   -0.401463    1.891556
     69          6           0        3.931437    3.083158    1.682907
     70          7           0        3.758808    1.626189    1.842424
 ---------------------------------------------------------------------

 SCF Done:  E(RwB97XD) =  -2048.68398362     A.U. after   15 cycles

 The electronic state is 1-A.
 Alpha  occ. eigenvalues --  -19.25932 -19.21884 -19.20497 -14.52484 -14.51815
 Alpha  occ. eigenvalues --  -14.49571 -14.48301 -14.47884 -14.47451 -14.46215
 Alpha  occ. eigenvalues --  -14.45491 -14.44859 -14.43558 -14.43069 -14.42310
 Alpha  occ. eigenvalues --  -14.42175 -14.41939 -14.41896 -14.40874 -14.40633
 Alpha  occ. eigenvalues --  -10.45549 -10.40554 -10.40014 -10.39216 -10.37919
 Alpha  occ. eigenvalues --  -10.37693 -10.37464 -10.36485 -10.36267 -10.35672
 Alpha  occ. eigenvalues --  -10.35317 -10.34801 -10.34461 -10.34233 -10.34039
 Alpha  occ. eigenvalues --  -10.33978 -10.33056 -10.31701 -10.31649 -10.30992
 Alpha  occ. eigenvalues --  -10.29801 -10.29311 -10.27855  -1.19619  -1.14641
 Alpha  occ. eigenvalues --   -1.13218  -1.12938  -1.12157  -1.10396  -1.09375
 Alpha  occ. eigenvalues --   -1.08798  -1.08163  -1.05849  -1.04115  -1.02504
 Alpha  occ. eigenvalues --   -1.01360  -1.00548  -0.99318  -0.98443  -0.97751
 Alpha  occ. eigenvalues --   -0.96393  -0.95976  -0.93536  -0.91025  -0.87286
 Alpha  occ. eigenvalues --   -0.85863  -0.84799  -0.83948  -0.83717  -0.83111
 Alpha  occ. eigenvalues --   -0.81952  -0.78861  -0.76573  -0.74574  -0.74378
 Alpha  occ. eigenvalues --   -0.73720  -0.73388  -0.73327  -0.72005  -0.70054
 Alpha  occ. eigenvalues --   -0.67178  -0.67164  -0.66581  -0.66384  -0.64467
 Alpha  occ. eigenvalues --   -0.64015  -0.63627  -0.63467  -0.62871  -0.61406
 Alpha  occ. eigenvalues --   -0.61125  -0.60982  -0.60283  -0.59568  -0.59251
 Alpha  occ. eigenvalues --   -0.58802  -0.58195  -0.57753  -0.57219  -0.56751
 Alpha  occ. eigenvalues --   -0.56050  -0.55958  -0.55255  -0.55031  -0.54481
 Alpha  occ. eigenvalues --   -0.54267  -0.53376  -0.53171  -0.52731  -0.52568
 Alpha  occ. eigenvalues --   -0.52511  -0.52349  -0.51991  -0.51517  -0.50752
 Alpha  occ. eigenvalues --   -0.49891  -0.49850  -0.49397  -0.49119  -0.48566
 Alpha  occ. eigenvalues --   -0.48500  -0.48193  -0.47947  -0.47595  -0.47379
 Alpha  occ. eigenvalues --   -0.47227  -0.45957  -0.45327  -0.43953  -0.43283
 Alpha  occ. eigenvalues --   -0.41959  -0.40821  -0.39608  -0.38202  -0.37604
 Alpha  occ. eigenvalues --   -0.37340  -0.37107  -0.36420  -0.35556  -0.34567
 Alpha  occ. eigenvalues --   -0.34336  -0.34198  -0.33834  -0.33066  -0.32541
 Alpha  occ. eigenvalues --   -0.32375  -0.31868  -0.31713  -0.31626  -0.31404
 Alpha  occ. eigenvalues --   -0.31175  -0.28332  -0.26569  -0.24942
 Alpha virt. eigenvalues --    0.03177   0.04552   0.07138   0.07483   0.08583
 Alpha virt. eigenvalues --    0.09264   0.09905   0.10230   0.11101   0.11686
 Alpha virt. eigenvalues --    0.13120   0.13399   0.14186   0.14548   0.14935

 Mulliken charges:
               1
     1  N   -0.313007
     2  C    0.179912
     3  C    0.056171
     4  N   -0.258618
     5  C    0.133708
     6  H    0.028700
     7  N   -0.271293
     8  C    0.137077
     9  H    0.014381
    10  N   -0.292307
    11  C    0.231280
    12  C    0.103749
    13  N   -0.050177
    14  H    0.107570
    15  H    0.087637
    16  H    0.027871
    17  H    0.032967
    18  H    0.027169
    19  N   -0.289273
    20  C    0.232872
    21  C    0.169155
    22  N   -0.056593
    23  H    0.105782
    24  H    0.107168
    25  N   -0.286463
    26  C    0.184192
    27  N   -0.126666
    28  H    0.127692
    29  C    0.133056
    30  O   -0.321205
    31  C    0.034165
    32  N   -0.218529
    33  C    0.113040
    34  H    0.021970
    35  H    0.027845
    36  H    0.026511
    37  H    0.019231
    38  H    0.052329
    39  H    0.063941
    40  H    0.065408
    41  H    0.030887
    42  C   -0.112185
    43  O   -0.264911
    44  C    0.181020
    45  H    0.132980
    46  N   -0.131866
    47  O   -0.344174
    48  C    0.353464
    49  H    0.046767
    50  C    0.178770
    51  C    0.044633
    52  N   -0.286441
    53  H    0.036348
    54  H    0.019982
    55  H    0.022287
    56  H    0.120619
    57  H    0.118864
    58  N   -0.067502
    59  C    0.119344
    60  C    0.249665
    61  N   -0.313248
    62  H    0.033645
    63  C    0.198846
    64  N   -0.308901
    65  H    0.035553
    66  C    0.100206
    67  N   -0.250017
    68  C   -0.000368
    69  C    0.181962
    70  N   -0.294647
 Sum of Mulliken charges =  -0.00000

 Dipole moment (field-independent basis, Debye):
    X=              6.0518    Y=              5.9382    Z=              4.0879  Tot=              9.4126
 Quadrupole moment (field-independent basis, Debye-Ang):
   XX=           -143.3835   YY=           -228.6528   ZZ=           -257.7179
   XY=             12.2248   XZ=              9.7006   YZ=            -11.6695

 Normal termination of Gaussian 16 at Sun Jan 21 15:58:10 2018.
