 Gaussian 16, Revision A.03,
 Gaussian 16:  EM64L-G16RevA.03 25-Dec-2016

 ---------------------------------------
 #p wb97xd/cc-pvdz sp scf=(maxcycles=20)
 ---------------------------------------

 ------------------
 Base pair stacking
 ------------------
 Symbolic Z-matrix:
 Charge =  0 Multiplicity = 1

                         Standard orientation:
 ---------------------------------------------------------------------
 Center     Atomic      Atomic             Coordinates (Angstroms)
 Number     Number       Type             X           Y           Z
 ---------------------------------------------------------------------
      1          7           0        4.872922   -1.855819   -1.473356
      2          6           0        6.217287   -1.419109   -1.897579
      3          6           0        2.700557   -1.973667   -1.150450
      4          7           0        3.246507   -3.086310   -0.526993
      5          6           0        4.533425   -2.970786   -0.746490
      6          1           0        5.287669   -3.676822   -0.397847
      7          7           0        1.175701   -0.369023   -1.964629
      8          6           0        2.234816    0.265328   -2.477909
      9          1           0        2.009793    1.183691   -3.018489
     10          7           0        3.524103   -0.062901   -2.423947
     11          6           0        3.690795   -1.205838   -1.738129
     12          6           0        1.376588   -1.516261   -1.280096
     13          7           0        0.320614   -2.150934   -0.766981
     14          1           0        0.422401   -3.003337   -0.252901
     15          1           0       -0.607710   -1.796212   -0.878861
     16          1           0        6.631550   -2.123460   -2.474167
     17          1           0        6.143964   -0.566919   -2.414800
     18          1           0        6.791135   -1.269977   -1.092314
     19          7           0        5.044990    1.919024    0.771775
     20          6           0        3.673440    1.960717    0.843613
     21          6           0        5.909303    3.021604    0.304901
     22          7           0        0.688709    3.678143    0.392395
     23          1           0       -0.287798    3.505935    0.518944
     24          1           0        0.948898    4.577469    0.039929
     25          7           0        2.891203    3.007519    0.502497
     26          6           0        1.608713    2.745611    0.682051
     27          7           0        1.127046    1.550630    1.159059
     28          1           0        0.130350    1.438949    1.264294
     29          6           0        1.913494    0.459881    1.516315
     30          8           0        1.378652   -0.573658    1.936414
     31          6           0        3.293656    0.726186    1.328898
     32          7           0        4.404422   -0.074432    1.557129
     33          6           0        5.418000    0.673023    1.213370
     34          1           0        6.462573    0.363607    1.262364
     35          1           0        6.436658    2.720708   -0.488941
     36          1           0        5.340897    3.802579    0.049441
     37          1           0        6.533919    3.290705    1.037192
     38          1           0       -4.942269    1.290564    0.949273
     39          1           0       -4.852025    1.634998    2.674925
     40          1           0       -3.610426    2.255670    1.586544
     41          1           0       -3.851537   -3.070901    2.662324
     42          6           0       -3.359493   -2.122294    2.447249
     43          8           0       -1.169797   -3.032159    2.514340
     44          6           0       -1.931616   -2.077335    2.363603
     45          1           0       -0.405641   -0.757524    2.020369
     46          7           0       -1.411186   -0.829118    2.087246
     47          8           0       -1.560527    1.394561    1.651217
     48          6           0       -2.111635    0.334767    1.891572
     49          1           0       -5.157753   -0.984598    2.314213
     50          6           0       -4.070019   -1.003758    2.261146
     51          6           0       -4.274234    1.427721    1.786516
     52          7           0       -3.483643    0.210327    1.988161
     53          1           0       -5.932617    2.835461   -3.337734
     54          1           0       -4.551688    3.216148   -2.556577
     55          1           0       -5.991171    3.415807   -1.813537
     56          1           0       -3.129858   -3.201002   -0.055775
     57          1           0       -4.806638   -2.934230   -0.221198
     58          7           0       -3.873577   -2.586160   -0.318463
     59          6           0       -3.632869   -1.356555   -0.778155
     60          6           0       -4.236318    0.786336   -1.618131
     61          7           0       -2.973108    1.227138   -1.738214
     62          1           0       -1.060774    0.565338   -1.413236
     63          6           0       -2.112332    0.289250   -1.347907
     64          7           0       -2.351443   -0.942880   -0.887195
     65          1           0       -7.463382    0.893583   -1.781624
     66          6           0       -6.421774    0.607447   -1.632949
     67          7           0       -6.026433   -0.555053   -1.174691
     68          6           0       -4.642778   -0.454918   -1.160303
     69          6           0       -5.473112    2.843782   -2.449597
     70          7           0       -5.390901    1.467997   -1.921906
 ---------------------------------------------------------------------

 SCF Done:  E(RwB97XD) =  -2048.74629070     A.U. after   15 cycles

 The electronic state is 1-A.
 Alpha  occ. eigenvalues --  -19.25593 -19.22034 -19.20699 -14.52550 -14.52176
 Alpha  occ. eigenvalues --  -14.49107 -14.48226 -14.48056 -14.47546 -14.46958
 Alpha  occ. eigenvalues --  -14.46786 -14.45519 -14.44455 -14.44416 -14.42221
 Alpha  occ. eigenvalues --  -14.42145 -14.41341 -14.40806 -14.40722 -14.40287
 Alpha  occ. eigenvalues --  -10.45175 -10.41372 -10.40033 -10.40005 -10.38356
 Alpha  occ. eigenvalues --  -10.38047 -10.37363 -10.37315 -10.35953 -10.35316
 Alpha  occ. eigenvalues --  -10.34849 -10.34609 -10.33916 -10.33767 -10.33515
 Alpha  occ. eigenvalues --  -10.33020 -10.32973 -10.32795 -10.31197 -10.30831
 Alpha  occ. eigenvalues --  -10.30729 -10.28373 -10.28186  -1.19157  -1.15303
 Alpha  occ. eigenvalues --   -1.13336  -1.12987  -1.10859  -1.10809  -1.09499
 Alpha  occ. eigenvalues --   -1.08986  -1.08680  -1.04943  -1.04881  -1.02240
 Alpha  occ. eigenvalues --   -1.01041  -1.00284  -0.99864  -0.98716  -0.97010
 Alpha  occ. eigenvalues --   -0.96878  -0.96464  -0.92604  -0.90799  -0.87720
 Alpha  occ. eigenvalues --   -0.85952  -0.84388  -0.83580  -0.83351  -0.82760
 Alpha  occ. eigenvalues --   -0.82008  -0.78648  -0.77122  -0.74924  -0.74854
 Alpha  occ. eigenvalues --   -0.73776  -0.73120  -0.72633  -0.70822  -0.70471
 Alpha  occ. eigenvalues --   -0.67565  -0.66906  -0.66294  -0.66036  -0.64556
 Alpha  occ. eigenvalues --   -0.64301  -0.63754  -0.62767  -0.62482  -0.61963
 Alpha  occ. eigenvalues --   -0.60752  -0.60499  -0.60294  -0.59446  -0.59248
 Alpha  occ. eigenvalues --   -0.59024  -0.58509  -0.56997  -0.56351  -0.55938
 Alpha  occ. eigenvalues --   -0.55888  -0.55438  -0.55196  -0.54352  -0.54088
 Alpha  occ. eigenvalues --   -0.53762  -0.53675  -0.53639  -0.53275  -0.53143
 Alpha  occ. eigenvalues --   -0.52839  -0.52183  -0.51484  -0.50491  -0.50326
 Alpha  occ. eigenvalues --   -0.50165  -0.49837  -0.49433  -0.49181  -0.48975
 Alpha  occ. eigenvalues --   -0.48722  -0.48519  -0.48389  -0.47974  -0.47365
 Alpha  occ. eigenvalues --   -0.46696  -0.45893  -0.45566  -0.44602  -0.42807
 Alpha  occ. eigenvalues --   -0.40924  -0.40784  -0.39244  -0.38044  -0.37680
 Alpha  occ. eigenvalues --   -0.37492  -0.37420  -0.36830  -0.35902  -0.34802
 Alpha  occ. eigenvalues --   -0.34397  -0.34123  -0.33299  -0.33195  -0.32994
 Alpha  occ. eigenvalues --   -0.32871  -0.32755  -0.32102  -0.32010  -0.30607
 Alpha  occ. eigenvalues --   -0.30281  -0.29474  -0.25845  -0.25444
 Alpha virt. eigenvalues --    0.02903   0.04016   0.06846   0.08171   0.08853
 Alpha virt. eigenvalues --    0.09013   0.09581   0.10409   0.11186   0.12076
 Alpha virt. eigenvalues --    0.12954   0.13732   0.14346   0.14600   0.14904

 Mulliken charges:
               1
     1  N   -0.306966
     2  C    0.181026
     3  C    0.056558
     4  N   -0.253646
     5  C    0.146611
     6  H    0.025755
     7  N   -0.294683
     8  C    0.130964
     9  H    0.009937
    10  N   -0.285925
    11  C    0.243280
    12  C    0.085743
    13  N   -0.054905
    14  H    0.116653
    15  H    0.085283
    16  H    0.025249
    17  H    0.030420
    18  H    0.019054
    19  N   -0.309229
    20  C    0.263761
    21  C    0.182553
    22  N   -0.124533
    23  H    0.119010
    24  H    0.118672
    25  N   -0.312205
    26  C    0.249963
    27  N   -0.145014
    28  H    0.119563
    29  C    0.190486
    30  O   -0.320876
    31  C   -0.017069
    32  N   -0.222707
    33  C    0.115125
    34  H    0.022637
    35  H    0.026093
    36  H    0.031092
    37  H    0.024504
    38  H    0.061334
    39  H    0.059124
    40  H    0.075104
    41  H    0.020294
    42  C   -0.108452
    43  O   -0.271454
    44  C    0.166461
    45  H    0.130328
    46  N   -0.116613
    47  O   -0.348934
    48  C    0.343910
    49  H    0.044200
    50  C    0.165501
    51  C    0.042840
    52  N   -0.275681
    53  H    0.034593
    54  H    0.041794
    55  H    0.027418
    56  H    0.125403
    57  H    0.114619
    58  N   -0.047554
    59  C    0.084474
    60  C    0.227889
    61  N   -0.266508
    62  H    0.031268
    63  C    0.168245
    64  N   -0.310844
    65  H    0.037409
    66  C    0.129514
    67  N   -0.256202
    68  C    0.020498
    69  C    0.181286
    70  N   -0.303502
 Sum of Mulliken charges =  -0.00000

 Dipole moment (field-independent basis, Debye):
    X=             -6.7854    Y=              7.2916    Z=             -2.1110  Tot=             10.1816
 Quadrupole moment (field-independent basis, Debye-Ang):
   XX=           -152.0293   YY=           -223.2070   ZZ=           -255.5461
   XY=             -4.0548   XZ=             -8.6172   YZ=              4.5401

 Normal termination of Gaussian 16 at Sun Jan 21 07:50:21 2018.
