 Gaussian 16, Revision A.03,
 Gaussian 16:  EM64L-G16RevA.03 25-Dec-2016

 ---------------------------------------
 #p wb97xd/cc-pvdz sp scf=(maxcycles=20)
 ---------------------------------------

 ------------------
 Base pair stacking
 ------------------
 Symbolic Z-matrix:
 Charge =  0 Multiplicity = 1

                         Standard orientation:
 ---------------------------------------------------------------------
 Center     Atomic      Atomic             Coordinates (Angstroms)
 Number     Number       Type             X           Y           Z
 ---------------------------------------------------------------------
      1          7           0        5.188648   -1.504724   -1.427222
      2          6           0        6.545603   -0.954294   -1.610780
      3          6           0        3.003715   -1.726966   -1.308882
      4          7           0        3.537721   -2.967643   -0.992201
      5          6           0        4.832686   -2.784096   -1.076173
      6          1           0        5.581430   -3.554772   -0.890723
      7          7           0        1.492359    0.032284   -1.737560
      8          6           0        2.565223    0.795445   -1.970213
      9          1           0        2.351204    1.828675   -2.240171
     10          7           0        3.856709    0.475397   -1.919684
     11          6           0        4.009127   -0.815105   -1.579399
     12          6           0        1.679090   -1.261709   -1.397272
     13          7           0        0.609371   -2.025098   -1.164643
     14          1           0        0.700404   -2.988475   -0.910001
     15          1           0       -0.318976   -1.660284   -1.236919
     16          1           0        7.017016   -1.460048   -2.333382
     17          1           0        6.483178    0.010006   -1.866443
     18          1           0        7.059977   -1.038488   -0.757361
     19          7           0        4.747295    1.774042    1.073524
     20          6           0        3.373291    1.787037    1.072297
     21          6           0        5.612093    2.910250    0.696919
     22          7           0        0.381709    3.464411    0.525847
     23          1           0       -0.596360    3.268987    0.592464
     24          1           0        0.641509    4.381681    0.222789
     25          7           0        2.588691    2.831556    0.729613
     26          6           0        1.304188    2.538672    0.829050
     27          7           0        0.822805    1.316952    1.232999
     28          1           0       -0.175544    1.182456    1.279572
     29          6           0        1.611650    0.227961    1.590334
     30          8           0        1.076827   -0.831228    1.940807
     31          6           0        2.993986    0.527399    1.488516
     32          7           0        4.107456   -0.260544    1.745868
     33          6           0        5.122121    0.518844    1.486592
     34          1           0        6.168816    0.227462    1.580348
     35          1           0        6.187373    2.650897   -0.078052
     36          1           0        5.041953    3.689857    0.441109
     37          1           0        6.190829    3.161976    1.471853
     38          1           0       -5.219803    0.951117    0.684029
     39          1           0       -5.229313    1.228866    2.423972
     40          1           0       -3.944486    1.915247    1.429257
     41          1           0       -4.131314   -3.453200    2.285197
     42          6           0       -3.648410   -2.487751    2.133730
     43          8           0       -1.446891   -3.358159    2.284702
     44          6           0       -2.219369   -2.412646    2.129543
     45          1           0       -0.705160   -1.051817    1.920591
     46          7           0       -1.711122   -1.144933    1.929954
     47          8           0       -1.883409    1.091012    1.572089
     48          6           0       -2.424300    0.012372    1.741318
     49          1           0       -5.460395   -1.379755    1.946948
     50          6           0       -4.371215   -1.376322    1.952356
     51          6           0       -4.600573    1.067701    1.560969
     52          7           0       -3.796603   -0.141597    1.758398
     53          1           0       -5.595240    3.441876   -2.644731
     54          1           0       -4.280783    3.592546   -1.689950
     55          1           0       -5.771722    3.559267   -1.026546
     56          1           0       -2.850162   -3.261546   -1.034079
     57          1           0       -4.518950   -2.971285   -1.236581
     58          7           0       -3.591580   -2.602845   -1.162728
     59          6           0       -3.355214   -1.291206   -1.232812
     60          6           0       -3.960937    0.998019   -1.465767
     61          7           0       -2.705362    1.464358   -1.363399
     62          1           0       -0.801239    0.751699   -1.104474
     63          6           0       -1.846666    0.460464   -1.196795
     64          7           0       -2.081439   -0.853873   -1.126341
     65          1           0       -7.171610    1.123113   -1.823744
     66          6           0       -6.134653    0.814270   -1.688525
     67          7           0       -5.738431   -0.427832   -1.554787
     68          6           0       -4.362177   -0.325498   -1.412725
     69          6           0       -5.196513    3.198126   -1.760645
     70          7           0       -5.111270    1.729396   -1.644146
 ---------------------------------------------------------------------

 SCF Done:  E(RwB97XD) =  -2048.75137175     A.U. after   15 cycles

 The electronic state is 1-A.
 Alpha  occ. eigenvalues --  -19.25368 -19.21699 -19.20511 -14.52673 -14.52009
 Alpha  occ. eigenvalues --  -14.48744 -14.48616 -14.48292 -14.47398 -14.46696
 Alpha  occ. eigenvalues --  -14.46538 -14.45717 -14.44530 -14.44448 -14.42584
 Alpha  occ. eigenvalues --  -14.41923 -14.41169 -14.41100 -14.41024 -14.40526
 Alpha  occ. eigenvalues --  -10.44999 -10.41128 -10.40154 -10.39774 -10.38182
 Alpha  occ. eigenvalues --  -10.38138 -10.37379 -10.37316 -10.36060 -10.35629
 Alpha  occ. eigenvalues --  -10.34641 -10.34311 -10.34132 -10.33923 -10.33477
 Alpha  occ. eigenvalues --  -10.33352 -10.33200 -10.32841 -10.31131 -10.30848
 Alpha  occ. eigenvalues --  -10.30739 -10.28512 -10.28084  -1.19043  -1.15483
 Alpha  occ. eigenvalues --   -1.13091  -1.12694  -1.11205  -1.10539  -1.09507
 Alpha  occ. eigenvalues --   -1.08907  -1.08451  -1.05216  -1.04972  -1.02071
 Alpha  occ. eigenvalues --   -1.01199  -1.00615  -0.99608  -0.98458  -0.97116
 Alpha  occ. eigenvalues --   -0.96832  -0.96566  -0.92907  -0.90649  -0.87856
 Alpha  occ. eigenvalues --   -0.86125  -0.84085  -0.83938  -0.83242  -0.82457
 Alpha  occ. eigenvalues --   -0.82372  -0.78467  -0.77245  -0.75047  -0.74572
 Alpha  occ. eigenvalues --   -0.73521  -0.72982  -0.72955  -0.71136  -0.70590
 Alpha  occ. eigenvalues --   -0.67304  -0.66987  -0.66396  -0.66151  -0.64440
 Alpha  occ. eigenvalues --   -0.64267  -0.63609  -0.62837  -0.62543  -0.61712
 Alpha  occ. eigenvalues --   -0.61244  -0.60701  -0.60539  -0.59651  -0.59137
 Alpha  occ. eigenvalues --   -0.58745  -0.58257  -0.57038  -0.56675  -0.56044
 Alpha  occ. eigenvalues --   -0.55769  -0.55662  -0.55424  -0.54224  -0.53989
 Alpha  occ. eigenvalues --   -0.53840  -0.53643  -0.53440  -0.53237  -0.52986
 Alpha  occ. eigenvalues --   -0.52871  -0.52089  -0.51863  -0.50682  -0.50362
 Alpha  occ. eigenvalues --   -0.50144  -0.50014  -0.49206  -0.49058  -0.48829
 Alpha  occ. eigenvalues --   -0.48654  -0.48477  -0.48232  -0.47619  -0.47167
 Alpha  occ. eigenvalues --   -0.46990  -0.45913  -0.45136  -0.44737  -0.42924
 Alpha  occ. eigenvalues --   -0.41104  -0.40947  -0.39063  -0.38027  -0.37818
 Alpha  occ. eigenvalues --   -0.37283  -0.37230  -0.37122  -0.35948  -0.34900
 Alpha  occ. eigenvalues --   -0.34478  -0.34064  -0.33556  -0.33283  -0.32949
 Alpha  occ. eigenvalues --   -0.32602  -0.32391  -0.31952  -0.31815  -0.30907
 Alpha  occ. eigenvalues --   -0.30587  -0.29670  -0.25852  -0.25457
 Alpha virt. eigenvalues --    0.03336   0.03792   0.06783   0.07857   0.08987
 Alpha virt. eigenvalues --    0.09168   0.09759   0.10245   0.10880   0.12501
 Alpha virt. eigenvalues --    0.12739   0.13860   0.14287   0.14405   0.14634

 Mulliken charges:
               1
     1  N   -0.307627
     2  C    0.176980
     3  C    0.067103
     4  N   -0.257747
     5  C    0.142454
     6  H    0.026642
     7  N   -0.288787
     8  C    0.131386
     9  H    0.012746
    10  N   -0.282772
    11  C    0.238905
    12  C    0.082292
    13  N   -0.050174
    14  H    0.112170
    15  H    0.083167
    16  H    0.027353
    17  H    0.031153
    18  H    0.021744
    19  N   -0.298401
    20  C    0.257749
    21  C    0.183884
    22  N   -0.120089
    23  H    0.119235
    24  H    0.117069
    25  N   -0.304415
    26  C    0.237928
    27  N   -0.133341
    28  H    0.113570
    29  C    0.180735
    30  O   -0.322127
    31  C   -0.016597
    32  N   -0.219636
    33  C    0.110449
    34  H    0.019030
    35  H    0.024614
    36  H    0.029855
    37  H    0.022418
    38  H    0.055196
    39  H    0.057991
    40  H    0.074503
    41  H    0.023817
    42  C   -0.100699
    43  O   -0.268404
    44  C    0.167306
    45  H    0.129874
    46  N   -0.114972
    47  O   -0.341056
    48  C    0.335055
    49  H    0.045661
    50  C    0.161757
    51  C    0.051543
    52  N   -0.277428
    53  H    0.035692
    54  H    0.039804
    55  H    0.025990
    56  H    0.124410
    57  H    0.116860
    58  N   -0.055283
    59  C    0.089963
    60  C    0.202924
    61  N   -0.261129
    62  H    0.024091
    63  C    0.168110
    64  N   -0.304799
    65  H    0.035964
    66  C    0.116703
    67  N   -0.250264
    68  C    0.033145
    69  C    0.182657
    70  N   -0.293904
 Sum of Mulliken charges =  -0.00000

 Dipole moment (field-independent basis, Debye):
    X=             -6.7228    Y=              6.9464    Z=             -2.6284  Tot=             10.0179
 Quadrupole moment (field-independent basis, Debye-Ang):
   XX=           -151.0200   YY=           -225.1034   ZZ=           -257.1229
   XY=             -4.2119   XZ=             -6.4299   YZ=             10.5101

 Normal termination of Gaussian 16 at Sun Jan 21 19:43:19 2018.
