 Gaussian 16, Revision A.03,
 Gaussian 16:  EM64L-G16RevA.03 25-Dec-2016

 ---------------------------------------
 #p wb97xd/cc-pvdz sp scf=(maxcycles=20)
 ---------------------------------------

 ------------------
 Base pair stacking
 ------------------
 Symbolic Z-matrix:
 Charge =  0 Multiplicity = 1

                         Standard orientation:
 ---------------------------------------------------------------------
 Center     Atomic      Atomic             Coordinates (Angstroms)
 Number     Number       Type             X           Y           Z
 ---------------------------------------------------------------------
      1          7           0        4.892904   -1.339618   -1.607804
      2          6           0        6.252432   -0.771677   -1.692257
      3          6           0        2.707155   -1.568654   -1.522083
      4          7           0        3.234882   -2.849389   -1.445016
      5          6           0        4.530604   -2.660148   -1.499749
      6          1           0        5.275383   -3.455776   -1.465024
      7          7           0        1.204778    0.247528   -1.607580
      8          6           0        2.281317    1.035086   -1.699177
      9          1           0        2.072492    2.101651   -1.770630
     10          7           0        3.571032    0.704519   -1.715674
     11          6           0        3.716985   -0.627578   -1.622806
     12          6           0        1.385021   -1.088173   -1.515530
     13          7           0        0.311635   -1.875989   -1.424014
     14          1           0        0.397838   -2.870407   -1.353971
     15          1           0       -0.614764   -1.499258   -1.422363
     16          1           0        6.717926   -1.136219   -2.498849
     17          1           0        6.194834    0.223697   -1.763277
     18          1           0        6.769634   -1.016260   -0.872093
     19          7           0        5.041403    1.586122    0.981981
     20          6           0        3.667589    1.602986    1.001980
     21          6           0        5.903886    2.726873    0.613850
     22          7           0        0.673242    3.298815    0.533169
     23          1           0       -0.304294    3.104903    0.610991
     24          1           0        0.931236    4.220950    0.243642
     25          7           0        2.881107    2.656028    0.691186
     26          6           0        1.597368    2.364904    0.804648
     27          7           0        1.118407    1.137076    1.192638
     28          1           0        0.120469    1.004511    1.251890
     29          6           0        1.909225    0.039288    1.517171
     30          8           0        1.376529   -1.024874    1.855603
     31          6           0        3.290777    0.336730    1.399959
     32          7           0        4.405584   -0.459083    1.625287
     33          6           0        5.418589    0.322252    1.365395
     34          1           0        6.465686    0.026207    1.437619
     35          1           0        6.466509    2.480678   -0.174598
     36          1           0        5.332338    3.512788    0.381610
     37          1           0        6.495121    2.962189    1.384488
     38          1           0       -4.932948    0.798662    0.729116
     39          1           0       -4.915140    1.043294    2.473968
     40          1           0       -3.643477    1.744878    1.472953
     41          1           0       -3.833854   -3.638336    2.229640
     42          6           0       -3.350332   -2.671540    2.089160
     43          8           0       -1.149463   -3.550821    2.189976
     44          6           0       -1.921287   -2.600370    2.064599
     45          1           0       -0.406238   -1.240060    1.858411
     46          7           0       -1.412226   -1.330517    1.881358
     47          8           0       -1.583032    0.912309    1.568655
     48          6           0       -2.124608   -0.167847    1.725621
     49          1           0       -5.161509   -1.555115    1.951120
     50          6           0       -4.072365   -1.554846    1.939964
     51          6           0       -4.300099    0.896818    1.598560
     52          7           0       -3.496960   -0.318259    1.760718
     53          1           0       -5.865586    3.803347   -1.827545
     54          1           0       -4.546495    3.766446   -0.867993
     55          1           0       -6.034972    3.617763   -0.215005
     56          1           0       -3.154777   -3.097061   -1.509068
     57          1           0       -4.822563   -2.765433   -1.645557
     58          7           0       -3.892696   -2.422063   -1.508917
     59          6           0       -3.648677   -1.121626   -1.334322
     60          6           0       -4.241464    1.173999   -1.133218
     61          7           0       -2.982696    1.606511   -0.951947
     62          1           0       -1.081911    0.848160   -0.839994
     63          6           0       -2.129436    0.584712   -0.979789
     64          7           0       -2.371879   -0.718465   -1.154529
     65          1           0       -7.452695    1.380387   -1.445559
     66          6           0       -6.417102    1.046343   -1.375490
     67          7           0       -6.027882   -0.200949   -1.477730
     68          6           0       -4.650487   -0.134084   -1.325948
     69          6           0       -5.464859    3.396903   -1.006433
     70          7           0       -5.388051    1.931792   -1.166333
 ---------------------------------------------------------------------

 SCF Done:  E(RwB97XD) =  -2048.72924318     A.U. after   15 cycles

 The electronic state is 1-A.
 Alpha  occ. eigenvalues --  -19.25172 -19.21432 -19.20466 -14.52857 -14.51780
 Alpha  occ. eigenvalues --  -14.48836 -14.48641 -14.48623 -14.47251 -14.46601
 Alpha  occ. eigenvalues --  -14.46515 -14.45894 -14.44751 -14.44585 -14.42934
 Alpha  occ. eigenvalues --  -14.41822 -14.41244 -14.41160 -14.41153 -14.40706
 Alpha  occ. eigenvalues --  -10.44830 -10.41031 -10.40467 -10.39540 -10.38372
 Alpha  occ. eigenvalues --  -10.38082 -10.37605 -10.37196 -10.36369 -10.35848
 Alpha  occ. eigenvalues --  -10.34301 -10.34295 -10.33976 -10.33831 -10.33609
 Alpha  occ. eigenvalues --  -10.33431 -10.33212 -10.32986 -10.31106 -10.31011
 Alpha  occ. eigenvalues --  -10.30559 -10.28630 -10.28068  -1.18949  -1.15794
 Alpha  occ. eigenvalues --   -1.13098  -1.12460  -1.11262  -1.10588  -1.09797
 Alpha  occ. eigenvalues --   -1.08710  -1.08450  -1.05435  -1.05290  -1.01871
 Alpha  occ. eigenvalues --   -1.01419  -1.00861  -0.99613  -0.98450  -0.97397
 Alpha  occ. eigenvalues --   -0.96947  -0.96638  -0.93134  -0.90458  -0.88194
 Alpha  occ. eigenvalues --   -0.86331  -0.84196  -0.83996  -0.82950  -0.82537
 Alpha  occ. eigenvalues --   -0.82463  -0.78293  -0.77518  -0.75347  -0.74603
 Alpha  occ. eigenvalues --   -0.73536  -0.73129  -0.72779  -0.71313  -0.70871
 Alpha  occ. eigenvalues --   -0.67337  -0.67245  -0.66557  -0.66040  -0.64730
 Alpha  occ. eigenvalues --   -0.64258  -0.63622  -0.63020  -0.62534  -0.61776
 Alpha  occ. eigenvalues --   -0.61640  -0.60925  -0.60766  -0.59918  -0.59065
 Alpha  occ. eigenvalues --   -0.58690  -0.58292  -0.57485  -0.56821  -0.56063
 Alpha  occ. eigenvalues --   -0.55888  -0.55726  -0.55572  -0.54711  -0.54142
 Alpha  occ. eigenvalues --   -0.54027  -0.53910  -0.53366  -0.53159  -0.52884
 Alpha  occ. eigenvalues --   -0.52233  -0.51912  -0.51859  -0.50751  -0.50478
 Alpha  occ. eigenvalues --   -0.50104  -0.50016  -0.49367  -0.49155  -0.48917
 Alpha  occ. eigenvalues --   -0.48655  -0.48196  -0.47996  -0.47963  -0.47141
 Alpha  occ. eigenvalues --   -0.47046  -0.45642  -0.45267  -0.44766  -0.42398
 Alpha  occ. eigenvalues --   -0.41312  -0.41177  -0.38979  -0.38175  -0.38072
 Alpha  occ. eigenvalues --   -0.37553  -0.37186  -0.37027  -0.35655  -0.35151
 Alpha  occ. eigenvalues --   -0.34724  -0.34378  -0.33683  -0.33316  -0.32845
 Alpha  occ. eigenvalues --   -0.32491  -0.32455  -0.31807  -0.31399  -0.30828
 Alpha  occ. eigenvalues --   -0.30558  -0.30171  -0.25972  -0.25464
 Alpha virt. eigenvalues --    0.03415   0.03686   0.06472   0.07536   0.08842
 Alpha virt. eigenvalues --    0.09297   0.09792   0.10025   0.10840   0.12524
 Alpha virt. eigenvalues --    0.12858   0.13945   0.14290   0.14309   0.14477

 Mulliken charges:
               1
     1  N   -0.306489
     2  C    0.181029
     3  C    0.067817
     4  N   -0.259917
     5  C    0.145521
     6  H    0.027350
     7  N   -0.281752
     8  C    0.125470
     9  H    0.014162
    10  N   -0.273136
    11  C    0.240733
    12  C    0.075583
    13  N   -0.056447
    14  H    0.111362
    15  H    0.082773
    16  H    0.028261
    17  H    0.027202
    18  H    0.020936
    19  N   -0.295061
    20  C    0.260773
    21  C    0.184881
    22  N   -0.110189
    23  H    0.121792
    24  H    0.117220
    25  N   -0.285683
    26  C    0.192220
    27  N   -0.107728
    28  H    0.115024
    29  C    0.166275
    30  O   -0.321320
    31  C   -0.011015
    32  N   -0.217419
    33  C    0.097625
    34  H    0.022117
    35  H    0.020080
    36  H    0.031292
    37  H    0.023355
    38  H    0.058906
    39  H    0.049132
    40  H    0.078085
    41  H    0.024843
    42  C   -0.102471
    43  O   -0.266797
    44  C    0.173553
    45  H    0.130141
    46  N   -0.119584
    47  O   -0.341987
    48  C    0.333434
    49  H    0.045408
    50  C    0.159325
    51  C    0.061486
    52  N   -0.276559
    53  H    0.036779
    54  H    0.040535
    55  H    0.028067
    56  H    0.121705
    57  H    0.119165
    58  N   -0.058986
    59  C    0.100061
    60  C    0.183707
    61  N   -0.256482
    62  H    0.007087
    63  C    0.189549
    64  N   -0.308925
    65  H    0.036785
    66  C    0.120900
    67  N   -0.245802
    68  C    0.017951
    69  C    0.181431
    70  N   -0.295142
 Sum of Mulliken charges =  -0.00000

 Dipole moment (field-independent basis, Debye):
    X=             -6.7018    Y=              7.1569    Z=             -2.6647  Tot=             10.1605
 Quadrupole moment (field-independent basis, Debye-Ang):
   XX=           -152.7940   YY=           -227.8092   ZZ=           -256.3214
   XY=             -1.2498   XZ=            -10.5617   YZ=             14.4742

 Normal termination of Gaussian 16 at Sun Jan 21 11:48:34 2018.
