 Gaussian 16, Revision A.03,
 Gaussian 16:  EM64L-G16RevA.03 25-Dec-2016

 ---------------------------------------
 #p wb97xd/cc-pvdz sp scf=(maxcycles=20)
 ---------------------------------------

 ------------------
 Base pair stacking
 ------------------
 Symbolic Z-matrix:
 Charge =  0 Multiplicity = 1

                         Standard orientation:
 ---------------------------------------------------------------------
 Center     Atomic      Atomic             Coordinates (Angstroms)
 Number     Number       Type             X           Y           Z
 ---------------------------------------------------------------------
      1          7           0        5.783588   -1.383625   -1.040302
      2          6           0        7.135945   -0.794961   -1.091335
      3          6           0        3.602166   -1.658380   -1.097025
      4          7           0        4.142916   -2.903881   -0.812317
      5          6           0        5.435505   -2.688501   -0.789542
      6          1           0        6.188014   -3.452727   -0.592989
      7          7           0        2.081992    0.090621   -1.536347
      8          6           0        3.149295    0.888477   -1.645288
      9          1           0        2.929418    1.930944   -1.871494
     10          7           0        4.441356    0.593316   -1.517346
     11          6           0        4.601212   -0.711321   -1.240249
     12          6           0        2.276135   -1.216783   -1.256890
     13          7           0        1.211982   -2.014802   -1.147765
     14          1           0        1.308579   -2.989253   -0.941974
     15          1           0        0.282435   -1.666036   -1.267906
     16          1           0        7.671344   -1.247704   -1.804461
     17          1           0        7.067916    0.181071   -1.295961
     18          1           0        7.588794   -0.917884   -0.208260
     19          7           0        4.137418    1.852776    1.302019
     20          6           0        2.766836    1.836376    1.205639
     21          6           0        5.004000    2.996967    0.954775
     22          7           0       -0.211638    3.434568    0.408002
     23          1           0       -1.187975    3.220103    0.412345
     24          1           0        0.050679    4.348928    0.098407
     25          7           0        1.987759    2.854561    0.780939
     26          6           0        0.705408    2.537003    0.799566
     27          7           0        0.221010    1.316268    1.202882
     28          1           0       -0.775351    1.161737    1.184160
     29          6           0        1.004176    0.254106    1.643710
     30          8           0        0.467035   -0.806731    1.985536
     31          6           0        2.384147    0.580244    1.629290
     32          7           0        3.492174   -0.176732    1.984487
     33          6           0        4.507019    0.617118    1.774438
     34          1           0        5.550147    0.350707    1.948189
     35          1           0        5.636734    2.729755    0.228788
     36          1           0        4.437939    3.757244    0.638827
     37          1           0        5.522424    3.281191    1.760538
     38          1           0       -5.760506    0.807165    0.248612
     39          1           0       -5.896411    1.130088    1.975428
     40          1           0       -4.559149    1.817497    1.053173
     41          1           0       -4.700321   -3.529480    2.041976
     42          6           0       -4.226975   -2.558224    1.897607
     43          8           0       -2.024720   -3.377149    2.224065
     44          6           0       -2.802832   -2.452738    1.989958
     45          1           0       -1.304588   -1.065803    1.848507
     46          7           0       -2.306764   -1.180116    1.791013
     47          8           0       -2.497320    1.041505    1.360563
     48          6           0       -3.027525   -0.043649    1.521760
     49          1           0       -6.042842   -1.494459    1.555757
     50          6           0       -4.956953   -1.467627    1.636203
     51          6           0       -5.206151    0.959864    1.162633
     52          7           0       -4.394424   -0.226398    1.448356
     53          1           0       -5.004756    3.397162   -2.772093
     54          1           0       -3.767526    3.519604   -1.715506
     55          1           0       -5.301474    3.416316   -1.167405
     56          1           0       -2.215489   -3.329385   -1.344156
     57          1           0       -3.871917   -3.063048   -1.653071
     58          7           0       -2.961996   -2.680069   -1.489952
     59          6           0       -2.754417   -1.361887   -1.468010
     60          6           0       -3.399304    0.923741   -1.615357
     61          7           0       -2.166710    1.409678   -1.393973
     62          1           0       -0.269069    0.723422   -1.035342
     63          6           0       -1.297293    0.416104   -1.221241
     64          7           0       -1.503246   -0.904766   -1.242844
     65          1           0       -6.577524    1.001799   -2.202705
     66          6           0       -5.545684    0.707519   -2.008680
     67          7           0       -5.128957   -0.531631   -1.916408
     68          6           0       -3.769718   -0.408781   -1.667158
     69          6           0       -4.665410    3.110768   -1.876096
     70          7           0       -4.551741    1.639867   -1.836863
 ---------------------------------------------------------------------

 SCF Done:  E(RwB97XD) =  -2048.74766165     A.U. after   15 cycles

 The electronic state is 1-A.
 Alpha  occ. eigenvalues --  -19.25483 -19.21655 -19.20460 -14.52561 -14.52042
 Alpha  occ. eigenvalues --  -14.49035 -14.48299 -14.48091 -14.47462 -14.46659
 Alpha  occ. eigenvalues --  -14.46221 -14.45672 -14.44296 -14.44293 -14.42698
 Alpha  occ. eigenvalues --  -14.41766 -14.41571 -14.41360 -14.40662 -14.40522
 Alpha  occ. eigenvalues --  -10.45049 -10.40960 -10.39949 -10.39774 -10.38141
 Alpha  occ. eigenvalues --  -10.38027 -10.37392 -10.37273 -10.35760 -10.35674
 Alpha  occ. eigenvalues --  -10.34837 -10.34264 -10.34253 -10.33968 -10.33628
 Alpha  occ. eigenvalues --  -10.33358 -10.33074 -10.32764 -10.31442 -10.30703
 Alpha  occ. eigenvalues --  -10.30282 -10.28727 -10.27799  -1.19152  -1.15382
 Alpha  occ. eigenvalues --   -1.12978  -1.12685  -1.11578  -1.10273  -1.09289
 Alpha  occ. eigenvalues --   -1.08952  -1.08299  -1.05367  -1.04780  -1.02137
 Alpha  occ. eigenvalues --   -1.01140  -1.00827  -0.99388  -0.98317  -0.97260
 Alpha  occ. eigenvalues --   -0.96797  -0.96241  -0.93054  -0.90676  -0.87797
 Alpha  occ. eigenvalues --   -0.86143  -0.84249  -0.83755  -0.83386  -0.82651
 Alpha  occ. eigenvalues --   -0.82057  -0.78492  -0.77141  -0.74961  -0.74305
 Alpha  occ. eigenvalues --   -0.73371  -0.73198  -0.73016  -0.71369  -0.70506
 Alpha  occ. eigenvalues --   -0.67078  -0.66848  -0.66645  -0.66189  -0.64352
 Alpha  occ. eigenvalues --   -0.64166  -0.63467  -0.63070  -0.62472  -0.61464
 Alpha  occ. eigenvalues --   -0.61264  -0.60737  -0.60574  -0.59603  -0.59167
 Alpha  occ. eigenvalues --   -0.58542  -0.58007  -0.57106  -0.56888  -0.56182
 Alpha  occ. eigenvalues --   -0.55846  -0.55715  -0.55445  -0.54240  -0.54039
 Alpha  occ. eigenvalues --   -0.53977  -0.53656  -0.53292  -0.53280  -0.52772
 Alpha  occ. eigenvalues --   -0.52600  -0.52233  -0.52161  -0.51084  -0.50515
 Alpha  occ. eigenvalues --   -0.49937  -0.49822  -0.49181  -0.49142  -0.48608
 Alpha  occ. eigenvalues --   -0.48484  -0.48393  -0.48081  -0.47265  -0.47147
 Alpha  occ. eigenvalues --   -0.47106  -0.45700  -0.45032  -0.44670  -0.43329
 Alpha  occ. eigenvalues --   -0.41290  -0.40863  -0.39209  -0.37872  -0.37674
 Alpha  occ. eigenvalues --   -0.37590  -0.37085  -0.37005  -0.36039  -0.34692
 Alpha  occ. eigenvalues --   -0.34418  -0.33895  -0.33739  -0.33417  -0.32889
 Alpha  occ. eigenvalues --   -0.32447  -0.32230  -0.31891  -0.31667  -0.31085
 Alpha  occ. eigenvalues --   -0.30811  -0.29516  -0.25928  -0.25089
 Alpha virt. eigenvalues --    0.03433   0.03782   0.07033   0.07353   0.08584
 Alpha virt. eigenvalues --    0.09060   0.09988   0.10460   0.11047   0.12023
 Alpha virt. eigenvalues --    0.13060   0.13986   0.14188   0.14266   0.14884

 Mulliken charges:
               1
     1  N   -0.311248
     2  C    0.177334
     3  C    0.072727
     4  N   -0.257879
     5  C    0.135723
     6  H    0.027015
     7  N   -0.287405
     8  C    0.139663
     9  H    0.012697
    10  N   -0.285390
    11  C    0.232226
    12  C    0.094608
    13  N   -0.051289
    14  H    0.109816
    15  H    0.084864
    16  H    0.027718
    17  H    0.032106
    18  H    0.025172
    19  N   -0.283955
    20  C    0.224735
    21  C    0.182489
    22  N   -0.105949
    23  H    0.113270
    24  H    0.114441
    25  N   -0.298027
    26  C    0.219245
    27  N   -0.142759
    28  H    0.124033
    29  C    0.176650
    30  O   -0.323314
    31  C   -0.003807
    32  N   -0.220588
    33  C    0.122455
    34  H    0.015537
    35  H    0.022546
    36  H    0.026644
    37  H    0.020601
    38  H    0.051366
    39  H    0.059586
    40  H    0.071825
    41  H    0.025743
    42  C   -0.110806
    43  O   -0.268161
    44  C    0.169851
    45  H    0.131246
    46  N   -0.118547
    47  O   -0.334908
    48  C    0.332506
    49  H    0.045985
    50  C    0.172190
    51  C    0.042477
    52  N   -0.278453
    53  H    0.036367
    54  H    0.037419
    55  H    0.023945
    56  H    0.125168
    57  H    0.118257
    58  N   -0.059599
    59  C    0.097521
    60  C    0.219673
    61  N   -0.262889
    62  H    0.046075
    63  C    0.141939
    64  N   -0.297850
    65  H    0.038448
    66  C    0.107270
    67  N   -0.251154
    68  C    0.036414
    69  C    0.182567
    70  N   -0.294176
 Sum of Mulliken charges =  -0.00000

 Dipole moment (field-independent basis, Debye):
    X=             -6.6062    Y=              6.4892    Z=             -3.5114  Tot=              9.9036
 Quadrupole moment (field-independent basis, Debye-Ang):
   XX=           -148.0085   YY=           -225.9402   ZZ=           -258.1778
   XY=             -7.8078   XZ=              1.1630   YZ=             10.7803

 Normal termination of Gaussian 16 at Sun Jan 21 05:15:17 2018.
