 Gaussian 16, Revision A.03,
 Gaussian 16:  EM64L-G16RevA.03 25-Dec-2016

 ---------------------------------------
 #p wb97xd/cc-pvdz sp scf=(maxcycles=20)
 ---------------------------------------

 ------------------
 Base pair stacking
 ------------------
 Symbolic Z-matrix:
 Charge =  0 Multiplicity = 1

                         Standard orientation:
 ---------------------------------------------------------------------
 Center     Atomic      Atomic             Coordinates (Angstroms)
 Number     Number       Type             X           Y           Z
 ---------------------------------------------------------------------
      1          7           0       -6.102640   -1.471875    0.759298
      2          6           0       -7.455723   -0.916444    0.955958
      3          6           0       -3.921256   -1.752650    0.752335
      4          7           0       -4.459649   -2.880568    0.150122
      5          6           0       -5.752306   -2.666276    0.178418
      6          1           0       -6.503264   -3.352507   -0.214116
      7          7           0       -2.404581   -0.179320    1.639623
      8          6           0       -3.473057    0.562848    1.948049
      9          1           0       -3.255102    1.510141    2.439364
     10          7           0       -4.764274    0.311725    1.741658
     11          6           0       -4.921754   -0.875404    1.133088
     12          6           0       -2.596339   -1.368493    1.027915
     13          7           0       -1.531019   -2.110775    0.719236
     14          1           0       -1.625850   -2.997761    0.265947
     15          1           0       -0.602320   -1.805739    0.930440
     16          1           0       -7.993931   -1.539355    1.523833
     17          1           0       -7.389457   -0.027612    1.408420
     18          1           0       -7.904496   -0.804603    0.069336
     19          7           0       -3.777684    2.169395   -1.315649
     20          6           0       -2.408954    2.122612   -1.204096
     21          6           0       -4.623778    3.327495   -0.964043
     22          7           0        0.593332    3.647189   -0.353367
     23          1           0        1.564891    3.412036   -0.349396
     24          1           0        0.346891    4.563117   -0.035455
     25          7           0       -1.613422    3.118751   -0.758123
     26          6           0       -0.337948    2.774184   -0.766273
     27          7           0        0.125098    1.548384   -1.179194
     28          1           0        1.117686    1.372438   -1.151196
     29          6           0       -0.675275    0.508579   -1.641887
     30          8           0       -0.156817   -0.559247   -1.990745
     31          6           0       -2.048101    0.863847   -1.638929
     32          7           0       -3.167755    0.135026   -2.015885
     33          6           0       -4.167914    0.947703   -1.807437
     34          1           0       -5.214374    0.705719   -1.996173
     35          1           0       -5.270323    3.065046   -0.248567
     36          1           0       -4.045412    4.071644   -0.632382
     37          1           0       -5.126774    3.632451   -1.772010
     38          1           0        6.083128    0.900387   -0.164171
     39          1           0        6.245670    1.241261   -1.885226
     40          1           0        4.912756    1.945787   -0.969624
     41          1           0        4.952044   -3.390604   -2.022822
     42          6           0        4.497739   -2.411312   -1.871774
     43          8           0        2.282543   -3.179095   -2.233046
     44          6           0        3.077303   -2.274386   -1.978805
     45          1           0        1.607240   -0.857661   -1.837051
     46          7           0        2.606037   -0.993976   -1.769718
     47          8           0        2.838628    1.217697   -1.309716
     48          6           0        3.347557    0.123517   -1.478355
     49          1           0        6.331669   -1.390710   -1.496426
     50          6           0        5.247588   -1.339763   -1.588721
     51          6           0        5.542670    1.075944   -1.082408
     52          7           0        4.709348   -0.089193   -1.391873
     53          1           0        4.673687    2.687980    3.727446
     54          1           0        3.441104    3.082221    2.733752
     55          1           0        4.977580    3.124976    2.184679
     56          1           0        1.896667   -3.432232    0.581544
     57          1           0        3.551456   -3.256261    0.956783
     58          7           0        2.641958   -2.843684    0.895069
     59          6           0        2.433335   -1.565345    1.216805
     60          6           0        3.075575    0.602496    1.958226
     61          7           0        1.843578    1.129763    1.865653
     62          1           0       -0.051841    0.561468    1.331776
     63          6           0        0.975805    0.215952    1.435746
     64          7           0        1.182799   -1.064889    1.112976
     65          1           0        6.251061    0.523556    2.560087
     66          6           0        5.220360    0.290429    2.291306
     67          7           0        4.805121   -0.881614    1.877094
     68          6           0        3.446915   -0.697535    1.662317
     69          6           0        4.338610    2.645349    2.786219
     70          7           0        4.226392    1.235648    2.364126
 ---------------------------------------------------------------------

 SCF Done:  E(RwB97XD) =  -2048.75363634     A.U. after   15 cycles

 The electronic state is 1-A.
 Alpha  occ. eigenvalues --  -19.25840 -19.21993 -19.20600 -14.52333 -14.52121
 Alpha  occ. eigenvalues --  -14.48934 -14.48612 -14.47759 -14.47303 -14.46863
 Alpha  occ. eigenvalues --  -14.46540 -14.45167 -14.43771 -14.43676 -14.42349
 Alpha  occ. eigenvalues --  -14.41936 -14.41461 -14.41180 -14.40774 -14.40385
 Alpha  occ. eigenvalues --  -10.45440 -10.41134 -10.40162 -10.39339 -10.38178
 Alpha  occ. eigenvalues --  -10.37695 -10.37690 -10.36770 -10.35550 -10.35290
 Alpha  occ. eigenvalues --  -10.35273 -10.34207 -10.34154 -10.33800 -10.33475
 Alpha  occ. eigenvalues --  -10.33277 -10.33239 -10.32180 -10.31278 -10.30938
 Alpha  occ. eigenvalues --  -10.30576 -10.28598 -10.27981  -1.19408  -1.14829
 Alpha  occ. eigenvalues --   -1.13142  -1.13057  -1.11471  -1.10475  -1.09238
 Alpha  occ. eigenvalues --   -1.08666  -1.08486  -1.05168  -1.04195  -1.02457
 Alpha  occ. eigenvalues --   -1.00605  -1.00571  -0.99637  -0.98466  -0.97094
 Alpha  occ. eigenvalues --   -0.96441  -0.96227  -0.92832  -0.90945  -0.87248
 Alpha  occ. eigenvalues --   -0.85628  -0.84109  -0.83955  -0.83641  -0.82494
 Alpha  occ. eigenvalues --   -0.82295  -0.78770  -0.76560  -0.74533  -0.74310
 Alpha  occ. eigenvalues --   -0.73563  -0.73307  -0.73036  -0.71205  -0.69920
 Alpha  occ. eigenvalues --   -0.67284  -0.66486  -0.66442  -0.66245  -0.64391
 Alpha  occ. eigenvalues --   -0.63755  -0.63653  -0.62853  -0.62597  -0.61653
 Alpha  occ. eigenvalues --   -0.60591  -0.60435  -0.60025  -0.59384  -0.59070
 Alpha  occ. eigenvalues --   -0.58752  -0.58258  -0.56803  -0.56704  -0.56304
 Alpha  occ. eigenvalues --   -0.55921  -0.55582  -0.54969  -0.54555  -0.54293
 Alpha  occ. eigenvalues --   -0.53679  -0.53540  -0.53081  -0.53029  -0.52833
 Alpha  occ. eigenvalues --   -0.52466  -0.52370  -0.51968  -0.50971  -0.50393
 Alpha  occ. eigenvalues --   -0.50068  -0.49596  -0.49419  -0.49034  -0.48922
 Alpha  occ. eigenvalues --   -0.48752  -0.48301  -0.48037  -0.47452  -0.47343
 Alpha  occ. eigenvalues --   -0.47108  -0.45595  -0.45050  -0.44210  -0.43801
 Alpha  occ. eigenvalues --   -0.41304  -0.40308  -0.39408  -0.37344  -0.37275
 Alpha  occ. eigenvalues --   -0.37220  -0.37192  -0.37057  -0.36002  -0.34406
 Alpha  occ. eigenvalues --   -0.33996  -0.33891  -0.33535  -0.33487  -0.33210
 Alpha  occ. eigenvalues --   -0.32603  -0.32298  -0.31938  -0.31821  -0.31085
 Alpha  occ. eigenvalues --   -0.30603  -0.29388  -0.25816  -0.25296
 Alpha virt. eigenvalues --    0.03067   0.04524   0.07431   0.07792   0.08482
 Alpha virt. eigenvalues --    0.09086   0.09841   0.10750   0.10973   0.11646
 Alpha virt. eigenvalues --    0.13128   0.14099   0.14465   0.14581   0.15184

 Mulliken charges:
               1
     1  N   -0.311724
     2  C    0.179858
     3  C    0.062096
     4  N   -0.255566
     5  C    0.131961
     6  H    0.026416
     7  N   -0.289387
     8  C    0.134445
     9  H    0.012732
    10  N   -0.290331
    11  C    0.231184
    12  C    0.102836
    13  N   -0.047161
    14  H    0.111412
    15  H    0.089152
    16  H    0.026935
    17  H    0.032513
    18  H    0.023437
    19  N   -0.303740
    20  C    0.253841
    21  C    0.180474
    22  N   -0.114483
    23  H    0.113270
    24  H    0.116222
    25  N   -0.307587
    26  C    0.235247
    27  N   -0.145167
    28  H    0.123480
    29  C    0.176752
    30  O   -0.324258
    31  C   -0.009071
    32  N   -0.223124
    33  C    0.129393
    34  H    0.020430
    35  H    0.029255
    36  H    0.027584
    37  H    0.021878
    38  H    0.053934
    39  H    0.060945
    40  H    0.072077
    41  H    0.025861
    42  C   -0.116782
    43  O   -0.273561
    44  C    0.164210
    45  H    0.134186
    46  N   -0.119841
    47  O   -0.342541
    48  C    0.341540
    49  H    0.046465
    50  C    0.184243
    51  C    0.040441
    52  N   -0.280776
    53  H    0.034072
    54  H    0.039605
    55  H    0.023049
    56  H    0.127038
    57  H    0.116950
    58  N   -0.053433
    59  C    0.100262
    60  C    0.248358
    61  N   -0.273463
    62  H    0.038587
    63  C    0.156157
    64  N   -0.301466
    65  H    0.035734
    66  C    0.116268
    67  N   -0.256026
    68  C    0.011853
    69  C    0.180986
    70  N   -0.306135
 Sum of Mulliken charges =  -0.00000

 Dipole moment (field-independent basis, Debye):
    X=              6.7551    Y=              6.3971    Z=              3.0721  Tot=              9.7975
 Quadrupole moment (field-independent basis, Debye-Ang):
   XX=           -146.3250   YY=           -224.0791   ZZ=           -256.5025
   XY=              7.8684   XZ=              6.4537   YZ=             -5.0620

 Normal termination of Gaussian 16 at Sun Jan 21 19:07:26 2018.
