 Gaussian 16, Revision A.03,
 Gaussian 16:  EM64L-G16RevA.03 25-Dec-2016

 ---------------------------------------
 #p wb97xd/cc-pvdz sp scf=(maxcycles=20)
 ---------------------------------------

 ------------------
 Base pair stacking
 ------------------
 Symbolic Z-matrix:
 Charge =  0 Multiplicity = 1

                         Standard orientation:
 ---------------------------------------------------------------------
 Center     Atomic      Atomic             Coordinates (Angstroms)
 Number     Number       Type             X           Y           Z
 ---------------------------------------------------------------------
      1          7           0       -7.151210   -1.099950    0.166344
      2          6           0       -8.476357   -0.454116    0.096509
      3          6           0       -5.002000   -1.473581    0.446739
      4          7           0       -5.557492   -2.681602    0.050705
      5          6           0       -6.830075   -2.408155   -0.102373
      6          1           0       -7.586329   -3.129800   -0.412627
      7          7           0       -3.470708    0.187363    1.124479
      8          6           0       -4.510771    1.027054    1.152206
      9          1           0       -4.275634    2.049007    1.446481
     10          7           0       -5.791668    0.794982    0.872308
     11          6           0       -5.972082   -0.489340    0.522457
     12          6           0       -3.685023   -1.098095    0.768463
     13          7           0       -2.648074   -1.937790    0.740194
     14          1           0       -2.760313   -2.898122    0.482531
     15          1           0       -1.724190   -1.635761    0.975474
     16          1           0       -9.104632   -0.910259    0.726887
     17          1           0       -8.392305    0.509113    0.350000
     18          1           0       -8.833858   -0.521935   -0.834934
     19          7           0       -2.597342    2.055134   -1.607429
     20          6           0       -1.248498    1.974217   -1.358171
     21          6           0       -3.432520    3.255890   -1.404113
     22          7           0        1.708174    3.454958   -0.296448
     23          1           0        2.665867    3.191711   -0.183435
     24          1           0        1.464203    4.394352   -0.054098
     25          7           0       -0.465770    2.970039   -0.889423
     26          6           0        0.791531    2.587904   -0.752410
     27          7           0        1.249335    1.327459   -1.051050
     28          1           0        2.227669    1.124043   -0.915243
     29          6           0        0.461904    0.287244   -1.534549
     30          8           0        0.974115   -0.813559   -1.772501
     31          6           0       -0.891361    0.682643   -1.686960
     32          7           0       -1.993807   -0.032891   -2.133641
     33          6           0       -2.980383    0.819605   -2.069369
     34          1           0       -4.011309    0.598419   -2.347849
     35          1           0       -4.154562    3.053766   -0.743344
     36          1           0       -2.863500    4.000202   -1.057010
     37          1           0       -3.843327    3.529269   -2.273207
     38          1           0        7.053589    0.561809    0.583803
     39          1           0        7.395022    0.799455   -1.128396
     40          1           0        6.004732    1.594020   -0.388723
     41          1           0        5.959242   -3.792369   -1.145411
     42          6           0        5.527022   -2.793038   -1.092894
     43          8           0        3.332032   -3.514100   -1.630689
     44          6           0        4.129475   -2.620371   -1.347624
     45          1           0        2.703207   -1.154923   -1.428645
     46          7           0        3.685286   -1.316752   -1.255259
     47          8           0        3.949377    0.909601   -0.893583
     48          6           0        4.433616   -0.206989   -0.952002
     49          1           0        7.350295   -1.807593   -0.592530
     50          6           0        6.282834   -1.729850   -0.794611
     51          6           0        6.611734    0.700895   -0.391645
     52          7           0        5.772189   -0.454723   -0.719455
     53          1           0        3.563523    3.123932    3.264220
     54          1           0        2.455927    3.342795    2.086326
     55          1           0        4.035501    3.192942    1.703489
     56          1           0        0.681696   -3.410393    1.248486
     57          1           0        2.303388   -3.230423    1.746298
     58          7           0        1.432982   -2.801197    1.502624
     59          6           0        1.281923   -1.475236    1.516303
     60          6           0        1.997508    0.771856    1.832908
     61          7           0        0.817172    1.320514    1.500980
     62          1           0       -1.055405    0.734078    0.909221
     63          6           0       -0.066976    0.374202    1.191635
     64          7           0        0.082398   -0.954358    1.177339
     65          1           0        5.092395    0.685162    2.763699
     66          6           0        4.077229    0.444979    2.446371
     67          7           0        3.623987   -0.769808    2.255162
     68          6           0        2.306436   -0.576851    1.865892
     69          6           0        3.313629    2.888382    2.325041
     70          7           0        3.146280    1.426689    2.209131
 ---------------------------------------------------------------------

 SCF Done:  E(RwB97XD) =  -2048.73126752     A.U. after   15 cycles

 The electronic state is 1-A.
 Alpha  occ. eigenvalues --  -19.26022 -19.21960 -19.20552 -14.52482 -14.51413
 Alpha  occ. eigenvalues --  -14.49694 -14.48550 -14.47840 -14.46799 -14.46543
 Alpha  occ. eigenvalues --  -14.46453 -14.44379 -14.42937 -14.42839 -14.42490
 Alpha  occ. eigenvalues --  -14.42366 -14.41977 -14.41951 -14.41076 -14.40691
 Alpha  occ. eigenvalues --  -10.45583 -10.41183 -10.40066 -10.38449 -10.38155
 Alpha  occ. eigenvalues --  -10.37708 -10.36987 -10.36319 -10.35860 -10.35718
 Alpha  occ. eigenvalues --  -10.35012 -10.34363 -10.34267 -10.34239 -10.34071
 Alpha  occ. eigenvalues --  -10.33473 -10.33147 -10.31699 -10.31367 -10.31006
 Alpha  occ. eigenvalues --  -10.30438 -10.29538 -10.28065  -1.19543  -1.14111
 Alpha  occ. eigenvalues --   -1.13175  -1.12990  -1.12307  -1.10466  -1.09374
 Alpha  occ. eigenvalues --   -1.08597  -1.07770  -1.05930  -1.03359  -1.02488
 Alpha  occ. eigenvalues --   -1.01331  -1.00103  -0.99685  -0.98442  -0.97849
 Alpha  occ. eigenvalues --   -0.96412  -0.95394  -0.93561  -0.91021  -0.86598
 Alpha  occ. eigenvalues --   -0.85111  -0.84857  -0.84028  -0.83883  -0.83178
 Alpha  occ. eigenvalues --   -0.82271  -0.78869  -0.75803  -0.74594  -0.73815
 Alpha  occ. eigenvalues --   -0.73734  -0.73453  -0.73343  -0.72021  -0.69228
 Alpha  occ. eigenvalues --   -0.67428  -0.67186  -0.66565  -0.65557  -0.64456
 Alpha  occ. eigenvalues --   -0.63716  -0.63622  -0.63068  -0.62672  -0.61806
 Alpha  occ. eigenvalues --   -0.61028  -0.60082  -0.59524  -0.59404  -0.59168
 Alpha  occ. eigenvalues --   -0.58502  -0.58274  -0.57338  -0.57241  -0.56773
 Alpha  occ. eigenvalues --   -0.56149  -0.55989  -0.55065  -0.54419  -0.54375
 Alpha  occ. eigenvalues --   -0.53599  -0.53549  -0.52895  -0.52807  -0.52694
 Alpha  occ. eigenvalues --   -0.52487  -0.52128  -0.51709  -0.51637  -0.51023
 Alpha  occ. eigenvalues --   -0.50048  -0.49908  -0.49455  -0.48931  -0.48686
 Alpha  occ. eigenvalues --   -0.48585  -0.48184  -0.47947  -0.47781  -0.47492
 Alpha  occ. eigenvalues --   -0.47332  -0.45897  -0.45311  -0.44003  -0.42905
 Alpha  occ. eigenvalues --   -0.42123  -0.39571  -0.39520  -0.38130  -0.37295
 Alpha  occ. eigenvalues --   -0.37196  -0.36698  -0.36179  -0.35634  -0.34775
 Alpha  occ. eigenvalues --   -0.34437  -0.34389  -0.33169  -0.32991  -0.32822
 Alpha  occ. eigenvalues --   -0.32546  -0.32171  -0.31940  -0.31817  -0.31694
 Alpha  occ. eigenvalues --   -0.31226  -0.28349  -0.26715  -0.25367
 Alpha virt. eigenvalues --    0.03206   0.04922   0.07019   0.08146   0.08420
 Alpha virt. eigenvalues --    0.09235   0.09694   0.09932   0.11017   0.12119
 Alpha virt. eigenvalues --    0.12781   0.13258   0.14411   0.14663   0.14985

 Mulliken charges:
               1
     1  N   -0.311304
     2  C    0.180579
     3  C    0.036460
     4  N   -0.257405
     5  C    0.133986
     6  H    0.029643
     7  N   -0.276514
     8  C    0.117956
     9  H    0.021254
    10  N   -0.288333
    11  C    0.234547
    12  C    0.106993
    13  N   -0.045613
    14  H    0.107586
    15  H    0.088528
    16  H    0.027759
    17  H    0.035450
    18  H    0.026838
    19  N   -0.298643
    20  C    0.226133
    21  C    0.183261
    22  N   -0.100019
    23  H    0.105395
    24  H    0.118497
    25  N   -0.286288
    26  C    0.214289
    27  N   -0.111887
    28  H    0.122396
    29  C    0.136884
    30  O   -0.321179
    31  C    0.006261
    32  N   -0.222259
    33  C    0.125878
    34  H    0.028580
    35  H    0.023014
    36  H    0.026558
    37  H    0.023152
    38  H    0.056634
    39  H    0.063901
    40  H    0.071228
    41  H    0.031029
    42  C   -0.107443
    43  O   -0.269942
    44  C    0.180014
    45  H    0.135325
    46  N   -0.134174
    47  O   -0.352778
    48  C    0.360038
    49  H    0.046913
    50  C    0.176040
    51  C    0.036713
    52  N   -0.292767
    53  H    0.033370
    54  H    0.032244
    55  H    0.023432
    56  H    0.119553
    57  H    0.119059
    58  N   -0.060371
    59  C    0.127431
    60  C    0.226866
    61  N   -0.260026
    62  H    0.060148
    63  C    0.141498
    64  N   -0.300119
    65  H    0.025725
    66  C    0.123009
    67  N   -0.258274
    68  C    0.014204
    69  C    0.163740
    70  N   -0.300656
 Sum of Mulliken charges =  -0.00000

 Dipole moment (field-independent basis, Debye):
    X=              5.9717    Y=              5.8908    Z=              3.4343  Tot=              9.0641
 Quadrupole moment (field-independent basis, Debye-Ang):
   XX=           -138.7689   YY=           -226.9578   ZZ=           -254.4355
   XY=             14.0940   XZ=             17.0998   YZ=             -8.3356

 Normal termination of Gaussian 16 at Sun Jan 21 21:53:00 2018.
