 Gaussian 16, Revision A.03,
 Gaussian 16:  EM64L-G16RevA.03 25-Dec-2016

 ---------------------------------------
 #p wb97xd/cc-pvdz sp scf=(maxcycles=20)
 ---------------------------------------

 ------------------
 Base pair stacking
 ------------------
 Symbolic Z-matrix:
 Charge =  0 Multiplicity = 1

                         Standard orientation:
 ---------------------------------------------------------------------
 Center     Atomic      Atomic             Coordinates (Angstroms)
 Number     Number       Type             X           Y           Z
 ---------------------------------------------------------------------
      1          7           0        4.874702   -1.713395   -1.555902
      2          6           0        6.223526   -1.227830   -1.906488
      3          6           0        2.698506   -1.871069   -1.279085
      4          7           0        3.238890   -3.049745   -0.785694
      5          6           0        4.528335   -2.907578   -0.972208
      6          1           0        5.279652   -3.649520   -0.700188
      7          7           0        1.180607   -0.182050   -1.916384
      8          6           0        2.244890    0.510112   -2.335661
      9          1           0        2.024789    1.486305   -2.765617
     10          7           0        3.534169    0.179015   -2.303714
     11          6           0        3.694579   -1.037546   -1.757217
     12          6           0        1.375224   -1.402704   -1.371205
     13          7           0        0.314092   -2.095168   -0.952085
     14          1           0        0.411153   -3.002809   -0.542237
     15          1           0       -0.613559   -1.730500   -1.033443
     16          1           0        6.647312   -1.857803   -2.557426
     17          1           0        6.154958   -0.319992   -2.319103
     18          1           0        6.786110   -1.175492   -1.081406
     19          7           0        5.047060    1.830319    0.866616
     20          6           0        3.674866    1.864934    0.929380
     21          6           0        5.910941    2.951613    0.445773
     22          7           0        0.687536    3.587477    0.516540
     23          1           0       -0.289280    3.407677    0.629415
     24          1           0        0.947167    4.499596    0.198200
     25          7           0        2.891499    2.920597    0.619635
     26          6           0        1.608634    2.648275    0.779955
     27          7           0        1.127643    1.435531    1.210563
     28          1           0        0.130583    1.316912    1.304132
     29          6           0        1.915254    0.335375    1.534909
     30          8           0        1.380940   -0.714176    1.913964
     31          6           0        3.295828    0.612703    1.367631
     32          7           0        4.407686   -0.191866    1.575816
     33          6           0        5.421156    0.570662    1.266563
     34          1           0        6.466423    0.263127    1.312547
     35          1           0        6.445323    2.680833   -0.354168
     36          1           0        5.341704    3.739293    0.213837
     37          1           0        6.529055    3.196590    1.191920
     38          1           0       -4.938958    1.163139    0.945214
     39          1           0       -4.862941    1.446370    2.682640
     40          1           0       -3.615398    2.109379    1.626508
     41          1           0       -3.845668   -3.252799    2.510735
     42          6           0       -3.355391   -2.295538    2.333230
     43          8           0       -1.163037   -3.200013    2.384764
     44          6           0       -1.927096   -2.242940    2.262163
     45          1           0       -0.403274   -0.906766    1.977675
     46          7           0       -1.409036   -0.984002    2.034271
     47          8           0       -1.562993    1.253258    1.676276
     48          6           0       -2.112126    0.183783    1.874654
     49          1           0       -5.156627   -1.159751    2.226883
     50          6           0       -4.068469   -1.173439    2.181506
     51          6           0       -4.277734    1.272674    1.791894
     52          7           0       -3.484364    0.051490    1.956262
     53          1           0       -5.916844    3.156832   -2.993579
     54          1           0       -4.547525    3.442721   -2.153740
     55          1           0       -5.997376    3.550755   -1.411885
     56          1           0       -3.142915   -3.226012   -0.418669
     57          1           0       -4.817996   -2.942974   -0.573899
     58          7           0       -3.884612   -2.584883   -0.616114
     59          6           0       -3.640916   -1.308911   -0.922212
     60          6           0       -4.238547    0.918449   -1.508214
     61          7           0       -2.974977    1.371644   -1.557491
     62          1           0       -1.065485    0.677571   -1.287858
     63          6           0       -2.117103    0.394652   -1.270373
     64          7           0       -2.359208   -0.883948   -0.963535
     65          1           0       -7.463380    1.041410   -1.701763
     66          6           0       -6.423128    0.740536   -1.574152
     67          7           0       -6.030996   -0.468026   -1.252759
     68          6           0       -4.647923   -0.369016   -1.207620
     69          6           0       -5.469345    3.059365   -2.104620
     70          7           0       -5.390697    1.630437   -1.744078
 ---------------------------------------------------------------------

 SCF Done:  E(RwB97XD) =  -2048.74964255     A.U. after   15 cycles

 The electronic state is 1-A.
 Alpha  occ. eigenvalues --  -19.25503 -19.21856 -19.20637 -14.52628 -14.52084
 Alpha  occ. eigenvalues --  -14.49052 -14.48321 -14.48189 -14.47453 -14.46870
 Alpha  occ. eigenvalues --  -14.46712 -14.45583 -14.44525 -14.44488 -14.42393
 Alpha  occ. eigenvalues --  -14.42077 -14.41298 -14.40918 -14.40842 -14.40409
 Alpha  occ. eigenvalues --  -10.45096 -10.41295 -10.40106 -10.39894 -10.38291
 Alpha  occ. eigenvalues --  -10.38111 -10.37383 -10.37349 -10.36041 -10.35451
 Alpha  occ. eigenvalues --  -10.34722 -10.34547 -10.33992 -10.33727 -10.33625
 Alpha  occ. eigenvalues --  -10.33125 -10.33074 -10.32849 -10.31150 -10.30807
 Alpha  occ. eigenvalues --  -10.30753 -10.28309 -10.28302  -1.19081  -1.15387
 Alpha  occ. eigenvalues --   -1.13267  -1.12828  -1.10929  -1.10783  -1.09539
 Alpha  occ. eigenvalues --   -1.08927  -1.08610  -1.05048  -1.04962  -1.02135
 Alpha  occ. eigenvalues --   -1.01109  -1.00417  -0.99789  -0.98648  -0.97081
 Alpha  occ. eigenvalues --   -0.96820  -0.96575  -0.92730  -0.90707  -0.87799
 Alpha  occ. eigenvalues --   -0.86026  -0.84330  -0.83681  -0.83259  -0.82705
 Alpha  occ. eigenvalues --   -0.82109  -0.78549  -0.77193  -0.74998  -0.74791
 Alpha  occ. eigenvalues --   -0.73702  -0.73020  -0.72751  -0.70933  -0.70540
 Alpha  occ. eigenvalues --   -0.67497  -0.66955  -0.66223  -0.66149  -0.64477
 Alpha  occ. eigenvalues --   -0.64348  -0.63691  -0.62698  -0.62606  -0.61899
 Alpha  occ. eigenvalues --   -0.60870  -0.60589  -0.60389  -0.59538  -0.59188
 Alpha  occ. eigenvalues --   -0.58957  -0.58438  -0.57014  -0.56459  -0.55960
 Alpha  occ. eigenvalues --   -0.55816  -0.55544  -0.55299  -0.54332  -0.54095
 Alpha  occ. eigenvalues --   -0.53780  -0.53676  -0.53571  -0.53152  -0.53074
 Alpha  occ. eigenvalues --   -0.52890  -0.52079  -0.51582  -0.50533  -0.50276
 Alpha  occ. eigenvalues --   -0.50247  -0.49930  -0.49353  -0.49142  -0.48899
 Alpha  occ. eigenvalues --   -0.48781  -0.48439  -0.48354  -0.47926  -0.47283
 Alpha  occ. eigenvalues --   -0.46796  -0.45871  -0.45528  -0.44660  -0.42797
 Alpha  occ. eigenvalues --   -0.41037  -0.40859  -0.39161  -0.38060  -0.37760
 Alpha  occ. eigenvalues --   -0.37429  -0.37358  -0.36943  -0.35851  -0.34876
 Alpha  occ. eigenvalues --   -0.34454  -0.34107  -0.33327  -0.33226  -0.33015
 Alpha  occ. eigenvalues --   -0.32783  -0.32700  -0.31972  -0.31941  -0.30693
 Alpha  occ. eigenvalues --   -0.30394  -0.29708  -0.25826  -0.25525
 Alpha virt. eigenvalues --    0.03039   0.03945   0.06759   0.08066   0.08864
 Alpha virt. eigenvalues --    0.09085   0.09647   0.10363   0.11069   0.12194
 Alpha virt. eigenvalues --    0.12922   0.13762   0.14358   0.14546   0.14756

 Mulliken charges:
               1
     1  N   -0.306197
     2  C    0.180520
     3  C    0.058855
     4  N   -0.255027
     5  C    0.146684
     6  H    0.026273
     7  N   -0.292628
     8  C    0.130191
     9  H    0.010522
    10  N   -0.283918
    11  C    0.242201
    12  C    0.083841
    13  N   -0.055041
    14  H    0.115659
    15  H    0.084870
    16  H    0.025807
    17  H    0.030278
    18  H    0.019258
    19  N   -0.307849
    20  C    0.264790
    21  C    0.183069
    22  N   -0.124203
    23  H    0.119607
    24  H    0.118336
    25  N   -0.310837
    26  C    0.247298
    27  N   -0.141165
    28  H    0.118715
    29  C    0.187180
    30  O   -0.321152
    31  C   -0.017065
    32  N   -0.222334
    33  C    0.112422
    34  H    0.022638
    35  H    0.025390
    36  H    0.031129
    37  H    0.024196
    38  H    0.060777
    39  H    0.058422
    40  H    0.075280
    41  H    0.020828
    42  C   -0.105397
    43  O   -0.270443
    44  C    0.167744
    45  H    0.130332
    46  N   -0.117749
    47  O   -0.347752
    48  C    0.342690
    49  H    0.044517
    50  C    0.162992
    51  C    0.044573
    52  N   -0.275739
    53  H    0.034876
    54  H    0.041362
    55  H    0.027439
    56  H    0.124902
    57  H    0.115468
    58  N   -0.050599
    59  C    0.087895
    60  C    0.219998
    61  N   -0.264449
    62  H    0.029119
    63  C    0.168564
    64  N   -0.310572
    65  H    0.037277
    66  C    0.127761
    67  N   -0.253918
    68  C    0.020691
    69  C    0.181574
    70  N   -0.300775
 Sum of Mulliken charges =  -0.00000

 Dipole moment (field-independent basis, Debye):
    X=             -6.7821    Y=              7.2572    Z=             -2.0524  Tot=             10.1428
 Quadrupole moment (field-independent basis, Debye-Ang):
   XX=           -152.1343   YY=           -223.8525   ZZ=           -255.8467
   XY=             -3.4161   XZ=             -9.2358   YZ=              7.2678

 Normal termination of Gaussian 16 at Sun Jan 21 20:54:24 2018.
