 Gaussian 16, Revision A.03,
 Gaussian 16:  EM64L-G16RevA.03 25-Dec-2016

 ---------------------------------------
 #p wb97xd/cc-pvdz sp scf=(maxcycles=20)
 ---------------------------------------

 ------------------
 Base pair stacking
 ------------------
 Symbolic Z-matrix:
 Charge =  0 Multiplicity = 1

                         Standard orientation:
 ---------------------------------------------------------------------
 Center     Atomic      Atomic             Coordinates (Angstroms)
 Number     Number       Type             X           Y           Z
 ---------------------------------------------------------------------
      1          7           0        5.791640   -1.438138   -1.023767
      2          6           0        7.145377   -0.861297   -1.136165
      3          6           0        3.608881   -1.707780   -1.037373
      4          7           0        4.148199   -2.927351   -0.654605
      5          6           0        5.441641   -2.716091   -0.661725
      6          1           0        6.193454   -3.464291   -0.408935
      7          7           0        2.090390    0.004628   -1.607300
      8          6           0        3.159243    0.786247   -1.792256
      9          1           0        2.940672    1.807081   -2.102720
     10          7           0        4.451475    0.497538   -1.651956
     11          6           0        4.609640   -0.780062   -1.268336
     12          6           0        2.282860   -1.275659   -1.221424
     13          7           0        1.217165   -2.057447   -1.036281
     14          1           0        1.312496   -3.011698   -0.750724
     15          1           0        0.287671   -1.716151   -1.176625
     16          1           0        7.672520   -1.374170   -1.813861
     17          1           0        7.078642    0.094504   -1.420961
     18          1           0        7.606156   -0.911917   -0.250099
     19          7           0        4.125674    1.928580    1.288584
     20          6           0        2.754564    1.909765    1.200487
     21          6           0        4.988068    3.074582    0.936931
     22          7           0       -0.231559    3.503110    0.422019
     23          1           0       -1.207460    3.286884    0.432106
     24          1           0        0.027221    4.418167    0.111489
     25          7           0        1.971097    2.926835    0.781235
     26          6           0        0.689456    2.606943    0.807388
     27          7           0        0.209712    1.385039    1.212756
     28          1           0       -0.786467    1.228726    1.199949
     29          6           0        0.997452    0.323991    1.648084
     30          8           0        0.464305   -0.738049    1.992380
     31          6           0        2.376714    0.652640    1.625551
     32          7           0        3.488240   -0.102571    1.973500
     33          6           0        4.500360    0.693254    1.757890
     34          1           0        5.544996    0.428622    1.925134
     35          1           0        5.616879    2.809026    0.206943
     36          1           0        4.418729    3.834048    0.624958
     37          1           0        5.510838    3.359181    1.739752
     38          1           0       -5.776532    0.865768    0.294300
     39          1           0       -5.902578    1.187234    2.022133
     40          1           0       -4.572168    1.877721    1.092309
     41          1           0       -4.697686   -3.470198    2.078129
     42          6           0       -4.226982   -2.497985    1.931583
     43          8           0       -2.021320   -3.313151    2.244146
     44          6           0       -2.802501   -2.389988    2.015410
     45          1           0       -1.307645   -1.000243    1.865890
     46          7           0       -2.309945   -1.116320    1.814373
     47          8           0       -2.507113    1.105255    1.386666
     48          6           0       -3.034372    0.019024    1.550299
     49          1           0       -6.046800   -1.437282    1.601486
     50          6           0       -4.960491   -1.408530    1.675376
     51          6           0       -5.216939    1.018844    1.205060
     52          7           0       -4.401361   -0.166143    1.485027
     53          1           0       -4.996791    3.225311   -3.049950
     54          1           0       -3.749226    3.430496   -2.018658
     55          1           0       -5.278250    3.379563   -1.449824
     56          1           0       -2.216319   -3.369861   -1.090818
     57          1           0       -3.874708   -3.123498   -1.405722
     58          7           0       -2.962042   -2.731947   -1.283489
     59          6           0       -2.749914   -1.417397   -1.373616
     60          6           0       -3.388633    0.850576   -1.705432
     61          7           0       -2.152401    1.348263   -1.536704
     62          1           0       -0.253721    0.686616   -1.139404
     63          6           0       -1.284677    0.369043   -1.289560
     64          7           0       -1.495167   -0.948169   -1.198884
     65          1           0       -6.571998    0.892268   -2.268121
     66          6           0       -5.539338    0.611011   -2.059658
     67          7           0       -5.125844   -0.617798   -1.868036
     68          6           0       -3.763917   -0.480113   -1.642374
     69          6           0       -4.649927    3.013337   -2.136315
     70          7           0       -4.540741    1.550395   -1.975421
 ---------------------------------------------------------------------

 SCF Done:  E(RwB97XD) =  -2048.75273460     A.U. after   15 cycles

 The electronic state is 1-A.
 Alpha  occ. eigenvalues --  -19.25570 -19.21756 -19.20489 -14.52493 -14.52096
 Alpha  occ. eigenvalues --  -14.48958 -14.48429 -14.47963 -14.47525 -14.46722
 Alpha  occ. eigenvalues --  -14.46340 -14.45566 -14.44209 -14.44189 -14.42573
 Alpha  occ. eigenvalues --  -14.41818 -14.41482 -14.41292 -14.40716 -14.40477
 Alpha  occ. eigenvalues --  -10.45138 -10.41020 -10.39871 -10.39840 -10.38072
 Alpha  occ. eigenvalues --  -10.38059 -10.37440 -10.37180 -10.35673 -10.35631
 Alpha  occ. eigenvalues --  -10.34942 -10.34186 -10.34126 -10.34064 -10.33544
 Alpha  occ. eigenvalues --  -10.33324 -10.33147 -10.32660 -10.31364 -10.30761
 Alpha  occ. eigenvalues --  -10.30421 -10.28653 -10.27867  -1.19188  -1.15266
 Alpha  occ. eigenvalues --   -1.13019  -1.12778  -1.11497  -1.10343  -1.09177
 Alpha  occ. eigenvalues --   -1.09006  -1.08354  -1.05282  -1.04673  -1.02205
 Alpha  occ. eigenvalues --   -1.01026  -1.00723  -0.99468  -0.98356  -0.97170
 Alpha  occ. eigenvalues --   -0.96691  -0.96318  -0.92964  -0.90729  -0.87677
 Alpha  occ. eigenvalues --   -0.86021  -0.84167  -0.83830  -0.83422  -0.82571
 Alpha  occ. eigenvalues --   -0.82156  -0.78543  -0.77023  -0.74826  -0.74368
 Alpha  occ. eigenvalues --   -0.73421  -0.73122  -0.73075  -0.71287  -0.70384
 Alpha  occ. eigenvalues --   -0.67142  -0.66733  -0.66550  -0.66242  -0.64230
 Alpha  occ. eigenvalues --   -0.64200  -0.63516  -0.62976  -0.62485  -0.61529
 Alpha  occ. eigenvalues --   -0.61067  -0.60635  -0.60458  -0.59492  -0.59190
 Alpha  occ. eigenvalues --   -0.58630  -0.58088  -0.56972  -0.56808  -0.56175
 Alpha  occ. eigenvalues --   -0.55765  -0.55724  -0.55342  -0.54275  -0.54044
 Alpha  occ. eigenvalues --   -0.53910  -0.53539  -0.53361  -0.53231  -0.52739
 Alpha  occ. eigenvalues --   -0.52670  -0.52268  -0.52071  -0.51005  -0.50466
 Alpha  occ. eigenvalues --   -0.49927  -0.49869  -0.49207  -0.49095  -0.48618
 Alpha  occ. eigenvalues --   -0.48563  -0.48407  -0.48148  -0.47253  -0.47194
 Alpha  occ. eigenvalues --   -0.47148  -0.45722  -0.44994  -0.44699  -0.43419
 Alpha  occ. eigenvalues --   -0.41273  -0.40741  -0.39226  -0.37788  -0.37544
 Alpha  occ. eigenvalues --   -0.37453  -0.37115  -0.37067  -0.36037  -0.34632
 Alpha  occ. eigenvalues --   -0.34327  -0.33910  -0.33653  -0.33446  -0.32975
 Alpha  occ. eigenvalues --   -0.32497  -0.32234  -0.31918  -0.31721  -0.31079
 Alpha  occ. eigenvalues --   -0.30734  -0.29523  -0.25877  -0.25168
 Alpha virt. eigenvalues --    0.03382   0.03904   0.07145   0.07498   0.08553
 Alpha virt. eigenvalues --    0.09121   0.09970   0.10509   0.11014   0.11947
 Alpha virt. eigenvalues --    0.13061   0.14039   0.14237   0.14349   0.14915

 Mulliken charges:
               1
     1  N   -0.311169
     2  C    0.178076
     3  C    0.071076
     4  N   -0.257035
     5  C    0.135376
     6  H    0.026777
     7  N   -0.289118
     8  C    0.136777
     9  H    0.012828
    10  N   -0.286802
    11  C    0.232691
    12  C    0.096420
    13  N   -0.050205
    14  H    0.110602
    15  H    0.085193
    16  H    0.027378
    17  H    0.032001
    18  H    0.024318
    19  N   -0.292041
    20  C    0.239573
    21  C    0.182181
    22  N   -0.110220
    23  H    0.113734
    24  H    0.115372
    25  N   -0.302704
    26  C    0.225479
    27  N   -0.143584
    28  H    0.123889
    29  C    0.178975
    30  O   -0.323704
    31  C   -0.009063
    32  N   -0.221244
    33  C    0.124300
    34  H    0.016638
    35  H    0.024851
    36  H    0.027137
    37  H    0.020973
    38  H    0.053171
    39  H    0.060340
    40  H    0.072694
    41  H    0.025004
    42  C   -0.110902
    43  O   -0.269126
    44  C    0.167314
    45  H    0.131572
    46  N   -0.117340
    47  O   -0.337396
    48  C    0.333641
    49  H    0.046095
    50  C    0.173307
    51  C    0.040060
    52  N   -0.278357
    53  H    0.035555
    54  H    0.038237
    55  H    0.023791
    56  H    0.126161
    57  H    0.117743
    58  N   -0.057465
    59  C    0.094423
    60  C    0.228188
    61  N   -0.265753
    62  H    0.042643
    63  C    0.146804
    64  N   -0.298461
    65  H    0.037791
    66  C    0.109999
    67  N   -0.253286
    68  C    0.033221
    69  C    0.182562
    70  N   -0.297956
 Sum of Mulliken charges =  -0.00000

 Dipole moment (field-independent basis, Debye):
    X=             -6.6576    Y=              6.5051    Z=             -3.2973  Tot=              9.8748
 Quadrupole moment (field-independent basis, Debye-Ang):
   XX=           -147.9117   YY=           -225.0199   ZZ=           -257.8452
   XY=             -7.6116   XZ=              1.6645   YZ=              9.1052

 Normal termination of Gaussian 16 at Sun Jan 21 18:19:18 2018.
