 Gaussian 16, Revision A.03,
 Gaussian 16:  EM64L-G16RevA.03 25-Dec-2016

 ---------------------------------------
 #p wb97xd/cc-pvdz sp scf=(maxcycles=20)
 ---------------------------------------

 ------------------
 Base pair stacking
 ------------------
 Symbolic Z-matrix:
 Charge =  0 Multiplicity = 1

                         Standard orientation:
 ---------------------------------------------------------------------
 Center     Atomic      Atomic             Coordinates (Angstroms)
 Number     Number       Type             X           Y           Z
 ---------------------------------------------------------------------
      1          7           0        4.242573   -1.776626   -1.874616
      2          6           0        5.571150   -1.332518   -2.339007
      3          6           0        2.090058   -1.877168   -1.434308
      4          7           0        2.642045   -3.051068   -0.942375
      5          6           0        3.916768   -2.943509   -1.227330
      6          1           0        4.671344   -3.692771   -0.986157
      7          7           0        0.562834   -0.176318   -2.015388
      8          6           0        1.606700    0.478327   -2.534397
      9          1           0        1.374740    1.444847   -2.979700
     10          7           0        2.888057    0.119989   -2.585662
     11          6           0        3.064352   -1.081660   -2.011740
     12          6           0        0.773070   -1.382848   -1.445150
     13          7           0       -0.267679   -2.037864   -0.926520
     14          1           0       -0.158543   -2.933807   -0.494566
     15          1           0       -1.191451   -1.655565   -0.952060
     16          1           0        5.933257   -1.992284   -2.997626
     17          1           0        5.490227   -0.437096   -2.775806
     18          1           0        6.194008   -1.266174   -1.559495
     19          7           0        5.629754    1.694098    0.590955
     20          6           0        4.266136    1.757780    0.747607
     21          6           0        6.493959    2.815071    0.169926
     22          7           0        1.305721    3.569531    0.624092
     23          1           0        0.333985    3.407210    0.793261
     24          1           0        1.568335    4.490604    0.335336
     25          7           0        3.492859    2.846351    0.544875
     26          6           0        2.216481    2.596406    0.777265
     27          7           0        1.732366    1.374595    1.177645
     28          1           0        0.740812    1.274831    1.332032
     29          6           0        2.509636    0.240754    1.392424
     30          8           0        1.973338   -0.814203    1.753246
     31          6           0        3.883149    0.493738    1.146760
     32          7           0        4.984168   -0.346596    1.238844
     33          6           0        5.995255    0.406843    0.900856
     34          1           0        7.032582    0.072748    0.860822
     35          1           0        6.966857    2.573755   -0.676800
     36          1           0        5.932150    3.626978    0.016803
     37          1           0        7.166384    3.006219    0.884152
     38          1           0       -4.343665    1.259682    1.307906
     39          1           0       -4.145489    1.450222    3.048330
     40          1           0       -2.952918    2.137662    1.945353
     41          1           0       -3.269167   -3.256336    2.571890
     42          6           0       -2.765986   -2.302979    2.410217
     43          8           0       -0.600268   -3.260416    2.268429
     44          6           0       -1.344597   -2.280495    2.245905
     45          1           0        0.192672   -0.967674    1.927133
     46          7           0       -0.808876   -1.023976    2.047341
     47          8           0       -0.925602    1.231893    1.813662
     48          6           0       -1.489145    0.166815    1.994438
     49          1           0       -4.538957   -1.120986    2.482699
     50          6           0       -3.456930   -1.157982    2.363545
     51          6           0       -3.625277    1.309355    2.112597
     52          7           0       -2.856083    0.062883    2.161466
     53          1           0       -6.527602    3.282435   -2.682549
     54          1           0       -5.094677    3.564776   -1.955142
     55          1           0       -6.483421    3.728605   -1.113339
     56          1           0       -3.697501   -3.074263   -0.104077
     57          1           0       -5.373573   -2.759373   -0.145860
     58          7           0       -4.438975   -2.423555   -0.268220
     59          6           0       -4.193443   -1.163771   -0.634065
     60          6           0       -4.788693    1.056316   -1.249401
     61          7           0       -3.523523    1.479626   -1.406134
     62          1           0       -1.613383    0.752505   -1.253615
     63          6           0       -2.666215    0.493615   -1.149789
     64          7           0       -2.910160   -0.768806   -0.783241
     65          1           0       -8.015973    1.244288   -1.210710
     66          6           0       -6.975267    0.924731   -1.149433
     67          7           0       -6.584369   -0.281268   -0.817094
     68          6           0       -5.200053   -0.211472   -0.876535
     69          6           0       -6.017729    3.203671   -1.825912
     70          7           0       -5.940862    1.785669   -1.424218
 ---------------------------------------------------------------------

 SCF Done:  E(RwB97XD) =  -2048.74838706     A.U. after   15 cycles

 The electronic state is 1-A.
 Alpha  occ. eigenvalues --  -19.25418 -19.21627 -19.20778 -14.52617 -14.51903
 Alpha  occ. eigenvalues --  -14.49404 -14.48505 -14.48067 -14.47342 -14.47048
 Alpha  occ. eigenvalues --  -14.46871 -14.45522 -14.44831 -14.44739 -14.42547
 Alpha  occ. eigenvalues --  -14.42264 -14.41700 -14.40907 -14.40570 -14.40461
 Alpha  occ. eigenvalues --  -10.44976 -10.41494 -10.40342 -10.39735 -10.38479
 Alpha  occ. eigenvalues --  -10.38117 -10.37520 -10.37403 -10.36209 -10.35495
 Alpha  occ. eigenvalues --  -10.34836 -10.34529 -10.34061 -10.33929 -10.33380
 Alpha  occ. eigenvalues --  -10.33066 -10.33066 -10.33022 -10.31462 -10.30622
 Alpha  occ. eigenvalues --  -10.30317 -10.28598 -10.28237  -1.18945  -1.15408
 Alpha  occ. eigenvalues --   -1.13483  -1.12649  -1.11086  -1.10733  -1.09771
 Alpha  occ. eigenvalues --   -1.08848  -1.08716  -1.05220  -1.05051  -1.01988
 Alpha  occ. eigenvalues --   -1.01131  -1.00471  -0.99971  -0.98896  -0.97296
 Alpha  occ. eigenvalues --   -0.97131  -0.96371  -0.92761  -0.90617  -0.87906
 Alpha  occ. eigenvalues --   -0.86035  -0.84632  -0.83494  -0.83136  -0.82946
 Alpha  occ. eigenvalues --   -0.81849  -0.78452  -0.77313  -0.75165  -0.75044
 Alpha  occ. eigenvalues --   -0.73905  -0.72911  -0.72664  -0.70892  -0.70670
 Alpha  occ. eigenvalues --   -0.67708  -0.67107  -0.66133  -0.66084  -0.64663
 Alpha  occ. eigenvalues --   -0.64483  -0.63643  -0.62881  -0.62544  -0.62101
 Alpha  occ. eigenvalues --   -0.60794  -0.60544  -0.60238  -0.59585  -0.59174
 Alpha  occ. eigenvalues --   -0.59018  -0.58600  -0.57256  -0.56358  -0.55859
 Alpha  occ. eigenvalues --   -0.55680  -0.55561  -0.55325  -0.54683  -0.54315
 Alpha  occ. eigenvalues --   -0.53828  -0.53789  -0.53559  -0.53264  -0.53038
 Alpha  occ. eigenvalues --   -0.52584  -0.51928  -0.51328  -0.50533  -0.50414
 Alpha  occ. eigenvalues --   -0.50219  -0.49866  -0.49619  -0.49354  -0.49044
 Alpha  occ. eigenvalues --   -0.48669  -0.48374  -0.48258  -0.47860  -0.47314
 Alpha  occ. eigenvalues --   -0.46671  -0.45837  -0.45656  -0.44858  -0.42910
 Alpha  occ. eigenvalues --   -0.41123  -0.40924  -0.39156  -0.38162  -0.37846
 Alpha  occ. eigenvalues --   -0.37711  -0.37554  -0.36823  -0.35521  -0.35123
 Alpha  occ. eigenvalues --   -0.34718  -0.34249  -0.33391  -0.33223  -0.33183
 Alpha  occ. eigenvalues --   -0.32852  -0.32664  -0.32124  -0.31522  -0.30570
 Alpha  occ. eigenvalues --   -0.30370  -0.30262  -0.25962  -0.25652
 Alpha virt. eigenvalues --    0.02764   0.04256   0.06520   0.08124   0.08630
 Alpha virt. eigenvalues --    0.08933   0.09505   0.10323   0.11098   0.11919
 Alpha virt. eigenvalues --    0.13396   0.13736   0.14159   0.14801   0.14988

 Mulliken charges:
               1
     1  N   -0.304592
     2  C    0.183842
     3  C    0.053233
     4  N   -0.251506
     5  C    0.153618
     6  H    0.027944
     7  N   -0.296814
     8  C    0.127392
     9  H    0.009126
    10  N   -0.281662
    11  C    0.240371
    12  C    0.082216
    13  N   -0.065919
    14  H    0.117983
    15  H    0.085688
    16  H    0.022740
    17  H    0.028945
    18  H    0.021002
    19  N   -0.310230
    20  C    0.262032
    21  C    0.182319
    22  N   -0.123454
    23  H    0.119684
    24  H    0.119207
    25  N   -0.312130
    26  C    0.249757
    27  N   -0.144903
    28  H    0.120572
    29  C    0.195282
    30  O   -0.318024
    31  C   -0.019126
    32  N   -0.227499
    33  C    0.112989
    34  H    0.025805
    35  H    0.025004
    36  H    0.032106
    37  H    0.025963
    38  H    0.062912
    39  H    0.057223
    40  H    0.075513
    41  H    0.019980
    42  C   -0.121460
    43  O   -0.269292
    44  C    0.168079
    45  H    0.133082
    46  N   -0.123280
    47  O   -0.352290
    48  C    0.349443
    49  H    0.043566
    50  C    0.178040
    51  C    0.041908
    52  N   -0.277275
    53  H    0.034524
    54  H    0.042162
    55  H    0.029651
    56  H    0.123478
    57  H    0.117391
    58  N   -0.054597
    59  C    0.079381
    60  C    0.222376
    61  N   -0.260367
    62  H    0.033508
    63  C    0.166468
    64  N   -0.308253
    65  H    0.039940
    66  C    0.140174
    67  N   -0.258701
    68  C    0.026546
    69  C    0.179771
    70  N   -0.308563
 Sum of Mulliken charges =  -0.00000

 Dipole moment (field-independent basis, Debye):
    X=             -6.7764    Y=              7.7700    Z=             -1.1017  Tot=             10.3686
 Quadrupole moment (field-independent basis, Debye-Ang):
   XX=           -154.5005   YY=           -224.6250   ZZ=           -252.7264
   XY=             -0.3219   XZ=            -15.4353   YZ=              7.6151

 Normal termination of Gaussian 16 at Sun Jan 21 09:24:08 2018.
