 Gaussian 16, Revision A.03,
 Gaussian 16:  EM64L-G16RevA.03 25-Dec-2016

 ---------------------------------------
 #p wb97xd/cc-pvdz sp scf=(maxcycles=20)
 ---------------------------------------

 ------------------
 Base pair stacking
 ------------------
 Symbolic Z-matrix:
 Charge =  0 Multiplicity = 1

                         Standard orientation:
 ---------------------------------------------------------------------
 Center     Atomic      Atomic             Coordinates (Angstroms)
 Number     Number       Type             X           Y           Z
 ---------------------------------------------------------------------
      1          7           0        4.596780   -1.301596   -1.759675
      2          6           0        5.955848   -0.736720   -1.868556
      3          6           0        2.413304   -1.524697   -1.618295
      4          7           0        2.937487   -2.808817   -1.586672
      5          6           0        4.231962   -2.623008   -1.673112
      6          1           0        4.974012   -3.421938   -1.678291
      7          7           0        0.916952    0.298447   -1.618252
      8          6           0        1.993887    1.084071   -1.721100
      9          1           0        1.787724    2.152788   -1.761159
     10          7           0        3.281194    0.749325   -1.781599
     11          6           0        3.423968   -0.585145   -1.724721
     12          6           0        1.093949   -1.039731   -1.563240
     13          7           0        0.020163   -1.825610   -1.460573
     14          1           0        0.104015   -2.821742   -1.416758
     15          1           0       -0.904205   -1.445682   -1.423966
     16          1           0        6.397085   -1.083470   -2.696349
     17          1           0        5.900564    0.260278   -1.914111
     18          1           0        6.494686   -1.002792   -1.069270
     19          7           0        5.323571    1.526617    0.861610
     20          6           0        3.950935    1.547973    0.920462
     21          6           0        6.180336    2.672747    0.496851
     22          7           0        0.951982    3.265411    0.576344
     23          1           0       -0.023827    3.073229    0.676845
     24          1           0        1.205753    4.193293    0.301834
     25          7           0        3.160615    2.611019    0.657072
     26          6           0        1.879305    2.321908    0.799439
     27          7           0        1.406088    1.086858    1.171223
     28          1           0        0.409633    0.956526    1.255206
     29          6           0        2.200941   -0.021272    1.447155
     30          8           0        1.673324   -1.091311    1.774829
     31          6           0        3.579934    0.273892    1.298452
     32          7           0        4.697182   -0.531138    1.473392
     33          6           0        5.705886    0.252538    1.203992
     34          1           0        6.753303   -0.048942    1.239771
     35          1           0        6.719678    2.443522   -0.312700
     36          1           0        5.605917    3.466073    0.299562
     37          1           0        6.793848    2.887344    1.256039
     38          1           0       -4.657241    0.781603    0.869349
     39          1           0       -4.589704    0.984193    2.618367
     40          1           0       -3.343467    1.705004    1.599200
     41          1           0       -3.535759   -3.694113    2.232016
     42          6           0       -3.052206   -2.725974    2.101202
     43          8           0       -0.853176   -3.615391    2.119311
     44          6           0       -1.624110   -2.659413    2.038350
     45          1           0       -0.109571   -1.300048    1.822406
     46          7           0       -1.114913   -1.387378    1.871338
     47          8           0       -1.284740    0.862909    1.617249
     48          6           0       -1.826365   -0.218729    1.763446
     49          1           0       -4.861712   -1.600006    2.040657
     50          6           0       -3.773319   -1.603409    1.999018
     51          6           0       -3.999963    0.856556    1.722831
     52          7           0       -3.197836   -0.364967    1.833346
     53          1           0       -6.141466    3.884118   -1.555110
     54          1           0       -4.796292    3.819397   -0.634019
     55          1           0       -6.266601    3.660480    0.056651
     56          1           0       -3.452483   -3.031719   -1.477709
     57          1           0       -5.121982   -2.690874   -1.559480
     58          7           0       -4.187207   -2.354259   -1.440747
     59          6           0       -3.932829   -1.059274   -1.242029
     60          6           0       -4.509912    1.232992   -0.969585
     61          7           0       -3.244732    1.656449   -0.813334
     62          1           0       -1.344837    0.888750   -0.772794
     63          6           0       -2.396976    0.632528   -0.889474
     64          7           0       -2.649793   -0.665189   -1.088461
     65          1           0       -7.727694    1.458448   -1.186859
     66          6           0       -6.691993    1.119063   -1.153826
     67          7           0       -6.311128   -0.126805   -1.296706
     68          6           0       -4.929760   -0.068601   -1.182001
     69          6           0       -5.719746    3.456622   -0.755491
     70          7           0       -5.653706    1.995505   -0.952457
 ---------------------------------------------------------------------

 SCF Done:  E(RwB97XD) =  -2048.72339026     A.U. after   15 cycles

 The electronic state is 1-A.
 Alpha  occ. eigenvalues --  -19.25108 -19.21257 -19.20509 -14.53008 -14.51515
 Alpha  occ. eigenvalues --  -14.49062 -14.48812 -14.48609 -14.47128 -14.46600
 Alpha  occ. eigenvalues --  -14.46556 -14.45902 -14.44905 -14.44691 -14.43083
 Alpha  occ. eigenvalues --  -14.41807 -14.41360 -14.41259 -14.41220 -14.40764
 Alpha  occ. eigenvalues --  -10.44683 -10.41030 -10.40650 -10.39375 -10.38415
 Alpha  occ. eigenvalues --  -10.38141 -10.37724 -10.37032 -10.36357 -10.35946
 Alpha  occ. eigenvalues --  -10.34398 -10.34305 -10.33952 -10.33772 -10.33455
 Alpha  occ. eigenvalues --  -10.33316 -10.33251 -10.33192 -10.31234 -10.30866
 Alpha  occ. eigenvalues --  -10.30370 -10.28682 -10.28187  -1.18778  -1.15865
 Alpha  occ. eigenvalues --   -1.13175  -1.12294  -1.11246  -1.10754  -1.09994
 Alpha  occ. eigenvalues --   -1.08556  -1.08413  -1.05532  -1.05474  -1.01705
 Alpha  occ. eigenvalues --   -1.01478  -1.00973  -0.99642  -0.98521  -0.97584
 Alpha  occ. eigenvalues --   -0.96932  -0.96785  -0.93213  -0.90245  -0.88342
 Alpha  occ. eigenvalues --   -0.86393  -0.84363  -0.83969  -0.82780  -0.82567
 Alpha  occ. eigenvalues --   -0.82400  -0.78124  -0.77613  -0.75480  -0.74712
 Alpha  occ. eigenvalues --   -0.73608  -0.73157  -0.72619  -0.71388  -0.71028
 Alpha  occ. eigenvalues --   -0.67402  -0.67355  -0.66596  -0.65871  -0.64837
 Alpha  occ. eigenvalues --   -0.64326  -0.63503  -0.63065  -0.62557  -0.61826
 Alpha  occ. eigenvalues --   -0.61551  -0.61006  -0.60833  -0.60018  -0.58964
 Alpha  occ. eigenvalues --   -0.58734  -0.58321  -0.57629  -0.56874  -0.56122
 Alpha  occ. eigenvalues --   -0.55833  -0.55787  -0.55571  -0.54921  -0.54215
 Alpha  occ. eigenvalues --   -0.54190  -0.53967  -0.53402  -0.53101  -0.52899
 Alpha  occ. eigenvalues --   -0.51862  -0.51820  -0.51440  -0.50742  -0.50596
 Alpha  occ. eigenvalues --   -0.50166  -0.50008  -0.49592  -0.49208  -0.48974
 Alpha  occ. eigenvalues --   -0.48656  -0.48180  -0.48033  -0.47580  -0.47120
 Alpha  occ. eigenvalues --   -0.46996  -0.45605  -0.45390  -0.44906  -0.42334
 Alpha  occ. eigenvalues --   -0.41486  -0.41158  -0.38904  -0.38302  -0.38165
 Alpha  occ. eigenvalues --   -0.37974  -0.37205  -0.36729  -0.35437  -0.35177
 Alpha  occ. eigenvalues --   -0.34815  -0.34421  -0.33742  -0.33485  -0.32922
 Alpha  occ. eigenvalues --   -0.32528  -0.32389  -0.31854  -0.30914  -0.30842
 Alpha  occ. eigenvalues --   -0.30578  -0.30485  -0.26127  -0.25526
 Alpha virt. eigenvalues --    0.03063   0.04161   0.06122   0.07257   0.08823
 Alpha virt. eigenvalues --    0.09161   0.09699   0.10000   0.10893   0.12373
 Alpha virt. eigenvalues --    0.13058   0.13905   0.14309   0.14441   0.14531

 Mulliken charges:
               1
     1  N   -0.305074
     2  C    0.188512
     3  C    0.067261
     4  N   -0.259425
     5  C    0.148773
     6  H    0.028233
     7  N   -0.283201
     8  C    0.129217
     9  H    0.008465
    10  N   -0.269476
    11  C    0.238102
    12  C    0.075422
    13  N   -0.061171
    14  H    0.112334
    15  H    0.083010
    16  H    0.026034
    17  H    0.024503
    18  H    0.021812
    19  N   -0.300337
    20  C    0.267939
    21  C    0.184696
    22  N   -0.102934
    23  H    0.122977
    24  H    0.117835
    25  N   -0.279957
    26  C    0.165702
    27  N   -0.103587
    28  H    0.118605
    29  C    0.166336
    30  O   -0.320073
    31  C   -0.011283
    32  N   -0.218643
    33  C    0.092209
    34  H    0.025400
    35  H    0.019255
    36  H    0.032355
    37  H    0.024748
    38  H    0.057912
    39  H    0.046209
    40  H    0.080461
    41  H    0.023561
    42  C   -0.106955
    43  O   -0.267281
    44  C    0.174114
    45  H    0.131785
    46  N   -0.123218
    47  O   -0.344874
    48  C    0.334578
    49  H    0.044910
    50  C    0.161231
    51  C    0.056500
    52  N   -0.275458
    53  H    0.036286
    54  H    0.041098
    55  H    0.030193
    56  H    0.121296
    57  H    0.120196
    58  N   -0.059349
    59  C    0.097746
    60  C    0.191785
    61  N   -0.254839
    62  H    0.018106
    63  C    0.176896
    64  N   -0.306895
    65  H    0.039445
    66  C    0.130601
    67  N   -0.247883
    68  C    0.016422
    69  C    0.180554
    70  N   -0.299710
 Sum of Mulliken charges =  -0.00000

 Dipole moment (field-independent basis, Debye):
    X=             -6.8048    Y=              7.3444    Z=             -2.4030  Tot=             10.2966
 Quadrupole moment (field-independent basis, Debye-Ang):
   XX=           -153.5579   YY=           -228.6666   ZZ=           -254.9835
   XY=              1.0005   XZ=            -13.4897   YZ=             15.2104

 Normal termination of Gaussian 16 at Sun Jan 21 12:35:50 2018.
