 Gaussian 16, Revision A.03,
 Gaussian 16:  EM64L-G16RevA.03 25-Dec-2016

 ---------------------------------------
 #p wb97xd/cc-pvdz sp scf=(maxcycles=20)
 ---------------------------------------

 ------------------
 Base pair stacking
 ------------------
 Symbolic Z-matrix:
 Charge =  0 Multiplicity = 1

                         Standard orientation:
 ---------------------------------------------------------------------
 Center     Atomic      Atomic             Coordinates (Angstroms)
 Number     Number       Type             X           Y           Z
 ---------------------------------------------------------------------
      1          7           0        6.070342   -1.333195   -0.844046
      2          6           0        7.417353   -0.730403   -0.857913
      3          6           0        3.894492   -1.631230   -0.963165
      4          7           0        4.439758   -2.869949   -0.658199
      5          6           0        5.728805   -2.640808   -0.598640
      6          1           0        6.483246   -3.396340   -0.377429
      7          7           0        2.369493    0.100048   -1.453048
      8          6           0        3.431087    0.908790   -1.533877
      9          1           0        3.206966    1.948087   -1.770274
     10          7           0        4.721899    0.627777   -1.367304
     11          6           0        4.887296   -0.674136   -1.080805
     12          6           0        2.569120   -1.204260   -1.163181
     13          7           0        1.510678   -2.013137   -1.082072
     14          1           0        1.611451   -2.985792   -0.869925
     15          1           0        0.581402   -1.674654   -1.230505
     16          1           0        7.978022   -1.179896   -1.553464
     17          1           0        7.345084    0.244139   -1.068071
     18          1           0        7.845557   -0.845497    0.038404
     19          7           0        3.826937    1.908513    1.391876
     20          6           0        2.459991    1.877261    1.255732
     21          6           0        4.691213    3.060624    1.065715
     22          7           0       -0.510593    3.441065    0.365843
     23          1           0       -1.484339    3.216283    0.342586
     24          1           0       -0.248985    4.357093    0.060592
     25          7           0        1.682966    2.885683    0.804757
     26          6           0        0.404019    2.554621    0.787260
     27          7           0       -0.079080    1.330205    1.180877
     28          1           0       -1.072797    1.165062    1.133758
     29          6           0        0.702015    0.277918    1.648262
     30          8           0        0.166301   -0.787370    1.978266
     31          6           0        2.078319    0.618611    1.672757
     32          7           0        3.183409   -0.125356    2.062867
     33          6           0        4.195565    0.678467    1.879458
     34          1           0        5.235919    0.423731    2.084476
     35          1           0        5.347576    2.797648    0.359449
     36          1           0        4.126642    3.813767    0.730600
     37          1           0        5.182930    3.353084    1.885161
     38          1           0       -6.024592    0.754480    0.054923
     39          1           0       -6.214114    1.081863    1.775837
     40          1           0       -4.857845    1.780241    0.890317
     41          1           0       -4.971659   -3.564504    1.894554
     42          6           0       -4.504523   -2.588792    1.760379
     43          8           0       -2.304241   -3.383209    2.153823
     44          6           0       -3.084860   -2.467902    1.893730
     45          1           0       -1.597767   -1.065676    1.790746
     46          7           0       -2.596587   -1.190785    1.704547
     47          8           0       -2.797823    1.027203    1.260442
     48          6           0       -3.321084   -0.062949    1.410201
     49          1           0       -6.320717   -1.545512    1.361889
     50          6           0       -5.237979   -1.506894    1.473782
     51          6           0       -5.498734    0.916187    0.984110
     52          7           0       -4.683272   -0.260421    1.297751
     53          1           0       -4.712558    3.327060   -2.906747
     54          1           0       -3.507978    3.466226   -1.815083
     55          1           0       -5.056071    3.348569   -1.311451
     56          1           0       -1.895646   -3.364622   -1.373170
     57          1           0       -3.545070   -3.116917   -1.731123
     58          7           0       -2.644368   -2.723762   -1.543040
     59          6           0       -2.451343   -1.403387   -1.519990
     60          6           0       -3.115616    0.874768   -1.694572
     61          7           0       -1.895156    1.374490   -1.439254
     62          1           0       -0.001671    0.709613   -1.023017
     63          6           0       -1.020765    0.390786   -1.237588
     64          7           0       -1.212132   -0.932259   -1.260240
     65          1           0       -6.276025    0.917132   -2.374406
     66          6           0       -5.247243    0.634469   -2.149352
     67          7           0       -4.820402   -0.599872   -2.040370
     68          6           0       -3.470363   -0.461774   -1.752149
     69          6           0       -4.396459    3.047344   -2.000191
     70          7           0       -4.268561    1.577879   -1.952180
 ---------------------------------------------------------------------

 SCF Done:  E(RwB97XD) =  -2048.74568175     A.U. after   15 cycles

 The electronic state is 1-A.
 Alpha  occ. eigenvalues --  -19.25622 -19.21766 -19.20423 -14.52368 -14.52211
 Alpha  occ. eigenvalues --  -14.49193 -14.48273 -14.47838 -14.47601 -14.46562
 Alpha  occ. eigenvalues --  -14.46061 -14.45406 -14.44000 -14.43993 -14.42782
 Alpha  occ. eigenvalues --  -14.41739 -14.41721 -14.41498 -14.40663 -14.40584
 Alpha  occ. eigenvalues --  -10.45233 -10.40838 -10.39892 -10.39706 -10.37951
 Alpha  occ. eigenvalues --  -10.37935 -10.37529 -10.37043 -10.35884 -10.35454
 Alpha  occ. eigenvalues --  -10.35125 -10.34405 -10.34202 -10.33903 -10.33760
 Alpha  occ. eigenvalues --  -10.33538 -10.33025 -10.32439 -10.31504 -10.30805
 Alpha  occ. eigenvalues --  -10.30126 -10.28870 -10.27705  -1.19282  -1.15121
 Alpha  occ. eigenvalues --   -1.12951  -1.12794  -1.11738  -1.10246  -1.09150
 Alpha  occ. eigenvalues --   -1.08963  -1.08236  -1.05491  -1.04541  -1.02272
 Alpha  occ. eigenvalues --   -1.00954  -1.00905  -0.99297  -0.98273  -0.97381
 Alpha  occ. eigenvalues --   -0.96557  -0.96181  -0.93175  -0.90801  -0.87590
 Alpha  occ. eigenvalues --   -0.85990  -0.84377  -0.83686  -0.83547  -0.82761
 Alpha  occ. eigenvalues --   -0.81964  -0.78620  -0.76918  -0.74742  -0.74238
 Alpha  occ. eigenvalues --   -0.73356  -0.73303  -0.73120  -0.71514  -0.70299
 Alpha  occ. eigenvalues --   -0.67013  -0.66764  -0.66637  -0.66298  -0.64246
 Alpha  occ. eigenvalues --   -0.64143  -0.63435  -0.63180  -0.62478  -0.61375
 Alpha  occ. eigenvalues --   -0.61058  -0.60758  -0.60460  -0.59448  -0.59253
 Alpha  occ. eigenvalues --   -0.58571  -0.57931  -0.57157  -0.56967  -0.56270
 Alpha  occ. eigenvalues --   -0.55883  -0.55771  -0.55331  -0.54506  -0.54130
 Alpha  occ. eigenvalues --   -0.54069  -0.53406  -0.53277  -0.53051  -0.52564
 Alpha  occ. eigenvalues --   -0.52497  -0.52354  -0.52242  -0.51210  -0.50638
 Alpha  occ. eigenvalues --   -0.49809  -0.49737  -0.49229  -0.49160  -0.48640
 Alpha  occ. eigenvalues --   -0.48470  -0.48399  -0.48033  -0.47382  -0.47176
 Alpha  occ. eigenvalues --   -0.47120  -0.45500  -0.45153  -0.44488  -0.43551
 Alpha  occ. eigenvalues --   -0.41537  -0.40698  -0.39298  -0.37705  -0.37603
 Alpha  occ. eigenvalues --   -0.37517  -0.37023  -0.36979  -0.35909  -0.34481
 Alpha  occ. eigenvalues --   -0.34244  -0.33933  -0.33849  -0.33252  -0.32964
 Alpha  occ. eigenvalues --   -0.32435  -0.32196  -0.31827  -0.31628  -0.31266
 Alpha  occ. eigenvalues --   -0.30914  -0.29561  -0.26071  -0.24934
 Alpha virt. eigenvalues --    0.03256   0.04186   0.07191   0.07354   0.08472
 Alpha virt. eigenvalues --    0.09039   0.10003   0.10709   0.10915   0.11713
 Alpha virt. eigenvalues --    0.13132   0.13854   0.14195   0.14543   0.14916

 Mulliken charges:
               1
     1  N   -0.312234
     2  C    0.178794
     3  C    0.067864
     4  N   -0.257814
     5  C    0.133766
     6  H    0.027428
     7  N   -0.282822
     8  C    0.138820
     9  H    0.013414
    10  N   -0.285733
    11  C    0.230177
    12  C    0.100433
    13  N   -0.050400
    14  H    0.109661
    15  H    0.087152
    16  H    0.027711
    17  H    0.032352
    18  H    0.025427
    19  N   -0.286406
    20  C    0.228788
    21  C    0.180919
    22  N   -0.099150
    23  H    0.113200
    24  H    0.112636
    25  N   -0.298378
    26  C    0.211031
    27  N   -0.144367
    28  H    0.130054
    29  C    0.166150
    30  O   -0.323748
    31  C    0.004610
    32  N   -0.221863
    33  C    0.125327
    34  H    0.017021
    35  H    0.022630
    36  H    0.025752
    37  H    0.020696
    38  H    0.052364
    39  H    0.059922
    40  H    0.070646
    41  H    0.027325
    42  C   -0.114293
    43  O   -0.267663
    44  C    0.172541
    45  H    0.132276
    46  N   -0.123548
    47  O   -0.337404
    48  C    0.338423
    49  H    0.045910
    50  C    0.177516
    51  C    0.041733
    52  N   -0.280332
    53  H    0.035864
    54  H    0.036040
    55  H    0.022532
    56  H    0.124690
    57  H    0.118482
    58  N   -0.060483
    59  C    0.107695
    60  C    0.239379
    61  N   -0.276229
    62  H    0.046210
    63  C    0.147092
    64  N   -0.300816
    65  H    0.038488
    66  C    0.103587
    67  N   -0.251038
    68  C    0.018892
    69  C    0.181458
    70  N   -0.296163
 Sum of Mulliken charges =  -0.00000

 Dipole moment (field-independent basis, Debye):
    X=             -6.5066    Y=              6.2648    Z=             -3.6502  Tot=              9.7421
 Quadrupole moment (field-independent basis, Debye-Ang):
   XX=           -146.4932   YY=           -226.1281   ZZ=           -257.9541
   XY=             -9.2318   XZ=              4.6521   YZ=             10.1896

 Normal termination of Gaussian 16 at Sun Jan 21 05:39:06 2018.
