 Gaussian 16, Revision A.03,
 Gaussian 16:  EM64L-G16RevA.03 25-Dec-2016

 ---------------------------------------
 #p wb97xd/cc-pvdz sp scf=(maxcycles=20)
 ---------------------------------------

 ------------------
 Base pair stacking
 ------------------
 Symbolic Z-matrix:
 Charge =  0 Multiplicity = 1

                         Standard orientation:
 ---------------------------------------------------------------------
 Center     Atomic      Atomic             Coordinates (Angstroms)
 Number     Number       Type             X           Y           Z
 ---------------------------------------------------------------------
      1          7           0       -6.600401   -1.192382    0.491796
      2          6           0       -7.929744   -0.561124    0.380587
      3          6           0       -4.443180   -1.527405    0.759052
      4          7           0       -5.003106   -2.774360    0.521774
      5          6           0       -6.280348   -2.522619    0.370258
      6          1           0       -7.040980   -3.276776    0.166219
      7          7           0       -2.902671    0.203830    1.197939
      8          6           0       -3.945422    1.039459    1.153555
      9          1           0       -3.707476    2.089215    1.319832
     10          7           0       -5.231928    0.774274    0.935649
     11          6           0       -5.415399   -0.542493    0.743578
     12          6           0       -3.120188   -1.114841    1.000744
     13          7           0       -2.080564   -1.950554    1.044664
     14          1           0       -2.194995   -2.934655    0.904370
     15          1           0       -1.152390   -1.621658    1.219193
     16          1           0       -8.539890   -0.941045    1.075977
     17          1           0       -7.843602    0.425319    0.517117
     18          1           0       -8.310319   -0.738317   -0.527031
     19          7           0       -3.239098    1.911570   -1.514232
     20          6           0       -1.882249    1.859738   -1.303700
     21          6           0       -4.103207    3.074969   -1.230466
     22          7           0        1.057436    3.376335   -0.245437
     23          1           0        2.025095    3.137203   -0.170021
     24          1           0        0.792760    4.294909    0.049309
     25          7           0       -1.116600    2.854899   -0.806224
     26          6           0        0.154556    2.505040   -0.720361
     27          7           0        0.640746    1.275194   -1.092670
     28          1           0        1.627910    1.095310   -0.992053
     29          6           0       -0.128710    0.236299   -1.606957
     30          8           0        0.408820   -0.835459   -1.912141
     31          6           0       -1.496544    0.597244   -1.705093
     32          7           0       -2.589256   -0.128926   -2.158496
     33          6           0       -3.598209    0.688953   -2.026978
     34          1           0       -4.629358    0.450298   -2.289749
     35          1           0       -4.800984    2.818930   -0.562368
     36          1           0       -3.547019    3.818454   -0.861478
     37          1           0       -4.545062    3.377780   -2.074193
     38          1           0        6.506775    0.607957    0.353997
     39          1           0        6.794928    0.939156   -1.352435
     40          1           0        5.402440    1.653943   -0.539157
     41          1           0        5.493859   -3.687989   -1.560542
     42          6           0        5.034219   -2.706044   -1.447570
     43          8           0        2.847539   -3.466573   -1.964425
     44          6           0        3.625883   -2.563835   -1.657779
     45          1           0        2.155779   -1.140340   -1.629735
     46          7           0        3.146478   -1.280421   -1.489635
     47          8           0        3.355104    0.932641   -1.024868
     48          6           0        3.869985   -0.164488   -1.150861
     49          1           0        6.840753   -1.691079   -0.945512
     50          6           0        5.766429   -1.636144   -1.116259
     51          6           0        6.034956    0.780938   -0.601783
     52          7           0        5.220978   -0.382362   -0.965021
     53          1           0        4.170172    3.381430    2.797961
     54          1           0        3.032265    3.458923    1.631229
     55          1           0        4.602335    3.267459    1.228351
     56          1           0        1.267467   -3.348490    1.636892
     57          1           0        2.900383   -3.108995    2.068536
     58          7           0        2.022223   -2.712588    1.798534
     59          6           0        1.865664   -1.394406    1.660445
     60          6           0        2.579025    0.875346    1.692911
     61          7           0        1.388270    1.379544    1.329193
     62          1           0       -0.496007    0.724990    0.858371
     63          6           0        0.500818    0.402188    1.155687
     64          7           0        0.655674   -0.918654    1.293495
     65          1           0        5.696744    0.902975    2.548024
     66          6           0        4.674984    0.625738    2.287114
     67          7           0        4.222461   -0.603741    2.251360
     68          6           0        2.894666   -0.459714    1.875940
     69          6           0        3.897725    3.036914    1.899586
     70          7           0        3.733993    1.571479    1.960236
 ---------------------------------------------------------------------

 SCF Done:  E(RwB97XD) =  -2048.71488362     A.U. after   15 cycles

 The electronic state is 1-A.
 Alpha  occ. eigenvalues --  -19.25936 -19.21897 -19.20505 -14.52455 -14.51809
 Alpha  occ. eigenvalues --  -14.49536 -14.48360 -14.47873 -14.47336 -14.46361
 Alpha  occ. eigenvalues --  -14.45844 -14.44844 -14.43489 -14.42975 -14.42657
 Alpha  occ. eigenvalues --  -14.42139 -14.41926 -14.41869 -14.40869 -14.40621
 Alpha  occ. eigenvalues --  -10.45538 -10.40696 -10.40027 -10.39140 -10.37971
 Alpha  occ. eigenvalues --  -10.37685 -10.37433 -10.36449 -10.36206 -10.35651
 Alpha  occ. eigenvalues --  -10.35208 -10.34777 -10.34229 -10.34176 -10.34073
 Alpha  occ. eigenvalues --  -10.33937 -10.33058 -10.31686 -10.31663 -10.30978
 Alpha  occ. eigenvalues --  -10.29993 -10.29286 -10.27873  -1.19566  -1.14571
 Alpha  occ. eigenvalues --   -1.13137  -1.12945  -1.12117  -1.10363  -1.09342
 Alpha  occ. eigenvalues --   -1.08637  -1.08194  -1.05790  -1.04032  -1.02495
 Alpha  occ. eigenvalues --   -1.01270  -1.00457  -0.99367  -0.98398  -0.97704
 Alpha  occ. eigenvalues --   -0.96322  -0.95982  -0.93462  -0.91003  -0.87167
 Alpha  occ. eigenvalues --   -0.85714  -0.84727  -0.83908  -0.83737  -0.83057
 Alpha  occ. eigenvalues --   -0.81996  -0.78840  -0.76461  -0.74455  -0.74252
 Alpha  occ. eigenvalues --   -0.73663  -0.73412  -0.73328  -0.71907  -0.69909
 Alpha  occ. eigenvalues --   -0.67142  -0.67093  -0.66543  -0.66247  -0.64425
 Alpha  occ. eigenvalues --   -0.63861  -0.63552  -0.63437  -0.62723  -0.61423
 Alpha  occ. eigenvalues --   -0.61004  -0.60797  -0.60111  -0.59509  -0.59135
 Alpha  occ. eigenvalues --   -0.58776  -0.58081  -0.57521  -0.57177  -0.56644
 Alpha  occ. eigenvalues --   -0.56020  -0.55936  -0.55175  -0.54932  -0.54345
 Alpha  occ. eigenvalues --   -0.54191  -0.53391  -0.53074  -0.52722  -0.52578
 Alpha  occ. eigenvalues --   -0.52522  -0.52362  -0.52025  -0.51461  -0.50842
 Alpha  occ. eigenvalues --   -0.49892  -0.49825  -0.49394  -0.49068  -0.48611
 Alpha  occ. eigenvalues --   -0.48540  -0.48162  -0.47971  -0.47642  -0.47501
 Alpha  occ. eigenvalues --   -0.47249  -0.45749  -0.45402  -0.43946  -0.43434
 Alpha  occ. eigenvalues --   -0.41967  -0.40570  -0.39552  -0.38084  -0.37508
 Alpha  occ. eigenvalues --   -0.37234  -0.37102  -0.36441  -0.35608  -0.34458
 Alpha  occ. eigenvalues --   -0.34285  -0.34148  -0.33820  -0.33083  -0.32547
 Alpha  occ. eigenvalues --   -0.32507  -0.31892  -0.31871  -0.31722  -0.31626
 Alpha  occ. eigenvalues --   -0.31170  -0.28564  -0.26548  -0.25070
 Alpha virt. eigenvalues --    0.03176   0.04632   0.07209   0.07617   0.08660
 Alpha virt. eigenvalues --    0.09289   0.09897   0.10132   0.11029   0.11514
 Alpha virt. eigenvalues --    0.13103   0.13459   0.14292   0.14555   0.14837

 Mulliken charges:
               1
     1  N   -0.312521
     2  C    0.180018
     3  C    0.055480
     4  N   -0.258131
     5  C    0.133660
     6  H    0.028699
     7  N   -0.273623
     8  C    0.132077
     9  H    0.016458
    10  N   -0.290680
    11  C    0.229916
    12  C    0.104686
    13  N   -0.049233
    14  H    0.108006
    15  H    0.088126
    16  H    0.027778
    17  H    0.033180
    18  H    0.026781
    19  N   -0.291474
    20  C    0.239667
    21  C    0.172057
    22  N   -0.069870
    23  H    0.106028
    24  H    0.110221
    25  N   -0.290810
    26  C    0.195394
    27  N   -0.125172
    28  H    0.123301
    29  C    0.136605
    30  O   -0.321130
    31  C    0.025866
    32  N   -0.220295
    33  C    0.114623
    34  H    0.022716
    35  H    0.026434
    36  H    0.025962
    37  H    0.020519
    38  H    0.051340
    39  H    0.064341
    40  H    0.068757
    41  H    0.030445
    42  C   -0.112320
    43  O   -0.266086
    44  C    0.179020
    45  H    0.133839
    46  N   -0.131662
    47  O   -0.344897
    48  C    0.352593
    49  H    0.046709
    50  C    0.179615
    51  C    0.041212
    52  N   -0.285733
    53  H    0.036045
    54  H    0.024070
    55  H    0.021742
    56  H    0.121452
    57  H    0.118664
    58  N   -0.065517
    59  C    0.119046
    60  C    0.244648
    61  N   -0.296191
    62  H    0.035310
    63  C    0.186853
    64  N   -0.305834
    65  H    0.035047
    66  C    0.104967
    67  N   -0.250740
    68  C    0.000302
    69  C    0.179553
    70  N   -0.297907
 Sum of Mulliken charges =  -0.00000

 Dipole moment (field-independent basis, Debye):
    X=              6.1123    Y=              5.9612    Z=              3.8638  Tot=              9.3715
 Quadrupole moment (field-independent basis, Debye-Ang):
   XX=           -143.2091   YY=           -227.6475   ZZ=           -257.3096
   XY=             12.0284   XZ=             10.2723   YZ=            -10.6867

 Normal termination of Gaussian 16 at Sun Jan 21 11:36:11 2018.
