 Gaussian 16, Revision A.03,
 Gaussian 16:  EM64L-G16RevA.03 25-Dec-2016

 ---------------------------------------
 #p wb97xd/cc-pvdz sp scf=(maxcycles=20)
 ---------------------------------------

 ------------------
 Base pair stacking
 ------------------
 Symbolic Z-matrix:
 Charge =  0 Multiplicity = 1

                         Standard orientation:
 ---------------------------------------------------------------------
 Center     Atomic      Atomic             Coordinates (Angstroms)
 Number     Number       Type             X           Y           Z
 ---------------------------------------------------------------------
      1          7           0       -5.519521   -1.979540    0.783947
      2          6           0       -6.869258   -1.642501    1.276513
      3          6           0       -3.338885   -2.077243    0.514570
      4          7           0       -3.886153   -2.921130   -0.440975
      5          6           0       -5.178011   -2.828489   -0.240448
      6          1           0       -5.934637   -3.362468   -0.816044
      7          7           0       -1.809335   -0.862944    1.837040
      8          6           0       -2.872869   -0.376717    2.485159
      9          1           0       -2.647609    0.320671    3.290873
     10          7           0       -4.166806   -0.621448    2.288343
     11          6           0       -4.333372   -1.489780    1.277072
     12          6           0       -2.010222   -1.734422    0.824490
     13          7           0       -0.949843   -2.220894    0.176333
     14          1           0       -1.051438   -2.868579   -0.579577
     15          1           0       -0.018238   -1.954666    0.424086
     16          1           0       -7.327501   -2.473486    1.592206
     17          1           0       -6.796226   -0.994869    2.034382
     18          1           0       -7.402497   -1.229956    0.537964
     19          7           0       -4.393605    2.380298   -0.661116
     20          6           0       -3.019553    2.375728   -0.664139
     21          6           0       -5.242497    3.438264   -0.077348
     22          7           0       -0.004883    3.886184    0.167764
     23          1           0        0.970367    3.694238    0.061552
     24          1           0       -0.251882    4.734999    0.635966
     25          7           0       -2.220481    3.329298   -0.138545
     26          6           0       -0.940180    3.043797   -0.296461
     27          7           0       -0.475862    1.911613   -0.921024
     28          1           0        0.520519    1.775589   -0.996405
     29          6           0       -1.279801    0.917101   -1.469197
     30          8           0       -0.759794   -0.065873   -2.011490
     31          6           0       -2.657840    1.209817   -1.307261
     32          7           0       -3.782178    0.496766   -1.700092
     33          6           0       -4.785888    1.227559   -1.296703
     34          1           0       -5.836553    0.971520   -1.437522
     35          1           0       -5.819244    3.047633    0.639285
     36          1           0       -4.661554    4.150169    0.315042
     37          1           0       -5.819769    3.835755   -0.789791
     38          1           0        5.562747    1.375592   -0.478007
     39          1           0        5.571660    1.969268   -2.136955
     40          1           0        4.298376    2.476417   -1.026575
     41          1           0        4.412622   -2.644043   -2.858423
     42          6           0        3.942812   -1.717147   -2.529238
     43          8           0        1.729685   -2.517300   -2.827475
     44          6           0        2.514892   -1.626309   -2.504400
     45          1           0        1.019192   -0.308598   -2.040871
     46          7           0        2.023822   -0.410907   -2.072083
     47          8           0        2.226321    1.718391   -1.308986
     48          6           0        2.752582    0.682795   -1.676761
     49          1           0        5.769634   -0.685242   -2.150131
     50          6           0        4.680582   -0.667309   -2.149569
     51          6           0        4.942965    1.659587   -1.315437
     52          7           0        4.122701    0.517544   -1.728547
     53          1           0        5.314123    1.480507    4.376111
     54          1           0        3.980034    2.137388    3.704695
     55          1           0        5.455991    2.499770    3.109463
     56          1           0        2.499499   -3.135082   -0.707170
     57          1           0        4.173796   -2.998325   -0.410292
     58          7           0        3.246992   -2.660868   -0.241848
     59          6           0        3.019098   -1.624454    0.567522
     60          6           0        3.641756    0.129642    2.049816
     61          7           0        2.386717    0.561151    2.257407
     62          1           0        0.473693    0.107385    1.678559
     63          6           0        1.519341   -0.176158    1.566800
     64          7           0        1.745622   -1.214594    0.755615
     65          1           0        6.860063    0.054525    2.348249
     66          6           0        5.818805   -0.130732    2.082897
     67          7           0        5.413250   -1.078835    1.274010
     68          6           0        4.034788   -0.924927    1.244241
     69          6           0        4.894991    1.780285    3.519103
     70          7           0        4.799522    0.638565    2.588855
 ---------------------------------------------------------------------

 SCF Done:  E(RwB97XD) =  -2048.73570409     A.U. after   15 cycles

 The electronic state is 1-A.
 Alpha  occ. eigenvalues --  -19.25926 -19.22622 -19.20837 -14.52311 -14.52182
 Alpha  occ. eigenvalues --  -14.48992 -14.48346 -14.48004 -14.47360 -14.47137
 Alpha  occ. eigenvalues --  -14.46905 -14.45285 -14.43941 -14.43913 -14.42224
 Alpha  occ. eigenvalues --  -14.41781 -14.41139 -14.40795 -14.40631 -14.39975
 Alpha  occ. eigenvalues --  -10.45478 -10.41469 -10.40681 -10.39446 -10.38453
 Alpha  occ. eigenvalues --  -10.37758 -10.37286 -10.36863 -10.35405 -10.35125
 Alpha  occ. eigenvalues --  -10.35030 -10.34575 -10.33662 -10.33591 -10.33559
 Alpha  occ. eigenvalues --  -10.32939 -10.32801 -10.32394 -10.31241 -10.31069
 Alpha  occ. eigenvalues --  -10.30865 -10.28336 -10.28057  -1.19484  -1.14930
 Alpha  occ. eigenvalues --   -1.13743  -1.13419  -1.10877  -1.10804  -1.09321
 Alpha  occ. eigenvalues --   -1.08926  -1.08787  -1.04686  -1.04492  -1.02725
 Alpha  occ. eigenvalues --   -1.00731  -1.00042  -0.99968  -0.98762  -0.96809
 Alpha  occ. eigenvalues --   -0.96629  -0.96391  -0.92344  -0.91073  -0.87334
 Alpha  occ. eigenvalues --   -0.85641  -0.84331  -0.83625  -0.83579  -0.82698
 Alpha  occ. eigenvalues --   -0.81995  -0.78913  -0.76726  -0.74852  -0.74516
 Alpha  occ. eigenvalues --   -0.73868  -0.73543  -0.72515  -0.70688  -0.70108
 Alpha  occ. eigenvalues --   -0.67618  -0.66773  -0.66363  -0.65908  -0.64724
 Alpha  occ. eigenvalues --   -0.64125  -0.63725  -0.62845  -0.62332  -0.61992
 Alpha  occ. eigenvalues --   -0.60592  -0.60191  -0.60069  -0.59373  -0.59158
 Alpha  occ. eigenvalues --   -0.58985  -0.58598  -0.56836  -0.56237  -0.56140
 Alpha  occ. eigenvalues --   -0.56096  -0.55166  -0.54946  -0.54499  -0.54432
 Alpha  occ. eigenvalues --   -0.53881  -0.53690  -0.53390  -0.53255  -0.53181
 Alpha  occ. eigenvalues --   -0.52538  -0.52468  -0.51491  -0.50488  -0.50430
 Alpha  occ. eigenvalues --   -0.49971  -0.49703  -0.49614  -0.49489  -0.49157
 Alpha  occ. eigenvalues --   -0.48658  -0.48531  -0.47929  -0.47807  -0.47609
 Alpha  occ. eigenvalues --   -0.46619  -0.45993  -0.44837  -0.44550  -0.43250
 Alpha  occ. eigenvalues --   -0.40719  -0.40414  -0.39522  -0.37850  -0.37497
 Alpha  occ. eigenvalues --   -0.37462  -0.37160  -0.36746  -0.36313  -0.34465
 Alpha  occ. eigenvalues --   -0.34215  -0.33893  -0.33832  -0.33210  -0.33062
 Alpha  occ. eigenvalues --   -0.32817  -0.32564  -0.32453  -0.32067  -0.30541
 Alpha  occ. eigenvalues --   -0.30116  -0.28776  -0.25822  -0.25159
 Alpha virt. eigenvalues --    0.02844   0.04563   0.07496   0.07987   0.08196
 Alpha virt. eigenvalues --    0.09169   0.09547   0.10646   0.11380   0.12207
 Alpha virt. eigenvalues --    0.13110   0.13929   0.14375   0.14614   0.15259

 Mulliken charges:
               1
     1  N   -0.310918
     2  C    0.180381
     3  C    0.061527
     4  N   -0.251629
     5  C    0.135401
     6  H    0.024389
     7  N   -0.297525
     8  C    0.133879
     9  H    0.010009
    10  N   -0.291462
    11  C    0.238130
    12  C    0.095956
    13  N   -0.045992
    14  H    0.115365
    15  H    0.084640
    16  H    0.025548
    17  H    0.032058
    18  H    0.020267
    19  N   -0.309728
    20  C    0.257942
    21  C    0.181250
    22  N   -0.123352
    23  H    0.116882
    24  H    0.118825
    25  N   -0.311520
    26  C    0.248224
    27  N   -0.150711
    28  H    0.120479
    29  C    0.196939
    30  O   -0.324122
    31  C   -0.017875
    32  N   -0.220742
    33  C    0.127202
    34  H    0.020301
    35  H    0.029172
    36  H    0.029826
    37  H    0.024012
    38  H    0.058708
    39  H    0.060043
    40  H    0.073225
    41  H    0.023305
    42  C   -0.116083
    43  O   -0.277206
    44  C    0.149442
    45  H    0.130784
    46  N   -0.101943
    47  O   -0.345662
    48  C    0.336097
    49  H    0.045862
    50  C    0.177694
    51  C    0.041058
    52  N   -0.278229
    53  H    0.033686
    54  H    0.042169
    55  H    0.025594
    56  H    0.126084
    57  H    0.114765
    58  N   -0.041730
    59  C    0.077059
    60  C    0.242651
    61  N   -0.272440
    62  H    0.034341
    63  C    0.166801
    64  N   -0.303532
    65  H    0.035527
    66  C    0.125909
    67  N   -0.263071
    68  C    0.033816
    69  C    0.181324
    70  N   -0.309078
 Sum of Mulliken charges =  -0.00000

 Dipole moment (field-independent basis, Debye):
    X=              6.8836    Y=              6.7067    Z=              3.2017  Tot=             10.1299
 Quadrupole moment (field-independent basis, Debye-Ang):
   XX=           -149.5901   YY=           -223.8417   ZZ=           -253.8434
   XY=              5.1098   XZ=              1.3394   YZ=              3.2086

 Normal termination of Gaussian 16 at Sun Jan 21 14:57:39 2018.
