 Gaussian 16, Revision A.03,
 Gaussian 16:  EM64L-G16RevA.03 25-Dec-2016

 ---------------------------------------
 #p wb97xd/cc-pvdz sp scf=(maxcycles=20)
 ---------------------------------------

 ------------------
 Base pair stacking
 ------------------
 Symbolic Z-matrix:
 Charge =  0 Multiplicity = 1

                         Standard orientation:
 ---------------------------------------------------------------------
 Center     Atomic      Atomic             Coordinates (Angstroms)
 Number     Number       Type             X           Y           Z
 ---------------------------------------------------------------------
      1          7           0       -6.092345   -1.420416    0.800327
      2          6           0       -7.443766   -0.842636    0.933913
      3          6           0       -3.912522   -1.710899    0.836207
      4          7           0       -4.452714   -2.887645    0.338004
      5          6           0       -5.744356   -2.665534    0.336334
      6          1           0       -6.496205   -3.381933    0.003987
      7          7           0       -2.393706   -0.068665    1.583998
      8          6           0       -3.460317    0.704143    1.813569
      9          1           0       -3.240739    1.692197    2.215802
     10          7           0       -4.751371    0.440907    1.621761
     11          6           0       -4.910942   -0.797175    1.125670
     12          6           0       -2.587541   -1.308912    1.084716
     13          7           0       -1.524085   -2.081837    0.854879
     14          1           0       -1.620482   -3.006874    0.485798
     15          1           0       -0.595269   -1.762776    1.043688
     16          1           0       -7.989373   -1.407155    1.553434
     17          1           0       -7.375915    0.084297    1.301781
     18          1           0       -7.885607   -0.812090    0.037335
     19          7           0       -3.794154    2.071224   -1.360421
     20          6           0       -2.425979    2.030691   -1.239979
     21          6           0       -4.646658    3.229623   -1.025697
     22          7           0        0.565352    3.574931   -0.386168
     23          1           0        1.537724    3.343470   -0.373858
     24          1           0        0.313585    4.493077   -0.079011
     25          7           0       -1.636891    3.034217   -0.799162
     26          6           0       -0.360135    2.694349   -0.795989
     27          7           0        0.109963    1.466205   -1.193700
     28          1           0        1.102994    1.294264   -1.157816
     29          6           0       -0.683694    0.418825   -1.650816
     30          8           0       -0.159166   -0.650496   -1.985720
     31          6           0       -2.057812    0.768968   -1.659885
     32          7           0       -3.172425    0.032217   -2.036377
     33          6           0       -4.176827    0.843204   -1.842283
     34          1           0       -5.221215    0.595423   -2.035014
     35          1           0       -5.296656    2.971949   -0.311616
     36          1           0       -4.073104    3.979221   -0.697992
     37          1           0       -5.145758    3.524564   -1.839776
     38          1           0        6.063934    0.850719   -0.135558
     39          1           0        6.235882    1.174894   -1.858927
     40          1           0        4.894737    1.883590   -0.958672
     41          1           0        4.960168   -3.462920   -1.957851
     42          6           0        4.501342   -2.483860   -1.819462
     43          8           0        2.291262   -3.263513   -2.186625
     44          6           0        3.081110   -2.353335   -1.936613
     45          1           0        1.604986   -0.940763   -1.818172
     46          7           0        2.603847   -1.072669   -1.743326
     47          8           0        2.825454    1.144368   -1.304177
     48          6           0        3.339434    0.050467   -1.458672
     49          1           0        6.329146   -1.452699   -1.443132
     50          6           0        5.245480   -1.406737   -1.542604
     51          6           0        5.528537    1.015027   -1.058818
     52          7           0        4.701439   -0.156274   -1.361666
     53          1           0        4.684935    2.947892    3.448289
     54          1           0        3.461601    3.253279    2.412767
     55          1           0        5.002166    3.237222    1.873786
     56          1           0        1.897292   -3.426550    0.867371
     57          1           0        3.550299   -3.224067    1.237077
     58          7           0        2.643510   -2.814778    1.130147
     59          6           0        2.439527   -1.510988    1.329368
     60          6           0        3.088202    0.713636    1.869718
     61          7           0        1.859756    1.235749    1.718903
     62          1           0       -0.034867    0.628968    1.226114
     63          6           0        0.990133    0.289842    1.369740
     64          7           0        1.192489   -1.016540    1.169714
     65          1           0        6.258842    0.676340    2.500414
     66          6           0        5.228836    0.423967    2.246795
     67          7           0        4.810211   -0.779698    1.940826
     68          6           0        3.454589   -0.610106    1.699480
     69          6           0        4.356341    2.818990    2.512658
     70          7           0        4.239497    1.376543    2.223382
 ---------------------------------------------------------------------

 SCF Done:  E(RwB97XD) =  -2048.75386885     A.U. after   15 cycles

 The electronic state is 1-A.
 Alpha  occ. eigenvalues --  -19.25769 -19.21915 -19.20528 -14.52282 -14.52211
 Alpha  occ. eigenvalues --  -14.49027 -14.48509 -14.47699 -14.47513 -14.46759
 Alpha  occ. eigenvalues --  -14.46402 -14.45246 -14.43863 -14.43792 -14.42501
 Alpha  occ. eigenvalues --  -14.41857 -14.41559 -14.41307 -14.40705 -14.40492
 Alpha  occ. eigenvalues --  -10.45369 -10.41031 -10.40058 -10.39473 -10.38095
 Alpha  occ. eigenvalues --  -10.37773 -10.37628 -10.36865 -10.35671 -10.35369
 Alpha  occ. eigenvalues --  -10.35229 -10.34245 -10.34108 -10.33923 -10.33578
 Alpha  occ. eigenvalues --  -10.33380 -10.33167 -10.32271 -10.31355 -10.30887
 Alpha  occ. eigenvalues --  -10.30441 -10.28699 -10.27887  -1.19352  -1.14925
 Alpha  occ. eigenvalues --   -1.13065  -1.12951  -1.11566  -1.10392  -1.09184
 Alpha  occ. eigenvalues --   -1.08783  -1.08395  -1.05283  -1.04315  -1.02384
 Alpha  occ. eigenvalues --   -1.00722  -1.00688  -0.99523  -0.98389  -0.97195
 Alpha  occ. eigenvalues --   -0.96351  -0.96341  -0.92953  -0.90885  -0.87358
 Alpha  occ. eigenvalues --   -0.85744  -0.84202  -0.83862  -0.83600  -0.82589
 Alpha  occ. eigenvalues --   -0.82187  -0.78707  -0.76680  -0.74518  -0.74357
 Alpha  occ. eigenvalues --   -0.73474  -0.73236  -0.73141  -0.71314  -0.70045
 Alpha  occ. eigenvalues --   -0.67187  -0.66555  -0.66451  -0.66337  -0.64321
 Alpha  occ. eigenvalues --   -0.63882  -0.63578  -0.62969  -0.62535  -0.61557
 Alpha  occ. eigenvalues --   -0.60723  -0.60547  -0.60163  -0.59338  -0.59187
 Alpha  occ. eigenvalues --   -0.58699  -0.58144  -0.56900  -0.56801  -0.56257
 Alpha  occ. eigenvalues --   -0.55851  -0.55701  -0.55089  -0.54516  -0.54221
 Alpha  occ. eigenvalues --   -0.53785  -0.53454  -0.53170  -0.53015  -0.52735
 Alpha  occ. eigenvalues --   -0.52448  -0.52420  -0.52063  -0.51057  -0.50488
 Alpha  occ. eigenvalues --   -0.49975  -0.49665  -0.49345  -0.49022  -0.48856
 Alpha  occ. eigenvalues --   -0.48651  -0.48278  -0.48105  -0.47362  -0.47265
 Alpha  occ. eigenvalues --   -0.47204  -0.45557  -0.45099  -0.44363  -0.43718
 Alpha  occ. eigenvalues --   -0.41407  -0.40427  -0.39352  -0.37468  -0.37392
 Alpha  occ. eigenvalues --   -0.37269  -0.37125  -0.37065  -0.35946  -0.34456
 Alpha  occ. eigenvalues --   -0.34011  -0.33925  -0.33647  -0.33489  -0.33119
 Alpha  occ. eigenvalues --   -0.32543  -0.32238  -0.31878  -0.31752  -0.31175
 Alpha  occ. eigenvalues --   -0.30718  -0.29480  -0.25922  -0.25181
 Alpha virt. eigenvalues --    0.03149   0.04403   0.07373   0.07641   0.08493
 Alpha virt. eigenvalues --    0.09101   0.09914   0.10740   0.10923   0.11577
 Alpha virt. eigenvalues --    0.13127   0.14023   0.14468   0.14509   0.15040

 Mulliken charges:
               1
     1  N   -0.311866
     2  C    0.179555
     3  C    0.063708
     4  N   -0.256310
     5  C    0.132706
     6  H    0.026826
     7  N   -0.287497
     8  C    0.134898
     9  H    0.013306
    10  N   -0.289002
    11  C    0.231059
    12  C    0.102694
    13  N   -0.048196
    14  H    0.110855
    15  H    0.088330
    16  H    0.027185
    17  H    0.032392
    18  H    0.024074
    19  N   -0.299446
    20  C    0.249789
    21  C    0.180683
    22  N   -0.110357
    23  H    0.112820
    24  H    0.115242
    25  N   -0.305518
    26  C    0.228542
    27  N   -0.144292
    28  H    0.125408
    29  C    0.172955
    30  O   -0.324122
    31  C   -0.006106
    32  N   -0.222866
    33  C    0.128026
    34  H    0.019418
    35  H    0.027261
    36  H    0.026965
    37  H    0.021413
    38  H    0.053379
    39  H    0.060844
    40  H    0.071930
    41  H    0.026228
    42  C   -0.115750
    43  O   -0.270808
    44  C    0.167250
    45  H    0.133522
    46  N   -0.121488
    47  O   -0.341167
    48  C    0.340723
    49  H    0.046202
    50  C    0.181406
    51  C    0.040080
    52  N   -0.280576
    53  H    0.034575
    54  H    0.038544
    55  H    0.022793
    56  H    0.126346
    57  H    0.117548
    58  N   -0.055958
    59  C    0.103052
    60  C    0.246577
    61  N   -0.273700
    62  H    0.040374
    63  C    0.152874
    64  N   -0.301127
    65  H    0.036663
    66  C    0.112189
    67  N   -0.254306
    68  C    0.013350
    69  C    0.181155
    70  N   -0.303256
 Sum of Mulliken charges =  -0.00000

 Dipole moment (field-independent basis, Debye):
    X=              6.6611    Y=              6.3468    Z=              3.2212  Tot=              9.7482
 Quadrupole moment (field-independent basis, Debye-Ang):
   XX=           -146.3797   YY=           -224.5808   ZZ=           -257.0679
   XY=              8.4284   XZ=              5.8200   YZ=             -6.9625

 Normal termination of Gaussian 16 at Sun Jan 21 03:16:48 2018.
