 Gaussian 16, Revision A.03,
 Gaussian 16:  EM64L-G16RevA.03 25-Dec-2016

 ---------------------------------------
 #p wb97xd/cc-pvdz sp scf=(maxcycles=20)
 ---------------------------------------

 ------------------
 Base pair stacking
 ------------------
 Symbolic Z-matrix:
 Charge =  0 Multiplicity = 1

                         Standard orientation:
 ---------------------------------------------------------------------
 Center     Atomic      Atomic             Coordinates (Angstroms)
 Number     Number       Type             X           Y           Z
 ---------------------------------------------------------------------
      1          7           0       -5.192133   -1.825405    1.263408
      2          6           0       -6.542312   -1.377550    1.656395
      3          6           0       -3.012665   -1.971122    1.006483
      4          7           0       -3.555945   -3.057607    0.336321
      5          6           0       -4.847250   -2.926340    0.517926
      6          1           0       -5.601055   -3.610182    0.126669
      7          7           0       -1.489409   -0.414341    1.911490
      8          6           0       -2.554236    0.223922    2.407821
      9          1           0       -2.332100    1.123801    2.979784
     10          7           0       -3.846180   -0.081083    2.304195
     11          6           0       -4.008932   -1.202559    1.582936
     12          6           0       -1.686429   -1.539576    1.190313
     13          7           0       -0.624752   -2.178111    0.694030
     14          1           0       -0.723526   -3.014823    0.154235
     15          1           0        0.305029   -1.842092    0.844801
     16          1           0       -6.986059   -2.089824    2.200394
     17          1           0       -6.472094   -0.540665    2.198429
     18          1           0       -7.087541   -1.197618    0.837648
     19          7           0       -4.734481    2.036815   -0.875071
     20          6           0       -3.360833    2.057378   -0.902231
     21          6           0       -5.595682    3.141033   -0.406318
     22          7           0       -0.365180    3.711972   -0.310561
     23          1           0        0.612031    3.526811   -0.410665
     24          1           0       -0.622206    4.605920    0.057565
     25          7           0       -2.573392    3.081543   -0.508445
     26          6           0       -1.290127    2.802983   -0.654223
     27          7           0       -0.812477    1.613086   -1.147709
     28          1           0        0.185182    1.487515   -1.224260
     29          6           0       -1.604310    0.545497   -1.558957
     30          8           0       -1.072764   -0.485415   -1.989552
     31          6           0       -2.985358    0.829887   -1.408282
     32          7           0       -4.100833    0.054314   -1.693089
     33          6           0       -5.112896    0.809344   -1.361645
     34          1           0       -6.160155    0.518889   -1.452032
     35          1           0       -6.152999    2.828191    0.362010
     36          1           0       -5.023414    3.905348   -0.112039
     37          1           0       -6.192074    3.439810   -1.150536
     38          1           0        5.242048    1.245782   -0.752681
     39          1           0        5.212810    1.637105   -2.470431
     40          1           0        3.946921    2.249588   -1.405660
     41          1           0        4.137619   -3.050031   -2.616217
     42          6           0        3.654081   -2.099317   -2.391397
     43          8           0        1.453459   -2.970228   -2.552341
     44          6           0        2.225157   -2.032623   -2.351882
     45          1           0        0.710152   -0.696914   -2.021803
     46          7           0        1.716052   -0.783587   -2.058670
     47          8           0        1.886706    1.424999   -1.558435
     48          6           0        2.428298    0.362813   -1.809633
     49          1           0        5.465033   -0.995851   -2.170842
     50          6           0        4.375988   -0.998152   -2.152833
     51          6           0        4.603542    1.416185   -1.606697
     52          7           0        3.800546    0.217964   -1.865989
     53          1           0        5.621239    2.633075    3.595017
     54          1           0        4.272375    3.057368    2.781001
     55          1           0        5.737986    3.252395    2.089617
     56          1           0        2.829634   -3.266786    0.064572
     57          1           0        4.504261   -3.032651    0.290192
     58          7           0        3.574217   -2.671663    0.367159
     59          6           0        3.338472   -1.450754    0.851916
     60          6           0        3.948672    0.658802    1.767982
     61          7           0        2.689436    1.117413    1.859775
     62          1           0        0.778237    0.496600    1.456628
     63          6           0        1.826814    0.204733    1.417275
     64          7           0        2.060956   -1.018660    0.931378
     65          1           0        7.170112    0.707540    2.036521
     66          6           0        6.129389    0.442936    1.847250
     67          7           0        5.730523   -0.700260    1.345567
     68          6           0        4.349816   -0.576580    1.290019
     69          6           0        5.190714    2.672549    2.693305
     70          7           0        5.103605    1.312742    2.126436
 ---------------------------------------------------------------------

 SCF Done:  E(RwB97XD) =  -2048.74709364     A.U. after   15 cycles

 The electronic state is 1-A.
 Alpha  occ. eigenvalues --  -19.25657 -19.22206 -19.20686 -14.52454 -14.52205
 Alpha  occ. eigenvalues --  -14.48964 -14.48366 -14.47921 -14.47666 -14.46948
 Alpha  occ. eigenvalues --  -14.46751 -14.45477 -14.44283 -14.44238 -14.42120
 Alpha  occ. eigenvalues --  -14.42103 -14.41171 -14.40851 -14.40822 -14.40229
 Alpha  occ. eigenvalues --  -10.45233 -10.41335 -10.40167 -10.39840 -10.38325
 Alpha  occ. eigenvalues --  -10.37971 -10.37304 -10.37160 -10.35763 -10.35274
 Alpha  occ. eigenvalues --  -10.34961 -10.34516 -10.33876 -10.33629 -10.33620
 Alpha  occ. eigenvalues --  -10.33072 -10.32973 -10.32653 -10.31054 -10.30956
 Alpha  occ. eigenvalues --  -10.30894 -10.28279 -10.28213  -1.19233  -1.15200
 Alpha  occ. eigenvalues --   -1.13290  -1.13144  -1.10932  -1.10741  -1.09339
 Alpha  occ. eigenvalues --   -1.09038  -1.08648  -1.04897  -1.04748  -1.02362
 Alpha  occ. eigenvalues --   -1.00959  -1.00260  -0.99826  -0.98653  -0.96867
 Alpha  occ. eigenvalues --   -0.96763  -0.96536  -0.92575  -0.90848  -0.87599
 Alpha  occ. eigenvalues --   -0.85875  -0.84279  -0.83666  -0.83438  -0.82651
 Alpha  occ. eigenvalues --   -0.82096  -0.78683  -0.77000  -0.74794  -0.74763
 Alpha  occ. eigenvalues --   -0.73731  -0.73218  -0.72667  -0.70843  -0.70351
 Alpha  occ. eigenvalues --   -0.67505  -0.66801  -0.66326  -0.66067  -0.64513
 Alpha  occ. eigenvalues --   -0.64197  -0.63763  -0.62721  -0.62506  -0.61897
 Alpha  occ. eigenvalues --   -0.60734  -0.60432  -0.60259  -0.59381  -0.59254
 Alpha  occ. eigenvalues --   -0.58967  -0.58464  -0.56881  -0.56385  -0.56069
 Alpha  occ. eigenvalues --   -0.55909  -0.55393  -0.55144  -0.54307  -0.53959
 Alpha  occ. eigenvalues --   -0.53744  -0.53701  -0.53577  -0.53448  -0.53080
 Alpha  occ. eigenvalues --   -0.52754  -0.52282  -0.51582  -0.50548  -0.50287
 Alpha  occ. eigenvalues --   -0.50143  -0.49807  -0.49441  -0.49007  -0.48947
 Alpha  occ. eigenvalues --   -0.48751  -0.48526  -0.48434  -0.47805  -0.47393
 Alpha  occ. eigenvalues --   -0.46742  -0.45950  -0.45316  -0.44591  -0.43015
 Alpha  occ. eigenvalues --   -0.40881  -0.40680  -0.39287  -0.37958  -0.37545
 Alpha  occ. eigenvalues --   -0.37411  -0.37357  -0.36882  -0.36081  -0.34599
 Alpha  occ. eigenvalues --   -0.34305  -0.34032  -0.33364  -0.33235  -0.33113
 Alpha  occ. eigenvalues --   -0.32812  -0.32581  -0.32312  -0.31975  -0.30670
 Alpha  occ. eigenvalues --   -0.30298  -0.29216  -0.25811  -0.25355
 Alpha virt. eigenvalues --    0.03060   0.04081   0.07062   0.08060   0.08704
 Alpha virt. eigenvalues --    0.09114   0.09610   0.10457   0.11186   0.12230
 Alpha virt. eigenvalues --    0.12881   0.13772   0.14466   0.14530   0.14979

 Mulliken charges:
               1
     1  N   -0.308663
     2  C    0.179809
     3  C    0.060925
     4  N   -0.253837
     5  C    0.141530
     6  H    0.025417
     7  N   -0.295465
     8  C    0.133814
     9  H    0.010304
    10  N   -0.288308
    11  C    0.241016
    12  C    0.089258
    13  N   -0.049068
    14  H    0.115074
    15  H    0.083659
    16  H    0.025756
    17  H    0.031025
    18  H    0.020263
    19  N   -0.307519
    20  C    0.261387
    21  C    0.182424
    22  N   -0.123600
    23  H    0.118320
    24  H    0.118345
    25  N   -0.311646
    26  C    0.248807
    27  N   -0.146032
    28  H    0.118428
    29  C    0.190322
    30  O   -0.322036
    31  C   -0.016928
    32  N   -0.221426
    33  C    0.118617
    34  H    0.020469
    35  H    0.027228
    36  H    0.030288
    37  H    0.023742
    38  H    0.058611
    39  H    0.060108
    40  H    0.074561
    41  H    0.021390
    42  C   -0.103338
    43  O   -0.271091
    44  C    0.158844
    45  H    0.129846
    46  N   -0.109873
    47  O   -0.346164
    48  C    0.338031
    49  H    0.045051
    50  C    0.166322
    51  C    0.042129
    52  N   -0.276318
    53  H    0.034433
    54  H    0.041367
    55  H    0.026190
    56  H    0.125883
    57  H    0.114418
    58  N   -0.047235
    59  C    0.080379
    60  C    0.230205
    61  N   -0.268300
    62  H    0.031561
    63  C    0.165947
    64  N   -0.305999
    65  H    0.036177
    66  C    0.123716
    67  N   -0.256965
    68  C    0.029586
    69  C    0.181938
    70  N   -0.303109
 Sum of Mulliken charges =  -0.00000

 Dipole moment (field-independent basis, Debye):
    X=              6.7821    Y=              7.0072    Z=              2.4969  Tot=             10.0664
 Quadrupole moment (field-independent basis, Debye-Ang):
   XX=           -150.7774   YY=           -222.9606   ZZ=           -256.2253
   XY=              5.0467   XZ=             -4.5975   YZ=             -3.3597

 Normal termination of Gaussian 16 at Sun Jan 21 07:02:56 2018.
