 Gaussian 16, Revision A.03,
 Gaussian 16:  EM64L-G16RevA.03 25-Dec-2016

 ---------------------------------------
 #p wb97xd/cc-pvdz sp scf=(maxcycles=20)
 ---------------------------------------

 ------------------
 Base pair stacking
 ------------------
 Symbolic Z-matrix:
 Charge =  0 Multiplicity = 1

                         Standard orientation:
 ---------------------------------------------------------------------
 Center     Atomic      Atomic             Coordinates (Angstroms)
 Number     Number       Type             X           Y           Z
 ---------------------------------------------------------------------
      1          7           0       -5.815588   -1.647937    0.874706
      2          6           0       -7.170798   -1.152817    1.184980
      3          6           0       -3.630973   -1.872813    0.755601
      4          7           0       -4.169787   -2.934032    0.042709
      5          6           0       -5.464368   -2.756083    0.143003
      6          1           0       -6.216196   -3.408927   -0.301409
      7          7           0       -2.112602   -0.379525    1.769316
      8          6           0       -3.182851    0.294613    2.202541
      9          1           0       -2.964883    1.181923    2.795366
     10          7           0       -4.475852    0.038451    2.014298
     11          6           0       -4.633190   -1.071529    1.274290
     12          6           0       -2.304265   -1.491998    1.027178
     13          7           0       -1.237177   -2.166286    0.593808
     14          1           0       -1.331852   -2.995251    0.041466
     15          1           0       -0.307224   -1.865996    0.806335
     16          1           0       -7.674172   -1.851616    1.693380
     17          1           0       -7.104717   -0.322626    1.737743
     18          1           0       -7.655659   -0.947479    0.334840
     19          7           0       -4.088240    2.225447   -1.115407
     20          6           0       -2.715834    2.195174   -1.055001
     21          6           0       -4.936583    3.357830   -0.692662
     22          7           0        0.294526    3.733557   -0.259499
     23          1           0        1.268693    3.512895   -0.298905
     24          1           0        0.047440    4.634037    0.099390
     25          7           0       -1.918153    3.186834   -0.602930
     26          6           0       -0.639268    2.861772   -0.669279
     27          7           0       -0.174995    1.658173   -1.141858
     28          1           0        0.820244    1.496146   -1.155923
     29          6           0       -0.977530    0.623392   -1.611997
     30          8           0       -0.457699   -0.423741   -2.016997
     31          6           0       -2.354033    0.957882   -1.546947
     32          7           0       -3.476707    0.226109   -1.908912
     33          6           0       -4.479527    1.016037   -1.635849
     34          1           0       -5.528814    0.765254   -1.795205
     35          1           0       -5.552917    3.060940    0.035901
     36          1           0       -4.356658    4.098456   -0.355872
     37          1           0       -5.472874    3.683332   -1.470635
     38          1           0        5.824411    1.063801   -0.365922
     39          1           0        5.919293    1.467019   -2.078542
     40          1           0        4.611279    2.119192   -1.091059
     41          1           0        4.684606   -3.175937   -2.333675
     42          6           0        4.222848   -2.209391   -2.131687
     43          8           0        2.006569   -2.996945   -2.439889
     44          6           0        2.797722   -2.089949   -2.182520
     45          1           0        1.314688   -0.701074   -1.937684
     46          7           0        2.317037   -0.824792   -1.911281
     47          8           0        2.536201    1.372661   -1.381774
     48          6           0        3.053449    0.292744   -1.607374
     49          1           0        6.055230   -1.175365   -1.786725
     50          6           0        4.967906   -1.137350   -1.838007
     51          6           0        5.248423    1.263299   -1.257264
     52          7           0        4.420263    0.097416   -1.577640
     53          1           0        4.982884    2.390871    3.928319
     54          1           0        3.705212    2.870196    3.033946
     55          1           0        5.218138    3.015128    2.438891
     56          1           0        2.208152   -3.378379    0.175693
     57          1           0        3.872410   -3.208030    0.509377
     58          7           0        2.953194   -2.813261    0.530243
     59          6           0        2.731871   -1.587601    1.009753
     60          6           0        3.359203    0.491890    1.981308
     61          7           0        2.114318    0.996326    1.996886
     62          1           0        0.211306    0.449524    1.467587
     63          6           0        1.248858    0.119175    1.492413
     64          7           0        1.468571   -1.108892    1.011632
     65          1           0        6.556535    0.419260    2.454558
     66          6           0        5.521030    0.194703    2.197175
     67          7           0        5.113400   -0.929633    1.661088
     68          6           0        3.744519   -0.754424    1.518965
     69          6           0        4.612553    2.452113    3.001440
     70          7           0        4.512068    1.100173    2.418226
 ---------------------------------------------------------------------

 SCF Done:  E(RwB97XD) =  -2048.75084157     A.U. after   15 cycles

 The electronic state is 1-A.
 Alpha  occ. eigenvalues --  -19.25841 -19.22103 -19.20670 -14.52275 -14.52231
 Alpha  occ. eigenvalues --  -14.48749 -14.48682 -14.47762 -14.47423 -14.46971
 Alpha  occ. eigenvalues --  -14.46682 -14.45300 -14.43919 -14.43870 -14.42130
 Alpha  occ. eigenvalues --  -14.42034 -14.41175 -14.40940 -14.40914 -14.40207
 Alpha  occ. eigenvalues --  -10.45406 -10.41265 -10.40264 -10.39473 -10.38281
 Alpha  occ. eigenvalues --  -10.37812 -10.37587 -10.36895 -10.35406 -10.35328
 Alpha  occ. eigenvalues --  -10.35151 -10.34344 -10.33900 -10.33791 -10.33367
 Alpha  occ. eigenvalues --  -10.33238 -10.33066 -10.32368 -10.31119 -10.30965
 Alpha  occ. eigenvalues --  -10.30788 -10.28356 -10.28115  -1.19391  -1.14961
 Alpha  occ. eigenvalues --   -1.13235  -1.13184  -1.11211  -1.10591  -1.09216
 Alpha  occ. eigenvalues --   -1.08848  -1.08594  -1.04959  -1.04364  -1.02477
 Alpha  occ. eigenvalues --   -1.00721  -1.00352  -0.99763  -0.98569  -0.96863
 Alpha  occ. eigenvalues --   -0.96579  -0.96384  -0.92624  -0.90935  -0.87358
 Alpha  occ. eigenvalues --   -0.85696  -0.84103  -0.83878  -0.83576  -0.82458
 Alpha  occ. eigenvalues --   -0.82284  -0.78755  -0.76695  -0.74652  -0.74451
 Alpha  occ. eigenvalues --   -0.73668  -0.73329  -0.72814  -0.70979  -0.70048
 Alpha  occ. eigenvalues --   -0.67404  -0.66462  -0.66412  -0.66216  -0.64442
 Alpha  occ. eigenvalues --   -0.63896  -0.63719  -0.62676  -0.62634  -0.61782
 Alpha  occ. eigenvalues --   -0.60623  -0.60308  -0.60108  -0.59343  -0.59159
 Alpha  occ. eigenvalues --   -0.58850  -0.58386  -0.56737  -0.56513  -0.56281
 Alpha  occ. eigenvalues --   -0.55957  -0.55400  -0.55017  -0.54491  -0.54296
 Alpha  occ. eigenvalues --   -0.53682  -0.53596  -0.53271  -0.53194  -0.52961
 Alpha  occ. eigenvalues --   -0.52503  -0.52423  -0.51776  -0.50756  -0.50214
 Alpha  occ. eigenvalues --   -0.50182  -0.49656  -0.49463  -0.49146  -0.48874
 Alpha  occ. eigenvalues --   -0.48784  -0.48408  -0.48042  -0.47563  -0.47414
 Alpha  occ. eigenvalues --   -0.46896  -0.45800  -0.44827  -0.44448  -0.43616
 Alpha  occ. eigenvalues --   -0.41032  -0.40420  -0.39411  -0.37536  -0.37314
 Alpha  occ. eigenvalues --   -0.37286  -0.37179  -0.37063  -0.36162  -0.34460
 Alpha  occ. eigenvalues --   -0.34137  -0.33957  -0.33390  -0.33342  -0.33272
 Alpha  occ. eigenvalues --   -0.32656  -0.32410  -0.32109  -0.31920  -0.30842
 Alpha  occ. eigenvalues --   -0.30402  -0.29316  -0.25642  -0.25385
 Alpha virt. eigenvalues --    0.03100   0.04342   0.07393   0.07916   0.08357
 Alpha virt. eigenvalues --    0.09136   0.09757   0.10643   0.11162   0.12022
 Alpha virt. eigenvalues --    0.13116   0.14116   0.14409   0.14581   0.15141

 Mulliken charges:
               1
     1  N   -0.311539
     2  C    0.179759
     3  C    0.064258
     4  N   -0.254158
     5  C    0.133236
     6  H    0.025580
     7  N   -0.293897
     8  C    0.134969
     9  H    0.011526
    10  N   -0.291168
    11  C    0.235034
    12  C    0.099541
    13  N   -0.047395
    14  H    0.112809
    15  H    0.086684
    16  H    0.026463
    17  H    0.032093
    18  H    0.022091
    19  N   -0.306096
    20  C    0.256219
    21  C    0.181161
    22  N   -0.119799
    23  H    0.115367
    24  H    0.117530
    25  N   -0.309686
    26  C    0.241917
    27  N   -0.147833
    28  H    0.122492
    29  C    0.187691
    30  O   -0.324549
    31  C   -0.015847
    32  N   -0.221744
    33  C    0.128747
    34  H    0.019404
    35  H    0.029576
    36  H    0.028673
    37  H    0.022604
    38  H    0.056304
    39  H    0.060493
    40  H    0.072824
    41  H    0.023487
    42  C   -0.114008
    43  O   -0.274838
    44  C    0.156598
    45  H    0.132595
    46  N   -0.111116
    47  O   -0.342595
    48  C    0.336122
    49  H    0.046624
    50  C    0.180504
    51  C    0.039899
    52  N   -0.278988
    53  H    0.034022
    54  H    0.040764
    55  H    0.024316
    56  H    0.127608
    57  H    0.116678
    58  N   -0.050199
    59  C    0.086594
    60  C    0.244047
    61  N   -0.271574
    62  H    0.036365
    63  C    0.159170
    64  N   -0.300695
    65  H    0.035925
    66  C    0.119536
    67  N   -0.259287
    68  C    0.026759
    69  C    0.181596
    70  N   -0.307246
 Sum of Mulliken charges =  -0.00000

 Dipole moment (field-independent basis, Debye):
    X=              6.8511    Y=              6.5996    Z=              2.9801  Tot=              9.9686
 Quadrupole moment (field-independent basis, Debye-Ang):
   XX=           -147.8367   YY=           -223.4218   ZZ=           -256.2560
   XY=              6.5001   XZ=              3.6116   YZ=             -2.7042

 Normal termination of Gaussian 16 at Sun Jan 21 05:27:00 2018.
