 Gaussian 16, Revision A.03,
 Gaussian 16:  EM64L-G16RevA.03 25-Dec-2016

 ---------------------------------------
 #p wb97xd/cc-pvdz sp scf=(maxcycles=20)
 ---------------------------------------

 ------------------
 Base pair stacking
 ------------------
 Symbolic Z-matrix:
 Charge =  0 Multiplicity = 1

                         Standard orientation:
 ---------------------------------------------------------------------
 Center     Atomic      Atomic             Coordinates (Angstroms)
 Number     Number       Type             X           Y           Z
 ---------------------------------------------------------------------
      1          7           0       -6.415972   -1.497511    0.381772
      2          6           0       -7.771787   -1.026818    0.725602
      3          6           0       -4.234024   -1.764162    0.308818
      4          7           0       -4.765065   -2.656986   -0.610742
      5          6           0       -6.058357   -2.460607   -0.529979
      6          1           0       -6.804618   -2.995703   -1.117963
      7          7           0       -2.728022   -0.533444    1.643059
      8          6           0       -3.800553    0.081322    2.152309
      9          1           0       -3.588638    0.835661    2.908829
     10          7           0       -5.089492   -0.095003    1.868676
     11          6           0       -5.239463   -1.042544    0.928415
     12          6           0       -2.912238   -1.481957    0.698887
     13          7           0       -1.842858   -2.096747    0.189352
     14          1           0       -1.932087   -2.805155   -0.511651
     15          1           0       -0.916566   -1.870304    0.490771
     16          1           0       -8.313369   -1.791987    1.074014
     17          1           0       -7.711119   -0.316383    1.426123
     18          1           0       -8.213449   -0.651964   -0.089512
     19          7           0       -3.400635    2.561149   -1.136852
     20          6           0       -2.034673    2.465583   -1.022459
     21          6           0       -4.212612    3.723521   -0.724199
     22          7           0        1.008199    3.845801   -0.075034
     23          1           0        1.972003    3.580643   -0.080286
     24          1           0        0.788306    4.749702    0.292846
     25          7           0       -1.211403    3.409887   -0.517937
     26          6           0        0.052848    3.026752   -0.540182
     27          7           0        0.480249    1.812183   -1.019428
     28          1           0        1.466753    1.604117   -0.997274
     29          6           0       -0.349112    0.825389   -1.543126
     30          8           0        0.138166   -0.236836   -1.949312
     31          6           0       -1.710311    1.222534   -1.525858
     32          7           0       -2.849697    0.551217   -1.947789
     33          6           0       -3.825495    1.381701   -1.698127
     34          1           0       -4.877808    1.183388   -1.904473
     35          1           0       -4.871143    3.441651   -0.027273
     36          1           0       -3.613513    4.429538   -0.348852
     37          1           0       -4.701213    4.088809   -1.515812
     38          1           0        6.409383    0.923037   -0.017902
     39          1           0        6.592465    1.354599   -1.716396
     40          1           0        5.276587    2.047877   -0.768137
     41          1           0        5.157279   -3.219721   -2.119422
     42          6           0        4.732555   -2.236751   -1.915442
     43          8           0        2.496863   -2.913696   -2.328420
     44          6           0        3.317674   -2.049868   -2.020459
     45          1           0        1.891231   -0.598203   -1.805364
     46          7           0        2.884942   -0.769131   -1.741685
     47          8           0        3.183003    1.404963   -1.157148
     48          6           0        3.658889    0.306637   -1.384930
     49          1           0        6.594884   -1.296425   -1.475774
     50          6           0        5.513448   -1.206636   -1.569529
     51          6           0        5.879996    1.166528   -0.927030
     52          7           0        5.012933    0.047099   -1.304926
     53          1           0        4.326756    1.564971    4.560100
     54          1           0        3.101613    2.241785    3.721628
     55          1           0        4.642484    2.447718    3.224258
     56          1           0        1.588602   -3.316505   -0.312197
     57          1           0        3.239866   -3.263046    0.112750
     58          7           0        2.330044   -2.850643    0.170901
     59          6           0        2.116108   -1.729271    0.862224
     60          6           0        2.747682    0.112691    2.229712
     61          7           0        1.515387    0.643903    2.290376
     62          1           0       -0.374372    0.264551    1.593572
     63          6           0        0.653107   -0.096758    1.596981
     64          7           0        0.865431   -1.220204    0.903900
     65          1           0        5.918239   -0.146118    2.806549
     66          6           0        4.890278   -0.286564    2.471107
     67          7           0        4.480916   -1.278337    1.718457
     68          6           0        3.124158   -1.037259    1.557833
     69          6           0        3.999561    1.809022    3.647205
     70          7           0        3.893772    0.592927    2.817793
 ---------------------------------------------------------------------

 SCF Done:  E(RwB97XD) =  -2048.73759851     A.U. after   15 cycles

 The electronic state is 1-A.
 Alpha  occ. eigenvalues --  -19.26170 -19.22239 -19.20869 -14.52700 -14.51509
 Alpha  occ. eigenvalues --  -14.48850 -14.48828 -14.48169 -14.47171 -14.46910
 Alpha  occ. eigenvalues --  -14.45946 -14.44605 -14.42993 -14.42835 -14.42204
 Alpha  occ. eigenvalues --  -14.41953 -14.41388 -14.40947 -14.40917 -14.40125
 Alpha  occ. eigenvalues --  -10.45798 -10.41435 -10.40619 -10.38439 -10.38395
 Alpha  occ. eigenvalues --  -10.38102 -10.37085 -10.36056 -10.35568 -10.35297
 Alpha  occ. eigenvalues --  -10.34600 -10.34478 -10.34070 -10.33401 -10.33341
 Alpha  occ. eigenvalues --  -10.33253 -10.33069 -10.31450 -10.31231 -10.31139
 Alpha  occ. eigenvalues --  -10.30852 -10.28466 -10.28247  -1.19742  -1.14193
 Alpha  occ. eigenvalues --   -1.13711  -1.13407  -1.11371  -1.10715  -1.09595
 Alpha  occ. eigenvalues --   -1.08780  -1.07819  -1.04931  -1.03372  -1.02907
 Alpha  occ. eigenvalues --   -1.00315  -0.99975  -0.99935  -0.98719  -0.96945
 Alpha  occ. eigenvalues --   -0.96675  -0.95443  -0.92566  -0.91302  -0.86574
 Alpha  occ. eigenvalues --   -0.84996  -0.84219  -0.83970  -0.83958  -0.82553
 Alpha  occ. eigenvalues --   -0.82345  -0.79178  -0.75833  -0.74768  -0.73877
 Alpha  occ. eigenvalues --   -0.73709  -0.73584  -0.72848  -0.71013  -0.69200
 Alpha  occ. eigenvalues --   -0.67578  -0.66877  -0.66238  -0.65559  -0.64742
 Alpha  occ. eigenvalues --   -0.63960  -0.63031  -0.62853  -0.62596  -0.61922
 Alpha  occ. eigenvalues --   -0.60300  -0.60155  -0.59756  -0.59307  -0.58665
 Alpha  occ. eigenvalues --   -0.58581  -0.58407  -0.56713  -0.56499  -0.56449
 Alpha  occ. eigenvalues --   -0.56247  -0.55280  -0.54822  -0.54706  -0.54320
 Alpha  occ. eigenvalues --   -0.53849  -0.53622  -0.53108  -0.52767  -0.52689
 Alpha  occ. eigenvalues --   -0.52512  -0.51794  -0.51739  -0.50829  -0.50378
 Alpha  occ. eigenvalues --   -0.50199  -0.49791  -0.49697  -0.49193  -0.49147
 Alpha  occ. eigenvalues --   -0.48527  -0.48487  -0.47839  -0.47692  -0.47387
 Alpha  occ. eigenvalues --   -0.46939  -0.45593  -0.45014  -0.44272  -0.43017
 Alpha  occ. eigenvalues --   -0.41133  -0.39724  -0.39640  -0.37435  -0.37388
 Alpha  occ. eigenvalues --   -0.37132  -0.36747  -0.36410  -0.35918  -0.34381
 Alpha  occ. eigenvalues --   -0.33807  -0.33770  -0.33437  -0.33395  -0.32993
 Alpha  occ. eigenvalues --   -0.32840  -0.32449  -0.32313  -0.32007  -0.30934
 Alpha  occ. eigenvalues --   -0.30344  -0.28337  -0.25762  -0.25498
 Alpha virt. eigenvalues --    0.02590   0.05247   0.07690   0.08062   0.08705
 Alpha virt. eigenvalues --    0.08904   0.09602   0.10925   0.11079   0.12083
 Alpha virt. eigenvalues --    0.13144   0.13957   0.14584   0.14633   0.15691

 Mulliken charges:
               1
     1  N   -0.311233
     2  C    0.180522
     3  C    0.050512
     4  N   -0.253842
     5  C    0.128980
     6  H    0.025665
     7  N   -0.290950
     8  C    0.132206
     9  H    0.012260
    10  N   -0.291600
    11  C    0.230399
    12  C    0.105227
    13  N   -0.043669
    14  H    0.111428
    15  H    0.093010
    16  H    0.026479
    17  H    0.033825
    18  H    0.022775
    19  N   -0.310296
    20  C    0.256011
    21  C    0.180118
    22  N   -0.121695
    23  H    0.113878
    24  H    0.118208
    25  N   -0.310040
    26  C    0.246784
    27  N   -0.145419
    28  H    0.118113
    29  C    0.181692
    30  O   -0.325258
    31  C   -0.007798
    32  N   -0.224682
    33  C    0.131734
    34  H    0.025261
    35  H    0.032278
    36  H    0.028555
    37  H    0.023419
    38  H    0.055417
    39  H    0.061724
    40  H    0.073141
    41  H    0.028779
    42  C   -0.108464
    43  O   -0.288296
    44  C    0.136853
    45  H    0.138664
    46  N   -0.114447
    47  O   -0.346803
    48  C    0.351405
    49  H    0.048187
    50  C    0.196467
    51  C    0.041895
    52  N   -0.283788
    53  H    0.032208
    54  H    0.041539
    55  H    0.021994
    56  H    0.131014
    57  H    0.112875
    58  N   -0.029665
    59  C    0.094060
    60  C    0.249267
    61  N   -0.276797
    62  H    0.034127
    63  C    0.165125
    64  N   -0.303002
    65  H    0.030616
    66  C    0.123335
    67  N   -0.258847
    68  C   -0.001855
    69  C    0.180649
    70  N   -0.310235
 Sum of Mulliken charges =  -0.00000

 Dipole moment (field-independent basis, Debye):
    X=              7.1196    Y=              6.3364    Z=              2.7988  Tot=              9.9333
 Quadrupole moment (field-independent basis, Debye-Ang):
   XX=           -144.2467   YY=           -224.3948   ZZ=           -253.0815
   XY=              5.6853   XZ=             11.0040   YZ=              0.8702

 Normal termination of Gaussian 16 at Sun Jan 21 15:34:15 2018.
