 Gaussian 16, Revision A.03,
 Gaussian 16:  EM64L-G16RevA.03 25-Dec-2016

 ---------------------------------------
 #p wb97xd/cc-pvdz sp scf=(maxcycles=20)
 ---------------------------------------

 ------------------
 Base pair stacking
 ------------------
 Symbolic Z-matrix:
 Charge =  0 Multiplicity = 1

                         Standard orientation:
 ---------------------------------------------------------------------
 Center     Atomic      Atomic             Coordinates (Angstroms)
 Number     Number       Type             X           Y           Z
 ---------------------------------------------------------------------
      1          7           0       -6.943017   -1.217660    0.199834
      2          6           0       -8.290919   -0.645136    0.382536
      3          6           0       -4.773181   -1.566645    0.285403
      4          7           0       -5.302488   -2.598499   -0.476069
      5          6           0       -6.588551   -2.346941   -0.497146
      6          1           0       -7.331453   -2.957879   -1.010750
      7          7           0       -3.273744   -0.157790    1.438560
      8          6           0       -4.339708    0.577782    1.770560
      9          1           0       -4.127988    1.453717    2.382260
     10          7           0       -5.621918    0.394651    1.461835
     11          6           0       -5.772270   -0.707645    0.709007
     12          6           0       -3.458162   -1.260632    0.680398
     13          7           0       -2.395327   -1.996184    0.347952
     14          1           0       -2.484971   -2.820703   -0.211823
     15          1           0       -1.473760   -1.748296    0.646940
     16          1           0       -8.878563   -1.312136    0.840750
     17          1           0       -8.229682    0.182238    0.940057
     18          1           0       -8.681709   -0.416097   -0.508990
     19          7           0       -2.794654    2.405113   -1.489777
     20          6           0       -1.438872    2.292626   -1.296785
     21          6           0       -3.593904    3.622217   -1.243644
     22          7           0        1.590996    3.699527   -0.346902
     23          1           0        2.546417    3.414442   -0.275266
     24          1           0        1.378109    4.642048   -0.087957
     25          7           0       -0.615660    3.267214   -0.853450
     26          6           0        0.637400    2.856512   -0.771018
     27          7           0        1.054444    1.588787   -1.097306
     28          1           0        2.032752    1.362872   -1.003320
     29          6           0        0.224930    0.570048   -1.555506
     30          8           0        0.702356   -0.539747   -1.822242
     31          6           0       -1.124311    0.996248   -1.649273
     32          7           0       -2.259760    0.308702   -2.055387
     33          6           0       -3.223679    1.182068   -1.944465
     34          1           0       -4.269803    0.985802   -2.181898
     35          1           0       -4.292584    3.430614   -0.555213
     36          1           0       -2.994727    4.351034   -0.914877
     37          1           0       -4.033773    3.911567   -2.093110
     38          1           0        6.902316    0.682829    0.291916
     39          1           0        7.178544    0.926822   -1.431107
     40          1           0        5.837728    1.745648   -0.629189
     41          1           0        5.641509   -3.632129   -1.422156
     42          6           0        5.234128   -2.624026   -1.344721
     43          8           0        3.003474   -3.292401   -1.796979
     44          6           0        3.831510   -2.418697   -1.540508
     45          1           0        2.436063   -0.921724   -1.552247
     46          7           0        3.420577   -1.106450   -1.420563
     47          8           0        3.748715    1.110572   -1.054021
     48          6           0        4.205196   -0.015856   -1.140346
     49          1           0        7.097831   -1.682881   -0.912661
     50          6           0        6.024988   -1.580124   -1.070103
     51          6           0        6.424081    0.839477   -0.663499
     52          7           0        5.546326   -0.294748   -0.964838
     53          1           0        3.734895    2.214255    4.255417
     54          1           0        2.575779    2.761643    3.246003
     55          1           0        4.143507    2.818014    2.795306
     56          1           0        0.999422   -3.403587    0.252597
     57          1           0        2.632174   -3.326603    0.740763
     58          7           0        1.738994   -2.880225    0.675994
     59          6           0        1.543905   -1.642012    1.134186
     60          6           0        2.194951    0.402493    2.162702
     61          7           0        0.984795    0.976845    2.062340
     62          1           0       -0.888413    0.536763    1.356628
     63          6           0        0.121794    0.148158    1.478031
     64          7           0        0.315259   -1.092365    1.018425
     65          1           0        5.324700    0.150449    2.932975
     66          6           0        4.306702   -0.016017    2.579555
     67          7           0        3.887668   -1.117605    2.006311
     68          6           0        2.550260   -0.865567    1.736932
     69          6           0        3.456934    2.292607    3.298028
     70          7           0        3.334650    0.946152    2.706317
 ---------------------------------------------------------------------

 SCF Done:  E(RwB97XD) =  -2048.74772441     A.U. after   15 cycles

 The electronic state is 1-A.
 Alpha  occ. eigenvalues --  -19.26104 -19.22356 -19.20782 -14.52573 -14.51176
 Alpha  occ. eigenvalues --  -14.49235 -14.48756 -14.48091 -14.47077 -14.46982
 Alpha  occ. eigenvalues --  -14.45816 -14.44230 -14.42587 -14.42439 -14.42265
 Alpha  occ. eigenvalues --  -14.42184 -14.41878 -14.41315 -14.40863 -14.40480
 Alpha  occ. eigenvalues --  -10.45691 -10.41410 -10.40407 -10.38401 -10.38016
 Alpha  occ. eigenvalues --  -10.37848 -10.36796 -10.35698 -10.35663 -10.35654
 Alpha  occ. eigenvalues --  -10.34527 -10.34460 -10.34151 -10.33813 -10.33460
 Alpha  occ. eigenvalues --  -10.33295 -10.33086 -10.31379 -10.31125 -10.31084
 Alpha  occ. eigenvalues --  -10.30722 -10.28963 -10.28229  -1.19635  -1.13836
 Alpha  occ. eigenvalues --   -1.13420  -1.13368  -1.11815  -1.10654  -1.09479
 Alpha  occ. eigenvalues --   -1.08754  -1.07392  -1.05322  -1.02948  -1.02736
 Alpha  occ. eigenvalues --   -1.00709  -0.99990  -0.99582  -0.98666  -0.97353
 Alpha  occ. eigenvalues --   -0.96596  -0.95014  -0.92942  -0.91131  -0.86241
 Alpha  occ. eigenvalues --   -0.84710  -0.84364  -0.84166  -0.83927  -0.82719
 Alpha  occ. eigenvalues --   -0.82467  -0.79012  -0.75456  -0.74704  -0.73840
 Alpha  occ. eigenvalues --   -0.73564  -0.73252  -0.73181  -0.71427  -0.68809
 Alpha  occ. eigenvalues --   -0.67546  -0.66724  -0.66635  -0.65156  -0.64621
 Alpha  occ. eigenvalues --   -0.63876  -0.63068  -0.62801  -0.62575  -0.61898
 Alpha  occ. eigenvalues --   -0.60479  -0.59963  -0.59659  -0.58998  -0.58640
 Alpha  occ. eigenvalues --   -0.58508  -0.58083  -0.56869  -0.56789  -0.56571
 Alpha  occ. eigenvalues --   -0.56175  -0.55605  -0.54571  -0.54467  -0.54050
 Alpha  occ. eigenvalues --   -0.53766  -0.53561  -0.53028  -0.52739  -0.52548
 Alpha  occ. eigenvalues --   -0.52224  -0.52051  -0.51411  -0.51188  -0.50537
 Alpha  occ. eigenvalues --   -0.50307  -0.49661  -0.49414  -0.49101  -0.48918
 Alpha  occ. eigenvalues --   -0.48427  -0.48342  -0.47786  -0.47721  -0.47472
 Alpha  occ. eigenvalues --   -0.47319  -0.45421  -0.45237  -0.44143  -0.43072
 Alpha  occ. eigenvalues --   -0.41563  -0.39660  -0.39324  -0.37560  -0.37409
 Alpha  occ. eigenvalues --   -0.37318  -0.36672  -0.36089  -0.35650  -0.34561
 Alpha  occ. eigenvalues --   -0.33939  -0.33894  -0.33538  -0.33044  -0.32838
 Alpha  occ. eigenvalues --   -0.32509  -0.32388  -0.32153  -0.31956  -0.31370
 Alpha  occ. eigenvalues --   -0.30686  -0.28083  -0.26146  -0.25551
 Alpha virt. eigenvalues --    0.02936   0.05337   0.07623   0.08266   0.08606
 Alpha virt. eigenvalues --    0.09196   0.09613   0.10579   0.10995   0.12092
 Alpha virt. eigenvalues --    0.12806   0.13664   0.14495   0.14594   0.16081

 Mulliken charges:
               1
     1  N   -0.310687
     2  C    0.180637
     3  C    0.035717
     4  N   -0.255657
     5  C    0.130829
     6  H    0.027467
     7  N   -0.285717
     8  C    0.128927
     9  H    0.014120
    10  N   -0.290224
    11  C    0.231833
    12  C    0.110278
    13  N   -0.042969
    14  H    0.108767
    15  H    0.089285
    16  H    0.027047
    17  H    0.035016
    18  H    0.024769
    19  N   -0.308260
    20  C    0.248907
    21  C    0.180237
    22  N   -0.121954
    23  H    0.112126
    24  H    0.117830
    25  N   -0.306058
    26  C    0.244948
    27  N   -0.132432
    28  H    0.117308
    29  C    0.163308
    30  O   -0.323255
    31  C   -0.002044
    32  N   -0.224964
    33  C    0.128724
    34  H    0.029016
    35  H    0.032992
    36  H    0.027788
    37  H    0.023358
    38  H    0.055527
    39  H    0.062535
    40  H    0.072354
    41  H    0.029619
    42  C   -0.097558
    43  O   -0.282019
    44  C    0.161292
    45  H    0.138634
    46  N   -0.128030
    47  O   -0.351960
    48  C    0.357236
    49  H    0.047507
    50  C    0.182267
    51  C    0.040253
    52  N   -0.289704
    53  H    0.031605
    54  H    0.040678
    55  H    0.019511
    56  H    0.122498
    57  H    0.117401
    58  N   -0.033676
    59  C    0.102322
    60  C    0.242082
    61  N   -0.271064
    62  H    0.039865
    63  C    0.157587
    64  N   -0.301083
    65  H    0.026738
    66  C    0.124061
    67  N   -0.259826
    68  C    0.006910
    69  C    0.179590
    70  N   -0.310167
 Sum of Mulliken charges =  -0.00000

 Dipole moment (field-independent basis, Debye):
    X=              6.8581    Y=              6.1236    Z=              2.5426  Tot=              9.5392
 Quadrupole moment (field-independent basis, Debye-Ang):
   XX=           -140.8564   YY=           -224.8644   ZZ=           -252.3454
   XY=              9.1638   XZ=             16.3424   YZ=             -2.7198

 Normal termination of Gaussian 16 at Sun Jan 21 12:47:13 2018.
