 Gaussian 16, Revision A.03,
 Gaussian 16:  EM64L-G16RevA.03 25-Dec-2016

 ---------------------------------------
 #p wb97xd/cc-pvdz sp scf=(maxcycles=20)
 ---------------------------------------

 ------------------
 Base pair stacking
 ------------------
 Symbolic Z-matrix:
 Charge =  0 Multiplicity = 1

                         Standard orientation:
 ---------------------------------------------------------------------
 Center     Atomic      Atomic             Coordinates (Angstroms)
 Number     Number       Type             X           Y           Z
 ---------------------------------------------------------------------
      1          7           0       -5.823494   -1.734045    0.772694
      2          6           0       -7.178329   -1.288894    1.152522
      3          6           0       -3.638934   -1.930046    0.609629
      4          7           0       -4.178789   -2.897705   -0.225199
      5          6           0       -5.473300   -2.740893   -0.093537
      6          1           0       -6.225793   -3.337829   -0.609637
      7          7           0       -2.119048   -0.565424    1.788911
      8          6           0       -3.188732    0.043716    2.310721
      9          1           0       -2.969909    0.851875    3.007334
     10          7           0       -4.482068   -0.194427    2.102223
     11          6           0       -4.640462   -1.204951    1.231487
     12          6           0       -2.311769   -1.578341    0.916013
     13          7           0       -1.245238   -2.187638    0.394059
     14          1           0       -1.340715   -2.942230   -0.256095
     15          1           0       -0.314944   -1.910762    0.634956
     16          1           0       -7.674152   -2.048193    1.574195
     17          1           0       -7.111462   -0.533306    1.803460
     18          1           0       -7.671285   -0.982467    0.338212
     19          7           0       -4.075028    2.348835   -0.986130
     20          6           0       -2.702301    2.313889   -0.936720
     21          6           0       -4.918190    3.464701   -0.512196
     22          7           0        0.316534    3.814068   -0.101375
     23          1           0        1.289979    3.593555   -0.156520
     24          1           0        0.073724    4.699802    0.295162
     25          7           0       -1.899550    3.285245   -0.450817
     26          6           0       -0.621792    2.961001   -0.539239
     27          7           0       -0.163178    1.776619   -1.063099
     28          1           0        0.831633    1.613645   -1.090708
     29          6           0       -0.970985    0.762912   -1.568746
     30          8           0       -0.456038   -0.267962   -2.019178
     31          6           0       -2.346348    1.096777   -1.480550
     32          7           0       -3.472946    0.382014   -1.863679
     33          6           0       -4.472305    1.161974   -1.551979
     34          1           0       -5.523157    0.919533   -1.713847
     35          1           0       -5.529980    3.139772    0.208181
     36          1           0       -4.334493    4.190229   -0.150034
     37          1           0       -5.459297    3.822110   -1.272638
     38          1           0        5.840376    1.141625   -0.354220
     39          1           0        5.924012    1.613212   -2.049875
     40          1           0        4.624219    2.227313   -1.027728
     41          1           0        4.678586   -3.013677   -2.482667
     42          6           0        4.220123   -2.055266   -2.238724
     43          8           0        2.000221   -2.826140   -2.562617
     44          6           0        2.794910   -1.931533   -2.274609
     45          1           0        1.316323   -0.551179   -1.963640
     46          7           0        2.318595   -0.677512   -1.949340
     47          8           0        2.545710    1.496503   -1.333503
     48          6           0        3.059280    0.425682   -1.605989
     49          1           0        6.056875   -1.038980   -1.865480
     50          6           0        4.969299   -0.997145   -1.907487
     51          6           0        5.258524    1.377746   -1.232719
     52          7           0        4.425883    0.227064   -1.593814
     53          1           0        4.981399    1.955966    4.219653
     54          1           0        3.694020    2.535258    3.401621
     55          1           0        5.201212    2.761429    2.817392
     56          1           0        2.202039   -3.319003   -0.197962
     57          1           0        3.868233   -3.181930    0.141322
     58          7           0        2.947409   -2.798008    0.218136
     59          6           0        2.724425   -1.642548    0.847698
     60          6           0        3.350234    0.303935    2.064806
     61          7           0        2.103199    0.795487    2.152522
     62          1           0        0.198361    0.307776    1.574298
     63          6           0        1.237607   -0.017217    1.549873
     64          7           0        1.458977   -1.174924    0.918768
     65          1           0        6.551740    0.191279    2.500511
     66          6           0        5.515162   -0.005489    2.225322
     67          7           0        5.108266   -1.056962    1.557090
     68          6           0        3.737437   -0.873223    1.448439
     69          6           0        4.603003    2.129582    3.310440
     70          7           0        4.503900    0.859850    2.564822
 ---------------------------------------------------------------------

 SCF Done:  E(RwB97XD) =  -2048.74597047     A.U. after   15 cycles

 The electronic state is 1-A.
 Alpha  occ. eigenvalues --  -19.25938 -19.22208 -19.20752 -14.52343 -14.52138
 Alpha  occ. eigenvalues --  -14.48838 -14.48590 -14.47860 -14.47170 -14.47063
 Alpha  occ. eigenvalues --  -14.46792 -14.45226 -14.43820 -14.43770 -14.42121
 Alpha  occ. eigenvalues --  -14.41977 -14.41073 -14.40979 -14.40815 -14.40099
 Alpha  occ. eigenvalues --  -10.45503 -10.41358 -10.40456 -10.39341 -10.38362
 Alpha  occ. eigenvalues --  -10.37729 -10.37636 -10.36802 -10.35317 -10.35206
 Alpha  occ. eigenvalues --  -10.35203 -10.34432 -10.33804 -10.33689 -10.33433
 Alpha  occ. eigenvalues --  -10.33135 -10.32963 -10.32278 -10.31053 -10.31040
 Alpha  occ. eigenvalues --  -10.30888 -10.28253 -10.28199  -1.19482  -1.14869
 Alpha  occ. eigenvalues --   -1.13398  -1.13317  -1.11115  -1.10675  -1.09299
 Alpha  occ. eigenvalues --   -1.08747  -1.08685  -1.04847  -1.04274  -1.02599
 Alpha  occ. eigenvalues --   -1.00633  -1.00226  -0.99866  -0.98653  -0.96762
 Alpha  occ. eigenvalues --   -0.96662  -0.96295  -0.92506  -0.91032  -0.87264
 Alpha  occ. eigenvalues --   -0.85599  -0.84189  -0.83785  -0.83643  -0.82548
 Alpha  occ. eigenvalues --   -0.82189  -0.78859  -0.76598  -0.74728  -0.74369
 Alpha  occ. eigenvalues --   -0.73761  -0.73444  -0.72709  -0.70873  -0.69955
 Alpha  occ. eigenvalues --   -0.67497  -0.66559  -0.66326  -0.66105  -0.64547
 Alpha  occ. eigenvalues --   -0.63907  -0.63703  -0.62755  -0.62523  -0.61870
 Alpha  occ. eigenvalues --   -0.60557  -0.60201  -0.60010  -0.59409  -0.59063
 Alpha  occ. eigenvalues --   -0.58894  -0.58487  -0.56736  -0.56409  -0.56275
 Alpha  occ. eigenvalues --   -0.56055  -0.55277  -0.54934  -0.54613  -0.54394
 Alpha  occ. eigenvalues --   -0.53763  -0.53611  -0.53229  -0.53134  -0.53055
 Alpha  occ. eigenvalues --   -0.52500  -0.52411  -0.51680  -0.50668  -0.50287
 Alpha  occ. eigenvalues --   -0.50111  -0.49587  -0.49564  -0.49393  -0.48991
 Alpha  occ. eigenvalues --   -0.48682  -0.48491  -0.47898  -0.47648  -0.47509
 Alpha  occ. eigenvalues --   -0.46800  -0.45843  -0.44762  -0.44274  -0.43646
 Alpha  occ. eigenvalues --   -0.40929  -0.40330  -0.39500  -0.37464  -0.37382
 Alpha  occ. eigenvalues --   -0.37360  -0.37068  -0.36954  -0.36225  -0.34429
 Alpha  occ. eigenvalues --   -0.34171  -0.33877  -0.33519  -0.33267  -0.33236
 Alpha  occ. eigenvalues --   -0.32690  -0.32475  -0.32206  -0.31991  -0.30739
 Alpha  occ. eigenvalues --   -0.30288  -0.29182  -0.25641  -0.25366
 Alpha virt. eigenvalues --    0.02952   0.04514   0.07427   0.08037   0.08283
 Alpha virt. eigenvalues --    0.09104   0.09673   0.10676   0.11243   0.12113
 Alpha virt. eigenvalues --    0.13165   0.14091   0.14494   0.14537   0.15177

 Mulliken charges:
               1
     1  N   -0.311580
     2  C    0.180108
     3  C    0.062510
     4  N   -0.253145
     5  C    0.132355
     6  H    0.025116
     7  N   -0.295038
     8  C    0.134505
     9  H    0.011058
    10  N   -0.291742
    11  C    0.234994
    12  C    0.099695
    13  N   -0.046316
    14  H    0.113517
    15  H    0.087466
    16  H    0.026193
    17  H    0.032326
    18  H    0.021498
    19  N   -0.308502
    20  C    0.257172
    21  C    0.180970
    22  N   -0.121590
    23  H    0.115662
    24  H    0.118101
    25  N   -0.310480
    26  C    0.245093
    27  N   -0.149167
    28  H    0.121768
    29  C    0.190968
    30  O   -0.324860
    31  C   -0.016894
    32  N   -0.221608
    33  C    0.130168
    34  H    0.020195
    35  H    0.030108
    36  H    0.029024
    37  H    0.023172
    38  H    0.057115
    39  H    0.060324
    40  H    0.072799
    41  H    0.024084
    42  C   -0.116115
    43  O   -0.279010
    44  C    0.150942
    45  H    0.132940
    46  N   -0.107762
    47  O   -0.343585
    48  C    0.336829
    49  H    0.046843
    50  C    0.184254
    51  C    0.040487
    52  N   -0.279506
    53  H    0.033693
    54  H    0.041461
    55  H    0.024514
    56  H    0.127728
    57  H    0.116308
    58  N   -0.047115
    59  C    0.084989
    60  C    0.246626
    61  N   -0.272862
    62  H    0.035686
    63  C    0.162441
    64  N   -0.301439
    65  H    0.035347
    66  C    0.122233
    67  N   -0.261165
    68  C    0.025814
    69  C    0.181287
    70  N   -0.309007
 Sum of Mulliken charges =  -0.00000

 Dipole moment (field-independent basis, Debye):
    X=              6.9237    Y=              6.6103    Z=              3.0609  Tot=             10.0500
 Quadrupole moment (field-independent basis, Debye-Ang):
   XX=           -147.8498   YY=           -223.5444   ZZ=           -255.2404
   XY=              5.8987   XZ=              4.3500   YZ=             -0.0861

 Normal termination of Gaussian 16 at Sun Jan 21 09:48:17 2018.
