 Gaussian 16, Revision A.03,
 Gaussian 16:  EM64L-G16RevA.03 25-Dec-2016

 ---------------------------------------
 #p wb97xd/cc-pvdz sp scf=(maxcycles=20)
 ---------------------------------------

 ------------------
 Base pair stacking
 ------------------
 Symbolic Z-matrix:
 Charge =  0 Multiplicity = 1

                         Standard orientation:
 ---------------------------------------------------------------------
 Center     Atomic      Atomic             Coordinates (Angstroms)
 Number     Number       Type             X           Y           Z
 ---------------------------------------------------------------------
      1          7           0       -6.374658   -1.334737    0.617603
      2          6           0       -7.721437   -0.738189    0.708721
      3          6           0       -4.200617   -1.652988    0.715425
      4          7           0       -4.742663   -2.827769    0.214630
      5          6           0       -6.030747   -2.589015    0.175744
      6          1           0       -6.782763   -3.299050   -0.169626
      7          7           0       -2.680965   -0.022813    1.487538
      8          6           0       -3.743075    0.766054    1.680355
      9          1           0       -3.521403    1.755326    2.078436
     10          7           0       -5.031859    0.517548    1.456306
     11          6           0       -5.194322   -0.723470    0.968543
     12          6           0       -2.877618   -1.265586    0.995680
     13          7           0       -1.818648   -2.054538    0.802512
     14          1           0       -1.917270   -2.982049    0.440270
     15          1           0       -0.891135   -1.745552    1.013193
     16          1           0       -8.290947   -1.289135    1.318881
     17          1           0       -7.651304    0.191560    1.068954
     18          1           0       -8.138512   -0.711266   -0.199756
     19          7           0       -3.477264    2.107429   -1.450949
     20          6           0       -2.113486    2.050476   -1.293093
     21          6           0       -4.323116    3.280168   -1.151098
     22          7           0        0.873868    3.564732   -0.374139
     23          1           0        1.842415    3.320865   -0.333170
     24          1           0        0.626054    4.489200   -0.083158
     25          7           0       -1.323389    3.048253   -0.841174
     26          6           0       -0.051787    2.691973   -0.800003
     27          7           0        0.412616    1.453778   -1.172472
     28          1           0        1.401964    1.269402   -1.107978
     29          6           0       -0.382188    0.412042   -1.640366
     30          8           0        0.137016   -0.667394   -1.950174
     31          6           0       -1.750821    0.779799   -1.690169
     32          7           0       -2.864502    0.053643   -2.089285
     33          6           0       -3.862994    0.879516   -1.930630
     34          1           0       -4.904973    0.643261   -2.149075
     35          1           0       -4.995461    3.038366   -0.452328
     36          1           0       -3.748759    4.025661   -0.815530
     37          1           0       -4.796165    3.573055   -1.981320
     38          1           0        6.327270    0.772454    0.052681
     39          1           0        6.549859    1.076425   -1.668571
     40          1           0        5.194410    1.811721   -0.812142
     41          1           0        5.216174   -3.545295   -1.755390
     42          6           0        4.766746   -2.559001   -1.639327
     43          8           0        2.557267   -3.313808   -2.058360
     44          6           0        3.352027   -2.411353   -1.796208
     45          1           0        1.892027   -0.978675   -1.731996
     46          7           0        2.886673   -1.122685   -1.628801
     47          8           0        3.125607    1.095753   -1.206118
     48          6           0        3.629081   -0.006248   -1.335632
     49          1           0        6.597202   -1.547679   -1.224010
     50          6           0        5.517304   -1.488748   -1.353253
     51          6           0        5.819159    0.934045   -0.886348
     52          7           0        4.985136   -0.229557   -1.199699
     53          1           0        4.384051    2.921248    3.512452
     54          1           0        3.193222    3.231626    2.441161
     55          1           0        4.747400    3.190063    1.944294
     56          1           0        1.583103   -3.443148    0.921184
     57          1           0        3.228073   -3.258207    1.333472
     58          7           0        2.329970   -2.838376    1.197910
     59          6           0        2.137918   -1.530057    1.378418
     60          6           0        2.801100    0.691514    1.913753
     61          7           0        1.584162    1.227861    1.724481
     62          1           0       -0.304327    0.640512    1.186680
     63          6           0        0.711864    0.289682    1.361416
     64          7           0        0.902270   -1.021209    1.180087
     65          1           0        5.952828    0.619807    2.630437
     66          6           0        4.926784    0.378133    2.351561
     67          7           0        4.500707   -0.823141    2.046480
     68          6           0        3.154438   -0.638565    1.766813
     69          6           0        4.079120    2.786874    2.569608
     70          7           0        3.951094    1.343119    2.291786
 ---------------------------------------------------------------------

 SCF Done:  E(RwB97XD) =  -2048.75207115     A.U. after   15 cycles

 The electronic state is 1-A.
 Alpha  occ. eigenvalues --  -19.25879 -19.21980 -19.20559 -14.52396 -14.51944
 Alpha  occ. eigenvalues --  -14.49176 -14.48530 -14.47825 -14.47190 -14.46740
 Alpha  occ. eigenvalues --  -14.46429 -14.44973 -14.43502 -14.43479 -14.42555
 Alpha  occ. eigenvalues --  -14.41898 -14.41742 -14.41435 -14.40689 -14.40578
 Alpha  occ. eigenvalues --  -10.45490 -10.41022 -10.40120 -10.39160 -10.38099
 Alpha  occ. eigenvalues --  -10.37711 -10.37503 -10.36571 -10.35788 -10.35439
 Alpha  occ. eigenvalues --  -10.35155 -10.34409 -10.34150 -10.33795 -10.33737
 Alpha  occ. eigenvalues --  -10.33514 -10.33159 -10.31922 -10.31420 -10.30960
 Alpha  occ. eigenvalues --  -10.30402 -10.28869 -10.27919  -1.19459  -1.14635
 Alpha  occ. eigenvalues --   -1.13097  -1.13018  -1.11730  -1.10412  -1.09279
 Alpha  occ. eigenvalues --   -1.08485  -1.08402  -1.05389  -1.04017  -1.02485
 Alpha  occ. eigenvalues --   -1.00819  -1.00430  -0.99551  -0.98409  -0.97330
 Alpha  occ. eigenvalues --   -0.96354  -0.96050  -0.93051  -0.90971  -0.87093
 Alpha  occ. eigenvalues --   -0.85527  -0.84335  -0.83881  -0.83730  -0.82705
 Alpha  occ. eigenvalues --   -0.82180  -0.78808  -0.76398  -0.74446  -0.74163
 Alpha  occ. eigenvalues --   -0.73510  -0.73323  -0.73264  -0.71447  -0.69775
 Alpha  occ. eigenvalues --   -0.67212  -0.66673  -0.66511  -0.66107  -0.64397
 Alpha  occ. eigenvalues --   -0.63641  -0.63609  -0.63063  -0.62574  -0.61565
 Alpha  occ. eigenvalues --   -0.60604  -0.60526  -0.59922  -0.59434  -0.58974
 Alpha  occ. eigenvalues --   -0.58701  -0.58173  -0.56965  -0.56886  -0.56332
 Alpha  occ. eigenvalues --   -0.55936  -0.55760  -0.54897  -0.54606  -0.54315
 Alpha  occ. eigenvalues --   -0.53755  -0.53489  -0.52953  -0.52819  -0.52740
 Alpha  occ. eigenvalues --   -0.52526  -0.52197  -0.52146  -0.51176  -0.50589
 Alpha  occ. eigenvalues --   -0.49998  -0.49583  -0.49416  -0.48969  -0.48934
 Alpha  occ. eigenvalues --   -0.48683  -0.48231  -0.47988  -0.47456  -0.47329
 Alpha  occ. eigenvalues --   -0.47310  -0.45465  -0.45246  -0.44033  -0.43875
 Alpha  occ. eigenvalues --   -0.41585  -0.40198  -0.39443  -0.37586  -0.37242
 Alpha  occ. eigenvalues --   -0.37140  -0.37123  -0.36830  -0.35841  -0.34285
 Alpha  occ. eigenvalues --   -0.34002  -0.33805  -0.33742  -0.33449  -0.33179
 Alpha  occ. eigenvalues --   -0.32584  -0.32182  -0.31908  -0.31755  -0.31347
 Alpha  occ. eigenvalues --   -0.30803  -0.29187  -0.26112  -0.25212
 Alpha virt. eigenvalues --    0.03064   0.04722   0.07516   0.07682   0.08599
 Alpha virt. eigenvalues --    0.09169   0.09859   0.10602   0.10868   0.11348
 Alpha virt. eigenvalues --    0.13095   0.13845   0.14509   0.14699   0.15026

 Mulliken charges:
               1
     1  N   -0.311713
     2  C    0.180059
     3  C    0.057519
     4  N   -0.256516
     5  C    0.132181
     6  H    0.027336
     7  N   -0.284043
     8  C    0.133046
     9  H    0.013813
    10  N   -0.290284
    11  C    0.228991
    12  C    0.105026
    13  N   -0.046748
    14  H    0.110004
    15  H    0.089847
    16  H    0.027242
    17  H    0.032989
    18  H    0.024745
    19  N   -0.301229
    20  C    0.252203
    21  C    0.179750
    22  N   -0.106734
    23  H    0.111793
    24  H    0.114637
    25  N   -0.304442
    26  C    0.228199
    27  N   -0.139096
    28  H    0.121042
    29  C    0.162216
    30  O   -0.323195
    31  C    0.002310
    32  N   -0.223525
    33  C    0.125686
    34  H    0.021943
    35  H    0.027948
    36  H    0.026599
    37  H    0.021687
    38  H    0.051368
    39  H    0.062364
    40  H    0.071629
    41  H    0.027979
    42  C   -0.114462
    43  O   -0.271387
    44  C    0.169182
    45  H    0.134634
    46  N   -0.126833
    47  O   -0.344285
    48  C    0.348169
    49  H    0.046507
    50  C    0.183918
    51  C    0.040781
    52  N   -0.282734
    53  H    0.034303
    54  H    0.037584
    55  H    0.021691
    56  H    0.125264
    57  H    0.117545
    58  N   -0.055311
    59  C    0.109324
    60  C    0.247512
    61  N   -0.277311
    62  H    0.036651
    63  C    0.164937
    64  N   -0.302444
    65  H    0.035467
    66  C    0.114133
    67  N   -0.252914
    68  C    0.001148
    69  C    0.179449
    70  N   -0.305144
 Sum of Mulliken charges =  -0.00000

 Dipole moment (field-independent basis, Debye):
    X=              6.5748    Y=              6.1976    Z=              3.2054  Tot=              9.5871
 Quadrupole moment (field-independent basis, Debye-Ang):
   XX=           -144.7990   YY=           -224.9254   ZZ=           -256.4603
   XY=              9.4724   XZ=              9.0304   YZ=             -6.9355

 Normal termination of Gaussian 16 at Sun Jan 21 03:40:40 2018.
