 Gaussian 16, Revision A.03,
 Gaussian 16:  EM64L-G16RevA.03 25-Dec-2016

 ---------------------------------------
 #p wb97xd/cc-pvdz sp scf=(maxcycles=20)
 ---------------------------------------

 ------------------
 Base pair stacking
 ------------------
 Symbolic Z-matrix:
 Charge =  0 Multiplicity = 1

                         Standard orientation:
 ---------------------------------------------------------------------
 Center     Atomic      Atomic             Coordinates (Angstroms)
 Number     Number       Type             X           Y           Z
 ---------------------------------------------------------------------
      1          7           0       -6.397336   -1.410101    0.535274
      2          6           0       -7.749176   -0.858052    0.749209
      3          6           0       -4.218887   -1.712574    0.549266
      4          7           0       -4.754715   -2.782226   -0.153198
      5          6           0       -6.045712   -2.557185   -0.133517
      6          1           0       -6.794450   -3.201347   -0.595435
      7          7           0       -2.706969   -0.232491    1.591578
      8          6           0       -3.774933    0.493591    1.937754
      9          1           0       -3.558779    1.395613    2.508628
     10          7           0       -5.063770    0.273749    1.685814
     11          6           0       -5.219188   -0.858451    0.979854
     12          6           0       -2.896607   -1.366113    0.881630
     13          7           0       -1.831794   -2.092244    0.535126
     14          1           0       -1.925117   -2.938556    0.009513
     15          1           0       -0.904994   -1.815217    0.788968
     16          1           0       -8.304678   -1.519150    1.253736
     17          1           0       -7.684379   -0.009539    1.273567
     18          1           0       -8.178344   -0.670011   -0.134221
     19          7           0       -3.438022    2.309277   -1.359335
     20          6           0       -2.073059    2.235399   -1.219758
     21          6           0       -4.267633    3.485145   -1.028008
     22          7           0        0.941336    3.701954   -0.311823
     23          1           0        1.907686    3.447377   -0.287434
     24          1           0        0.706948    4.623571   -0.001335
     25          7           0       -1.266892    3.216689   -0.760177
     26          6           0        0.001284    2.846593   -0.741424
     27          7           0        0.447896    1.610528   -1.141690
     28          1           0        1.435961    1.414801   -1.092999
     29          6           0       -0.363640    0.585624   -1.617971
     30          8           0        0.140231   -0.493401   -1.953460
     31          6           0       -1.728819    0.968364   -1.643931
     32          7           0       -2.855003    0.261032   -2.041796
     33          6           0       -3.842642    1.094220   -1.855878
     34          1           0       -4.889714    0.872710   -2.065313
     35          1           0       -4.933753    3.237834   -0.325213
     36          1           0       -3.681294    4.218529   -0.686508
     37          1           0       -4.747846    3.797740   -1.846847
     38          1           0        6.369798    0.846188   -0.003664
     39          1           0        6.574159    1.178646   -1.721909
     40          1           0        5.237324    1.912459   -0.835478
     41          1           0        5.190718   -3.426734   -1.874083
     42          6           0        4.753215   -2.438084   -1.734830
     43          8           0        2.530834   -3.162355   -2.139274
     44          6           0        3.338296   -2.273014   -1.871166
     45          1           0        1.894433   -0.826681   -1.763044
     46          7           0        2.888714   -0.982811   -1.674998
     47          8           0        3.156327    1.225109   -1.215977
     48          6           0        3.646468    0.120454   -1.371409
     49          1           0        6.599285   -1.453360   -1.324739
     50          6           0        5.518549   -1.380950   -1.439260
     51          6           0        5.851787    1.029838   -0.933175
     52          7           0        5.001670   -0.119272   -1.256623
     53          1           0        4.351700    2.380861    4.046757
     54          1           0        3.143678    2.867370    3.063849
     55          1           0        4.691593    2.938093    2.550972
     56          1           0        1.586021   -3.434600    0.359342
     57          1           0        3.234141   -3.307204    0.780737
     58          7           0        2.329866   -2.881332    0.734494
     59          6           0        2.126073   -1.631110    1.154706
     60          6           0        2.772155    0.462611    2.082399
     61          7           0        1.547131    1.008730    2.008250
     62          1           0       -0.341781    0.505726    1.392112
     63          6           0        0.680340    0.142011    1.488277
     64          7           0        0.882511   -1.110611    1.066805
     65          1           0        5.933575    0.301419    2.739394
     66          6           0        4.906646    0.101801    2.431969
     67          7           0        4.489617   -1.028355    1.915732
     68          6           0        3.137890   -0.813062    1.689426
     69          6           0        4.035942    2.418152    3.098650
     70          7           0        3.919889    1.048540    2.561347
 ---------------------------------------------------------------------

 SCF Done:  E(RwB97XD) =  -2048.75064764     A.U. after   15 cycles

 The electronic state is 1-A.
 Alpha  occ. eigenvalues --  -19.25999 -19.22114 -19.20698 -14.52498 -14.51759
 Alpha  occ. eigenvalues --  -14.49002 -14.48695 -14.47946 -14.46963 -14.46697
 Alpha  occ. eigenvalues --  -14.46683 -14.44819 -14.43323 -14.43202 -14.42255
 Alpha  occ. eigenvalues --  -14.42040 -14.41563 -14.41174 -14.40811 -14.40358
 Alpha  occ. eigenvalues --  -10.45607 -10.41238 -10.40303 -10.38842 -10.38264
 Alpha  occ. eigenvalues --  -10.37854 -10.37328 -10.36353 -10.35544 -10.35480
 Alpha  occ. eigenvalues --  -10.34916 -10.34315 -10.34239 -10.33538 -10.33527
 Alpha  occ. eigenvalues --  -10.33293 -10.33277 -10.31736 -10.31279 -10.31054
 Alpha  occ. eigenvalues --  -10.30648 -10.28668 -10.28082  -1.19558  -1.14442
 Alpha  occ. eigenvalues --   -1.13245  -1.13228  -1.11550  -1.10557  -1.09385
 Alpha  occ. eigenvalues --   -1.08592  -1.08191  -1.05160  -1.03731  -1.02629
 Alpha  occ. eigenvalues --   -1.00565  -1.00210  -0.99771  -0.98554  -0.97137
 Alpha  occ. eigenvalues --   -0.96514  -0.95779  -0.92809  -0.91084  -0.86858
 Alpha  occ. eigenvalues --   -0.85279  -0.84157  -0.84043  -0.83804  -0.82526
 Alpha  occ. eigenvalues --   -0.82374  -0.78933  -0.76134  -0.74600  -0.73907
 Alpha  occ. eigenvalues --   -0.73677  -0.73461  -0.73057  -0.71228  -0.69496
 Alpha  occ. eigenvalues --   -0.67393  -0.66639  -0.66455  -0.65834  -0.64529
 Alpha  occ. eigenvalues --   -0.63773  -0.63334  -0.62835  -0.62689  -0.61748
 Alpha  occ. eigenvalues --   -0.60386  -0.60322  -0.59630  -0.59541  -0.58726
 Alpha  occ. eigenvalues --   -0.58698  -0.58388  -0.56778  -0.56697  -0.56412
 Alpha  occ. eigenvalues --   -0.56063  -0.55528  -0.54663  -0.54595  -0.54446
 Alpha  occ. eigenvalues --   -0.53664  -0.53576  -0.52931  -0.52855  -0.52728
 Alpha  occ. eigenvalues --   -0.52609  -0.52007  -0.51970  -0.51010  -0.50396
 Alpha  occ. eigenvalues --   -0.50174  -0.49563  -0.49412  -0.49253  -0.48882
 Alpha  occ. eigenvalues --   -0.48772  -0.48338  -0.47860  -0.47549  -0.47447
 Alpha  occ. eigenvalues --   -0.47137  -0.45512  -0.45151  -0.44050  -0.43659
 Alpha  occ. eigenvalues --   -0.41359  -0.39927  -0.39548  -0.37353  -0.37279
 Alpha  occ. eigenvalues --   -0.37250  -0.36861  -0.36692  -0.35978  -0.34182
 Alpha  occ. eigenvalues --   -0.34049  -0.33642  -0.33588  -0.33398  -0.33265
 Alpha  occ. eigenvalues --   -0.32711  -0.32312  -0.32076  -0.31874  -0.31144
 Alpha  occ. eigenvalues --   -0.30576  -0.28907  -0.25909  -0.25396
 Alpha virt. eigenvalues --    0.02891   0.04940   0.07668   0.07886   0.08619
 Alpha virt. eigenvalues --    0.09033   0.09736   0.10781   0.10863   0.11654
 Alpha virt. eigenvalues --    0.13067   0.13945   0.14591   0.14628   0.15489

 Mulliken charges:
               1
     1  N   -0.311461
     2  C    0.180308
     3  C    0.053958
     4  N   -0.255188
     5  C    0.130664
     6  H    0.026533
     7  N   -0.288163
     8  C    0.132499
     9  H    0.012818
    10  N   -0.291533
    11  C    0.229916
    12  C    0.105244
    13  N   -0.045190
    14  H    0.110810
    15  H    0.091251
    16  H    0.026858
    17  H    0.033401
    18  H    0.023699
    19  N   -0.307391
    20  C    0.255622
    21  C    0.179898
    22  N   -0.116373
    23  H    0.112642
    24  H    0.116764
    25  N   -0.308194
    26  C    0.240227
    27  N   -0.141624
    28  H    0.118471
    29  C    0.171814
    30  O   -0.323810
    31  C   -0.003757
    32  N   -0.224320
    33  C    0.129115
    34  H    0.023801
    35  H    0.031356
    36  H    0.027753
    37  H    0.022469
    38  H    0.052984
    39  H    0.062046
    40  H    0.072154
    41  H    0.027632
    42  C   -0.113101
    43  O   -0.278218
    44  C    0.159114
    45  H    0.136516
    46  N   -0.122924
    47  O   -0.346120
    48  C    0.349416
    49  H    0.047079
    50  C    0.189178
    51  C    0.041496
    52  N   -0.283249
    53  H    0.033175
    54  H    0.040196
    55  H    0.021965
    56  H    0.127218
    57  H    0.115583
    58  N   -0.045395
    59  C    0.102095
    60  C    0.248847
    61  N   -0.275212
    62  H    0.036151
    63  C    0.163969
    64  N   -0.302270
    65  H    0.033023
    66  C    0.120348
    67  N   -0.255685
    68  C   -0.000106
    69  C    0.180091
    70  N   -0.308882
 Sum of Mulliken charges =  -0.00000

 Dipole moment (field-independent basis, Debye):
    X=              6.8283    Y=              6.2916    Z=              2.8950  Tot=              9.7257
 Quadrupole moment (field-independent basis, Debye-Ang):
   XX=           -144.5934   YY=           -224.1569   ZZ=           -255.1216
   XY=              7.9440   XZ=             10.1963   YZ=             -3.3619

 Normal termination of Gaussian 16 at Sun Jan 21 06:50:55 2018.
