 Gaussian 16, Revision A.03,
 Gaussian 16:  EM64L-G16RevA.03 25-Dec-2016

 ---------------------------------------
 #p wb97xd/cc-pvdz sp scf=(maxcycles=20)
 ---------------------------------------

 ------------------
 Base pair stacking
 ------------------
 Symbolic Z-matrix:
 Charge =  0 Multiplicity = 1

                         Standard orientation:
 ---------------------------------------------------------------------
 Center     Atomic      Atomic             Coordinates (Angstroms)
 Number     Number       Type             X           Y           Z
 ---------------------------------------------------------------------
      1          7           0        5.189028   -1.594900   -1.400913
      2          6           0        6.544337   -1.067277   -1.651441
      3          6           0        3.005438   -1.799852   -1.235983
      4          7           0        3.541696   -3.006813   -0.811256
      5          6           0        4.835768   -2.835026   -0.927624
      6          1           0        5.585739   -3.586828   -0.680044
      7          7           0        1.491171   -0.084683   -1.808836
      8          6           0        2.562085    0.650829   -2.124689
      9          1           0        2.346089    1.654850   -2.487377
     10          7           0        3.853677    0.333785   -2.060079
     11          6           0        4.008621   -0.919659   -1.602600
     12          6           0        1.680410   -1.341684   -1.351450
     13          7           0        0.612656   -2.077440   -1.035632
     14          1           0        0.705566   -3.013037   -0.693240
     15          1           0       -0.316043   -1.718732   -1.130469
     16          1           0        7.006228   -1.639440   -2.329277
     17          1           0        6.480021   -0.130925   -1.995285
     18          1           0        7.069004   -1.072651   -0.800149
     19          7           0        4.744176    1.848941    1.037104
     20          6           0        3.370221    1.864008    1.045587
     21          6           0        5.607899    2.980169    0.643405
     22          7           0        0.377222    3.540582    0.504428
     23          1           0       -0.600613    3.347292    0.579928
     24          1           0        0.636175    4.454501    0.190712
     25          7           0        2.584702    2.906371    0.698482
     26          6           0        1.300523    2.616409    0.809922
     27          7           0        0.820270    1.399355    1.229046
     28          1           0       -0.177909    1.266821    1.284053
     29          6           0        1.610086    0.312655    1.591193
     30          8           0        1.076260   -0.742299    1.955661
     31          6           0        2.992083    0.609005    1.476607
     32          7           0        4.106231   -0.178117    1.733558
     33          6           0        5.120135    0.597198    1.459545
     34          1           0        6.167055    0.305146    1.548607
     35          1           0        6.177228    2.712492   -0.133133
     36          1           0        5.037069    3.758138    0.384194
     37          1           0        6.192540    3.238459    1.411715
     38          1           0       -5.226637    1.037420    0.726872
     39          1           0       -5.223271    1.331895    2.464090
     40          1           0       -3.944618    2.006743    1.453645
     41          1           0       -4.133065   -3.352949    2.362527
     42          6           0       -3.649868   -2.389732    2.198316
     43          8           0       -1.448579   -3.261987    2.341903
     44          6           0       -2.220778   -2.316836    2.183191
     45          1           0       -0.706152   -0.960382    1.950317
     46          7           0       -1.712159   -1.051871    1.967777
     47          8           0       -1.883764    1.180791    1.589651
     48          6           0       -2.424991    0.104646    1.773124
     49          1           0       -5.461539   -1.280834    2.013861
     50          6           0       -4.372350   -1.279008    2.011437
     51          6           0       -4.600965    1.161492    1.598196
     52          7           0       -3.797351   -0.047071    1.801499
     53          1           0       -5.602649    3.242357   -2.944940
     54          1           0       -4.276413    3.478367   -2.024347
     55          1           0       -5.759159    3.510774   -1.342797
     56          1           0       -2.846593   -3.287950   -0.748417
     57          1           0       -4.517363   -3.013848   -0.957004
     58          7           0       -3.588689   -2.642353   -0.929075
     59          6           0       -3.351528   -1.343569   -1.124218
     60          6           0       -3.957157    0.915353   -1.562662
     61          7           0       -2.699825    1.386182   -1.519457
     62          1           0       -0.793580    0.696232   -1.218094
     63          6           0       -1.840431    0.400176   -1.270191
     64          7           0       -2.076003   -0.901277   -1.074445
     65          1           0       -7.171794    1.014203   -1.891991
     66          6           0       -6.133657    0.716833   -1.741041
     67          7           0       -5.737420   -0.508293   -1.496656
     68          6           0       -4.359389   -0.396468   -1.381390
     69          6           0       -5.193450    3.081276   -2.046835
     70          7           0       -5.108654    1.629634   -1.794696
 ---------------------------------------------------------------------

 SCF Done:  E(RwB97XD) =  -2048.75227140     A.U. after   15 cycles

 The electronic state is 1-A.
 Alpha  occ. eigenvalues --  -19.25466 -19.21832 -19.20559 -14.52612 -14.52072
 Alpha  occ. eigenvalues --  -14.48823 -14.48538 -14.48176 -14.47468 -14.46778
 Alpha  occ. eigenvalues --  -14.46596 -14.45629 -14.44449 -14.44391 -14.42439
 Alpha  occ. eigenvalues --  -14.41976 -14.41072 -14.41068 -14.41024 -14.40441
 Alpha  occ. eigenvalues --  -10.45075 -10.41190 -10.40052 -10.39880 -10.38194
 Alpha  occ. eigenvalues --  -10.38112 -10.37329 -10.37311 -10.35959 -10.35519
 Alpha  occ. eigenvalues --  -10.34776 -10.34381 -10.34047 -10.33831 -10.33524
 Alpha  occ. eigenvalues --  -10.33265 -10.33144 -10.32781 -10.31053 -10.30918
 Alpha  occ. eigenvalues --  -10.30793 -10.28420 -10.28147  -1.19092  -1.15383
 Alpha  occ. eigenvalues --   -1.13149  -1.12810  -1.11119  -1.10605  -1.09434
 Alpha  occ. eigenvalues --   -1.08957  -1.08507  -1.05116  -1.04890  -1.02150
 Alpha  occ. eigenvalues --   -1.01114  -1.00504  -0.99671  -0.98516  -0.97030
 Alpha  occ. eigenvalues --   -0.96739  -0.96628  -0.92805  -0.90704  -0.87767
 Alpha  occ. eigenvalues --   -0.86040  -0.84146  -0.83852  -0.83303  -0.82518
 Alpha  occ. eigenvalues --   -0.82286  -0.78527  -0.77159  -0.74954  -0.74633
 Alpha  occ. eigenvalues --   -0.73583  -0.73028  -0.72881  -0.71045  -0.70504
 Alpha  occ. eigenvalues --   -0.67362  -0.66908  -0.66299  -0.66198  -0.64368
 Alpha  occ. eigenvalues --   -0.64309  -0.63652  -0.62733  -0.62591  -0.61765
 Alpha  occ. eigenvalues --   -0.61040  -0.60612  -0.60444  -0.59559  -0.59167
 Alpha  occ. eigenvalues --   -0.58825  -0.58317  -0.56948  -0.56585  -0.56072
 Alpha  occ. eigenvalues --   -0.55759  -0.55613  -0.55334  -0.54213  -0.53942
 Alpha  occ. eigenvalues --   -0.53791  -0.53638  -0.53505  -0.53352  -0.52933
 Alpha  occ. eigenvalues --   -0.52911  -0.52137  -0.51773  -0.50646  -0.50312
 Alpha  occ. eigenvalues --   -0.50146  -0.49985  -0.49258  -0.48990  -0.48811
 Alpha  occ. eigenvalues --   -0.48683  -0.48562  -0.48321  -0.47670  -0.47231
 Alpha  occ. eigenvalues --   -0.46917  -0.45924  -0.45214  -0.44692  -0.42986
 Alpha  occ. eigenvalues --   -0.41049  -0.40851  -0.39127  -0.37986  -0.37726
 Alpha  occ. eigenvalues --   -0.37297  -0.37249  -0.37082  -0.35985  -0.34794
 Alpha  occ. eigenvalues --   -0.34400  -0.34043  -0.33461  -0.33241  -0.33043
 Alpha  occ. eigenvalues --   -0.32671  -0.32471  -0.32062  -0.31864  -0.30841
 Alpha  occ. eigenvalues --   -0.30504  -0.29569  -0.25810  -0.25459
 Alpha virt. eigenvalues --    0.03264   0.03874   0.06870   0.07921   0.08915
 Alpha virt. eigenvalues --    0.09138   0.09723   0.10335   0.10970   0.12411
 Alpha virt. eigenvalues --    0.12779   0.13813   0.14362   0.14504   0.14681

 Mulliken charges:
               1
     1  N   -0.307883
     2  C    0.178044
     3  C    0.064573
     4  N   -0.256497
     5  C    0.142297
     6  H    0.026316
     7  N   -0.291476
     8  C    0.132871
     9  H    0.011642
    10  N   -0.285162
    11  C    0.240254
    12  C    0.085163
    13  N   -0.049770
    14  H    0.113131
    15  H    0.083361
    16  H    0.026763
    17  H    0.031049
    18  H    0.021183
    19  N   -0.302025
    20  C    0.260022
    21  C    0.183465
    22  N   -0.121923
    23  H    0.119028
    24  H    0.117499
    25  N   -0.308189
    26  C    0.243309
    27  N   -0.138492
    28  H    0.115341
    29  C    0.183992
    30  O   -0.322109
    31  C   -0.016825
    32  N   -0.220471
    33  C    0.113281
    34  H    0.019560
    35  H    0.025741
    36  H    0.030022
    37  H    0.022841
    38  H    0.056493
    39  H    0.059315
    40  H    0.074704
    41  H    0.022793
    42  C   -0.100634
    43  O   -0.269376
    44  C    0.164749
    45  H    0.129923
    46  N   -0.113565
    47  O   -0.343002
    48  C    0.335962
    49  H    0.045487
    50  C    0.162726
    51  C    0.046564
    52  N   -0.276715
    53  H    0.035163
    54  H    0.040272
    55  H    0.025988
    56  H    0.125363
    57  H    0.116028
    58  N   -0.053151
    59  C    0.086610
    60  C    0.214124
    61  N   -0.264003
    62  H    0.027404
    63  C    0.166398
    64  N   -0.305199
    65  H    0.036052
    66  C    0.118827
    67  N   -0.252462
    68  C    0.031790
    69  C    0.182574
    70  N   -0.297127
 Sum of Mulliken charges =  -0.00000

 Dipole moment (field-independent basis, Debye):
    X=             -6.7463    Y=              6.9717    Z=             -2.4977  Tot=             10.0178
 Quadrupole moment (field-independent basis, Debye-Ang):
   XX=           -150.8848   YY=           -224.1944   ZZ=           -256.9613
   XY=             -4.5133   XZ=             -5.9325   YZ=              8.4989

 Normal termination of Gaussian 16 at Sun Jan 21 03:52:33 2018.
