 Gaussian 16, Revision A.03,
 Gaussian 16:  EM64L-G16RevA.03 25-Dec-2016

 ---------------------------------------
 #p wb97xd/cc-pvdz sp scf=(maxcycles=20)
 ---------------------------------------

 ------------------
 Base pair stacking
 ------------------
 Symbolic Z-matrix:
 Charge =  0 Multiplicity = 1

                         Standard orientation:
 ---------------------------------------------------------------------
 Center     Atomic      Atomic             Coordinates (Angstroms)
 Number     Number       Type             X           Y           Z
 ---------------------------------------------------------------------
      1          7           0       -6.646836   -1.250750    0.447863
      2          6           0       -7.988188   -0.637359    0.498365
      3          6           0       -4.479664   -1.592695    0.601850
      4          7           0       -5.023731   -2.768360    0.105331
      5          6           0       -6.307607   -2.515299    0.032434
      6          1           0       -7.059687   -3.221567   -0.320407
      7          7           0       -2.959285    0.030926    1.386215
      8          6           0       -4.016163    0.834806    1.542362
      9          1           0       -3.792137    1.827183    1.931277
     10          7           0       -5.302168    0.597984    1.291392
     11          6           0       -5.467889   -0.648107    0.817868
     12          6           0       -3.159116   -1.216577    0.907811
     13          7           0       -2.105372   -2.020498    0.751244
     14          1           0       -2.206490   -2.952031    0.400184
     15          1           0       -1.179453   -1.719223    0.979403
     16          1           0       -8.578447   -1.172627    1.102721
     17          1           0       -7.915460    0.296712    0.846710
     18          1           0       -8.383370   -0.618969   -0.420050
     19          7           0       -3.166360    2.125201   -1.524929
     20          6           0       -1.807459    2.054774   -1.333937
     21          6           0       -4.004989    3.311946   -1.262196
     22          7           0        1.175258    3.547667   -0.366270
     23          1           0        2.139599    3.293214   -0.298805
     24          1           0        0.931712    4.479118   -0.094623
     25          7           0       -1.016381    3.049866   -0.877834
     26          6           0        0.249555    2.679518   -0.801351
     27          7           0        0.707790    1.430687   -1.144784
     28          1           0        1.693080    1.235819   -1.054169
     29          6           0       -0.088133    0.391456   -1.616335
     30          8           0        0.425310   -0.698364   -1.898123
     31          6           0       -1.450733    0.774284   -1.703915
     32          7           0       -2.563278    0.055285   -2.118838
     33          6           0       -3.555304    0.894918   -1.995864
     34          1           0       -4.594598    0.667574   -2.235552
     35          1           0       -4.696462    3.088262   -0.576167
     36          1           0       -3.429838    4.055595   -0.923877
     37          1           0       -4.454805    3.598060   -2.107550
     38          1           0        6.583382    0.698950    0.230137
     39          1           0        6.850088    0.974986   -1.489550
     40          1           0        5.483702    1.738444   -0.676242
     41          1           0        5.463760   -3.631758   -1.541311
     42          6           0        5.023525   -2.638721   -1.450194
     43          8           0        2.815685   -3.373953   -1.910626
     44          6           0        3.614759   -2.477012   -1.642729
     45          1           0        2.170844   -1.026714   -1.633874
     46          7           0        3.161006   -1.180707   -1.505026
     47          8           0        3.416362    1.040782   -1.108847
     48          6           0        3.909563   -0.068764   -1.210458
     49          1           0        6.855622   -1.642681   -1.006176
     50          6           0        5.779850   -1.573146   -1.161856
     51          6           0        6.099508    0.852590   -0.722924
     52          7           0        5.259269   -0.305744   -1.039163
     53          1           0        4.090682    2.922382    3.535589
     54          1           0        2.929220    3.230751    2.431963
     55          1           0        4.494070    3.163876    1.972783
     56          1           0        1.275832   -3.446548    0.970661
     57          1           0        2.912711   -3.274647    1.419170
     58          7           0        2.023127   -2.846461    1.256285
     59          6           0        1.842500   -1.533491    1.413286
     60          6           0        2.519345    0.687865    1.932099
     61          7           0        1.313694    1.235437    1.706272
     62          1           0       -0.568471    0.662181    1.132325
     63          6           0        0.439061    0.302192    1.336177
     64          7           0        0.618031   -1.013343    1.178353
     65          1           0        5.652227    0.590199    2.724365
     66          6           0        4.630229    0.356357    2.424726
     67          7           0        4.197163   -0.844262    2.126981
     68          6           0        2.860151   -0.648223    1.812799
     69          6           0        3.806474    2.777700    2.587809
     70          7           0        3.667811    1.331596    2.327887
 ---------------------------------------------------------------------

 SCF Done:  E(RwB97XD) =  -2048.74879291     A.U. after   15 cycles

 The electronic state is 1-A.
 Alpha  occ. eigenvalues --  -19.25977 -19.22026 -19.20597 -14.52446 -14.51682
 Alpha  occ. eigenvalues --  -14.49329 -14.48555 -14.47910 -14.46875 -14.46741
 Alpha  occ. eigenvalues --  -14.46543 -14.44714 -14.43189 -14.43101 -14.42602
 Alpha  occ. eigenvalues --  -14.41983 -14.41932 -14.41567 -14.40700 -14.40664
 Alpha  occ. eigenvalues --  -10.45560 -10.41069 -10.40145 -10.38829 -10.38148
 Alpha  occ. eigenvalues --  -10.37727 -10.37273 -10.36266 -10.35909 -10.35590
 Alpha  occ. eigenvalues --  -10.34871 -10.34587 -10.34233 -10.33917 -10.33659
 Alpha  occ. eigenvalues --  -10.33652 -10.33153 -10.31628 -10.31490 -10.30996
 Alpha  occ. eigenvalues --  -10.30415 -10.29058 -10.28005  -1.19528  -1.14366
 Alpha  occ. eigenvalues --   -1.13157  -1.13059  -1.11901  -1.10449  -1.09335
 Alpha  occ. eigenvalues --   -1.08477  -1.08158  -1.05507  -1.03712  -1.02543
 Alpha  occ. eigenvalues --   -1.00934  -1.00180  -0.99643  -0.98457  -0.97473
 Alpha  occ. eigenvalues --   -0.96385  -0.95754  -0.93155  -0.91011  -0.86840
 Alpha  occ. eigenvalues --   -0.85313  -0.84479  -0.83942  -0.83815  -0.82832
 Alpha  occ. eigenvalues --   -0.82215  -0.78861  -0.76127  -0.74494  -0.73878
 Alpha  occ. eigenvalues --   -0.73580  -0.73396  -0.73383  -0.71590  -0.69513
 Alpha  occ. eigenvalues --   -0.67280  -0.66802  -0.66563  -0.65850  -0.64449
 Alpha  occ. eigenvalues --   -0.63660  -0.63438  -0.63131  -0.62626  -0.61624
 Alpha  occ. eigenvalues --   -0.60686  -0.60324  -0.59680  -0.59494  -0.58775
 Alpha  occ. eigenvalues --   -0.58711  -0.58255  -0.57044  -0.56979  -0.56433
 Alpha  occ. eigenvalues --   -0.56010  -0.55828  -0.54765  -0.54591  -0.54373
 Alpha  occ. eigenvalues --   -0.53683  -0.53537  -0.52886  -0.52778  -0.52660
 Alpha  occ. eigenvalues --   -0.52511  -0.52239  -0.51962  -0.51298  -0.50696
 Alpha  occ. eigenvalues --   -0.50040  -0.49618  -0.49459  -0.48972  -0.48770
 Alpha  occ. eigenvalues --   -0.48709  -0.48210  -0.47922  -0.47559  -0.47465
 Alpha  occ. eigenvalues --   -0.47360  -0.45474  -0.45394  -0.43953  -0.43661
 Alpha  occ. eigenvalues --   -0.41736  -0.39975  -0.39521  -0.37729  -0.37250
 Alpha  occ. eigenvalues --   -0.37182  -0.36904  -0.36559  -0.35774  -0.34181
 Alpha  occ. eigenvalues --   -0.34112  -0.33960  -0.33635  -0.33225  -0.33165
 Alpha  occ. eigenvalues --   -0.32634  -0.32163  -0.31968  -0.31788  -0.31488
 Alpha  occ. eigenvalues --   -0.30903  -0.28770  -0.26310  -0.25316
 Alpha virt. eigenvalues --    0.03092   0.04857   0.07477   0.07884   0.08776
 Alpha virt. eigenvalues --    0.09128   0.09735   0.10373   0.10849   0.11393
 Alpha virt. eigenvalues --    0.12996   0.13678   0.14459   0.14694   0.15035

 Mulliken charges:
               1
     1  N   -0.311592
     2  C    0.180288
     3  C    0.050101
     4  N   -0.256566
     5  C    0.132293
     6  H    0.027940
     7  N   -0.281238
     8  C    0.129691
     9  H    0.014781
    10  N   -0.291072
    11  C    0.229238
    12  C    0.107492
    13  N   -0.046944
    14  H    0.109105
    15  H    0.089258
    16  H    0.027344
    17  H    0.033789
    18  H    0.025416
    19  N   -0.302617
    20  C    0.250622
    21  C    0.179537
    22  N   -0.105604
    23  H    0.110744
    24  H    0.114934
    25  N   -0.301054
    26  C    0.228232
    27  N   -0.128617
    28  H    0.116607
    29  C    0.150226
    30  O   -0.321520
    31  C    0.008250
    32  N   -0.223430
    33  C    0.122327
    34  H    0.025040
    35  H    0.028642
    36  H    0.026484
    37  H    0.022132
    38  H    0.051735
    39  H    0.063787
    40  H    0.071909
    41  H    0.029233
    42  C   -0.110612
    43  O   -0.271833
    44  C    0.171033
    45  H    0.136169
    46  N   -0.130283
    47  O   -0.347719
    48  C    0.351829
    49  H    0.046795
    50  C    0.183038
    51  C    0.039145
    52  N   -0.285412
    53  H    0.034265
    54  H    0.035704
    55  H    0.021138
    56  H    0.123752
    57  H    0.118084
    58  N   -0.055151
    59  C    0.113401
    60  C    0.240776
    61  N   -0.274432
    62  H    0.039400
    63  C    0.168067
    64  N   -0.301807
    65  H    0.032360
    66  C    0.117334
    67  N   -0.253793
    68  C    0.000852
    69  C    0.177462
    70  N   -0.306484
 Sum of Mulliken charges =  -0.00000

 Dipole moment (field-independent basis, Debye):
    X=              6.4636    Y=              6.0910    Z=              3.1721  Tot=              9.4308
 Quadrupole moment (field-independent basis, Debye-Ang):
   XX=           -142.9821   YY=           -225.3396   ZZ=           -255.6780
   XY=             10.6843   XZ=             12.0762   YZ=             -7.0311

 Normal termination of Gaussian 16 at Sun Jan 21 04:04:28 2018.
