 Gaussian 16, Revision A.03,
 Gaussian 16:  EM64L-G16RevA.03 25-Dec-2016

 ---------------------------------------
 #p wb97xd/cc-pvdz sp scf=(maxcycles=20)
 ---------------------------------------

 ------------------
 Base pair stacking
 ------------------
 Symbolic Z-matrix:
 Charge =  0 Multiplicity = 1

                         Standard orientation:
 ---------------------------------------------------------------------
 Center     Atomic      Atomic             Coordinates (Angstroms)
 Number     Number       Type             X           Y           Z
 ---------------------------------------------------------------------
      1          7           0        4.609224   -1.238552   -1.732110
      2          6           0        5.970358   -0.670192   -1.779988
      3          6           0        2.423661   -1.466602   -1.639281
      4          7           0        2.945932   -2.750785   -1.692651
      5          6           0        4.241754   -2.561996   -1.746444
      6          1           0        4.982937   -3.360040   -1.798317
      7          7           0        0.929407    0.354982   -1.529736
      8          6           0        2.008593    1.143674   -1.559822
      9          1           0        1.804195    2.212938   -1.525721
     10          7           0        3.296302    0.811419   -1.625386
     11          6           0        3.436792   -0.523988   -1.662809
     12          6           0        1.104153   -0.984057   -1.568780
     13          7           0        0.028120   -1.773000   -1.538840
     14          1           0        0.110255   -2.769876   -1.565758
     15          1           0       -0.896276   -1.394727   -1.488516
     16          1           0        6.423436   -0.957302   -2.624065
     17          1           0        5.916821    0.327609   -1.754336
     18          1           0        6.497011   -0.994360   -0.994152
     19          7           0        5.314199    1.493994    0.860269
     20          6           0        3.941003    1.510234    0.906386
     21          6           0        6.169545    2.639485    0.490212
     22          7           0        0.938281    3.210973    0.515402
     23          1           0       -0.037613    3.015842    0.609217
     24          1           0        1.190741    4.136730    0.232606
     25          7           0        3.148753    2.566864    0.623672
     26          6           0        1.867394    2.273989    0.757688
     27          7           0        1.395890    1.041278    1.139268
     28          1           0        0.399249    0.907716    1.215680
     29          6           0        2.192728   -0.060266    1.435076
     30          8           0        1.666554   -1.128722    1.770163
     31          6           0        3.571806    0.238998    1.295547
     32          7           0        4.690702   -0.559264    1.489836
     33          6           0        5.698595    0.225527    1.220663
     34          1           0        6.746884   -0.071113    1.269407
     35          1           0        6.717192    2.403317   -0.311724
     36          1           0        5.593682    3.428092    0.278644
     37          1           0        6.775195    2.865312    1.252447
     38          1           0       -4.663133    0.707042    0.785817
     39          1           0       -4.612410    0.929853    2.532937
     40          1           0       -3.359885    1.644237    1.516963
     41          1           0       -3.535749   -3.748068    2.209746
     42          6           0       -3.055004   -2.779457    2.072264
     43          8           0       -0.852597   -3.659334    2.120529
     44          6           0       -1.626673   -2.707598    2.021626
     45          1           0       -0.115838   -1.344406    1.803915
     46          7           0       -1.121212   -1.435416    1.844710
     47          8           0       -1.297963    0.811100    1.563351
     48          6           0       -1.836443   -0.271073    1.716995
     49          1           0       -4.868498   -1.661891    1.982390
     50          6           0       -3.779766   -1.661180    1.950689
     51          6           0       -4.013983    0.794499    1.644322
     52          7           0       -3.207881   -0.422296    1.776091
     53          1           0       -6.125330    3.941832   -1.311853
     54          1           0       -4.794007    3.807987   -0.378169
     55          1           0       -6.274546    3.602827    0.277561
     56          1           0       -3.445177   -2.967321   -1.693924
     57          1           0       -5.112920   -2.617898   -1.775423
     58          7           0       -4.179646   -2.292721   -1.619005
     59          6           0       -3.926853   -1.015976   -1.323692
     60          6           0       -4.505454    1.251905   -0.895147
     61          7           0       -3.242273    1.660304   -0.690194
     62          1           0       -1.344004    0.887620   -0.677229
     63          6           0       -2.394582    0.642722   -0.827522
     64          7           0       -2.645803   -0.636726   -1.123271
     65          1           0       -7.719428    1.499304   -1.142851
     66          6           0       -6.684694    1.156218   -1.119164
     67          7           0       -6.303092   -0.076923   -1.345912
     68          6           0       -4.923506   -0.030083   -1.207030
     69          6           0       -5.715946    3.456889   -0.539041
     70          7           0       -5.648564    2.013635   -0.839875
 ---------------------------------------------------------------------

 SCF Done:  E(RwB97XD) =  -2048.69343255     A.U. after   15 cycles

 The electronic state is 1-A.
 Alpha  occ. eigenvalues --  -19.25073 -19.21191 -19.20513 -14.53072 -14.51444
 Alpha  occ. eigenvalues --  -14.49059 -14.48880 -14.48665 -14.47113 -14.46593
 Alpha  occ. eigenvalues --  -14.46499 -14.45984 -14.44899 -14.44603 -14.43136
 Alpha  occ. eigenvalues --  -14.41724 -14.41369 -14.41287 -14.41215 -14.40715
 Alpha  occ. eigenvalues --  -10.44644 -10.40993 -10.40708 -10.39314 -10.38469
 Alpha  occ. eigenvalues --  -10.38133 -10.37811 -10.36961 -10.36318 -10.35967
 Alpha  occ. eigenvalues --  -10.34384 -10.34382 -10.33993 -10.33794 -10.33477
 Alpha  occ. eigenvalues --  -10.33197 -10.33196 -10.32756 -10.31267 -10.30914
 Alpha  occ. eigenvalues --  -10.30313 -10.28690 -10.28180  -1.18819  -1.16004
 Alpha  occ. eigenvalues --   -1.13243  -1.12247  -1.11289  -1.10767  -1.10062
 Alpha  occ. eigenvalues --   -1.08616  -1.08390  -1.05627  -1.05531  -1.01669
 Alpha  occ. eigenvalues --   -1.01551  -1.01057  -0.99671  -0.98546  -0.97690
 Alpha  occ. eigenvalues --   -0.96989  -0.96815  -0.93255  -0.90181  -0.88496
 Alpha  occ. eigenvalues --   -0.86471  -0.84453  -0.83989  -0.82785  -0.82520
 Alpha  occ. eigenvalues --   -0.82465  -0.78082  -0.77688  -0.75588  -0.74734
 Alpha  occ. eigenvalues --   -0.73738  -0.73166  -0.72605  -0.71479  -0.71141
 Alpha  occ. eigenvalues --   -0.67466  -0.67414  -0.66672  -0.65888  -0.64946
 Alpha  occ. eigenvalues --   -0.64341  -0.63650  -0.63141  -0.62584  -0.61891
 Alpha  occ. eigenvalues --   -0.61690  -0.61095  -0.60932  -0.60140  -0.58975
 Alpha  occ. eigenvalues --   -0.58717  -0.58353  -0.57896  -0.56990  -0.56262
 Alpha  occ. eigenvalues --   -0.55969  -0.55791  -0.55612  -0.55045  -0.54501
 Alpha  occ. eigenvalues --   -0.54271  -0.53973  -0.53481  -0.53061  -0.52865
 Alpha  occ. eigenvalues --   -0.51890  -0.51792  -0.51303  -0.50935  -0.50669
 Alpha  occ. eigenvalues --   -0.50177  -0.49820  -0.49571  -0.49251  -0.48974
 Alpha  occ. eigenvalues --   -0.48643  -0.48351  -0.48004  -0.47441  -0.47179
 Alpha  occ. eigenvalues --   -0.46981  -0.45359  -0.45069  -0.44846  -0.42116
 Alpha  occ. eigenvalues --   -0.41432  -0.41139  -0.38934  -0.38368  -0.38306
 Alpha  occ. eigenvalues --   -0.38173  -0.37208  -0.36498  -0.35338  -0.35192
 Alpha  occ. eigenvalues --   -0.34850  -0.34557  -0.33780  -0.33427  -0.32926
 Alpha  occ. eigenvalues --   -0.32530  -0.32348  -0.31855  -0.30842  -0.30811
 Alpha  occ. eigenvalues --   -0.30481  -0.30227  -0.26108  -0.25511
 Alpha virt. eigenvalues --    0.03047   0.04182   0.06040   0.06925   0.08777
 Alpha virt. eigenvalues --    0.09141   0.09598   0.09900   0.11097   0.12444
 Alpha virt. eigenvalues --    0.13036   0.13864   0.14384   0.14411   0.14645

 Mulliken charges:
               1
     1  N   -0.306263
     2  C    0.193779
     3  C    0.069166
     4  N   -0.260310
     5  C    0.147401
     6  H    0.028052
     7  N   -0.279959
     8  C    0.128539
     9  H    0.010117
    10  N   -0.266117
    11  C    0.237780
    12  C    0.073590
    13  N   -0.061710
    14  H    0.111037
    15  H    0.082275
    16  H    0.025849
    17  H    0.020736
    18  H    0.022811
    19  N   -0.296892
    20  C    0.264309
    21  C    0.184751
    22  N   -0.092268
    23  H    0.123611
    24  H    0.118304
    25  N   -0.264227
    26  C    0.127845
    27  N   -0.090312
    28  H    0.119088
    29  C    0.159149
    30  O   -0.319502
    31  C   -0.004708
    32  N   -0.216592
    33  C    0.086052
    34  H    0.025417
    35  H    0.017660
    36  H    0.032594
    37  H    0.024931
    38  H    0.055099
    39  H    0.040759
    40  H    0.083683
    41  H    0.024305
    42  C   -0.107330
    43  O   -0.266895
    44  C    0.175505
    45  H    0.131780
    46  N   -0.123236
    47  O   -0.344611
    48  C    0.332293
    49  H    0.044972
    50  C    0.162085
    51  C    0.059564
    52  N   -0.275420
    53  H    0.036833
    54  H    0.041320
    55  H    0.030664
    56  H    0.121035
    57  H    0.120807
    58  N   -0.060904
    59  C    0.099946
    60  C    0.198608
    61  N   -0.258645
    62  H    0.016030
    63  C    0.178705
    64  N   -0.305825
    65  H    0.039549
    66  C    0.129135
    67  N   -0.246027
    68  C    0.011645
    69  C    0.180232
    70  N   -0.301644
 Sum of Mulliken charges =  -0.00000

 Dipole moment (field-independent basis, Debye):
    X=             -6.7503    Y=              7.3738    Z=             -2.6415  Tot=             10.3401
 Quadrupole moment (field-independent basis, Debye-Ang):
   XX=           -153.5484   YY=           -229.8016   ZZ=           -255.2227
   XY=              1.5702   XZ=            -13.4510   YZ=             16.2972

 Normal termination of Gaussian 16 at Sun Jan 21 16:58:12 2018.
