 Gaussian 16, Revision A.03,
 Gaussian 16:  EM64L-G16RevA.03 25-Dec-2016

 ---------------------------------------
 #p wb97xd/cc-pvdz sp scf=(maxcycles=20)
 ---------------------------------------

 ------------------
 Base pair stacking
 ------------------
 Symbolic Z-matrix:
 Charge =  0 Multiplicity = 1

                         Standard orientation:
 ---------------------------------------------------------------------
 Center     Atomic      Atomic             Coordinates (Angstroms)
 Number     Number       Type             X           Y           Z
 ---------------------------------------------------------------------
      1          7           0        5.767597   -1.291163   -1.047600
      2          6           0        7.115853   -0.694614   -0.981666
      3          6           0        3.589897   -1.565295   -1.188265
      4          7           0        4.135357   -2.836858   -1.086604
      5          6           0        5.425508   -2.620805   -1.005936
      6          1           0        6.180412   -3.402192   -0.913734
      7          7           0        2.064001    0.222418   -1.384951
      8          6           0        3.126648    1.033056   -1.349861
      9          1           0        2.902565    2.096706   -1.418457
     10          7           0        4.418461    0.728504   -1.243271
     11          6           0        4.583717   -0.602320   -1.165595
     12          6           0        2.263526   -1.111312   -1.304712
     13          7           0        1.204034   -1.922138   -1.339576
     14          1           0        1.304692   -2.916075   -1.283178
     15          1           0        0.274074   -1.563918   -1.423193
     16          1           0        7.668036   -1.030255   -1.744960
     17          1           0        7.043725    0.300858   -1.036115
     18          1           0        7.553240   -0.948735   -0.119053
     19          7           0        4.159179    1.727012    1.296425
     20          6           0        2.789779    1.712969    1.184160
     21          6           0        5.033100    2.863623    0.942789
     22          7           0       -0.174460    3.307513    0.328331
     23          1           0       -1.151396    3.095815    0.324302
     24          1           0        0.094131    4.216536    0.008558
     25          7           0        2.018706    2.726986    0.735548
     26          6           0        0.735305    2.413247    0.743697
     27          7           0        0.242644    1.199863    1.159019
     28          1           0       -0.753876    1.047807    1.130816
     29          6           0        1.017492    0.142110    1.624450
     30          8           0        0.473282   -0.912152    1.975343
     31          6           0        2.398478    0.464200    1.621530
     32          7           0        3.500051   -0.290541    2.000741
     33          6           0        4.519602    0.497363    1.791108
     34          1           0        5.559834    0.230658    1.980993
     35          1           0        5.673526    2.584107    0.228264
     36          1           0        4.473008    3.620752    0.609159
     37          1           0        5.542862    3.158156    1.750378
     38          1           0       -5.728717    0.693303    0.141892
     39          1           0       -5.883933    1.041772    1.862103
     40          1           0       -4.533942    1.711978    0.945744
     41          1           0       -4.702295   -3.619589    2.010581
     42          6           0       -4.224462   -2.651851    1.857660
     43          8           0       -2.028593   -3.471963    2.221922
     44          6           0       -2.801203   -2.548939    1.965240
     45          1           0       -1.297354   -1.168340    1.821254
     46          7           0       -2.299121   -1.280712    1.753633
     47          8           0       -2.478131    0.934896    1.288662
     48          6           0       -3.013359   -0.146326    1.459392
     49          1           0       -6.033083   -1.588217    1.479004
     50          6           0       -4.948133   -1.563180    1.571825
     51          6           0       -5.184684    0.857809    1.060061
     52          7           0       -4.379832   -0.326376    1.372571
     53          1           0       -5.025179    3.642289   -2.239527
     54          1           0       -3.808767    3.608182   -1.152653
     55          1           0       -5.351720    3.414385   -0.656858
     56          1           0       -2.208444   -3.208970   -1.801429
     57          1           0       -3.860961   -2.907114   -2.098375
     58          7           0       -2.957360   -2.548866   -1.860904
     59          6           0       -2.760912   -1.248472   -1.633844
     60          6           0       -3.421453    1.029457   -1.442957
     61          7           0       -2.197153    1.482208   -1.125899
     62          1           0       -0.300979    0.759027   -0.839249
     63          6           0       -1.323071    0.478415   -1.089971
     64          7           0       -1.517872   -0.824674   -1.317082
     65          1           0       -6.588768    1.179927   -2.073532
     66          6           0       -5.558357    0.864785   -1.906586
     67          7           0       -5.133375   -0.371729   -1.996523
     68          6           0       -3.780039   -0.281393   -1.704907
     69          6           0       -4.700183    3.224051   -1.391318
     70          7           0       -4.575346    1.765043   -1.574990
 ---------------------------------------------------------------------

 SCF Done:  E(RwB97XD) =  -2048.71609353     A.U. after   15 cycles

 The electronic state is 1-A.
 Alpha  occ. eigenvalues --  -19.25308 -19.21472 -19.20492 -14.52635 -14.51928
 Alpha  occ. eigenvalues --  -14.49113 -14.48304 -14.48028 -14.47337 -14.46588
 Alpha  occ. eigenvalues --  -14.45977 -14.45904 -14.44496 -14.44478 -14.42860
 Alpha  occ. eigenvalues --  -14.41692 -14.41675 -14.41290 -14.40626 -14.40461
 Alpha  occ. eigenvalues --  -10.44843 -10.40898 -10.40139 -10.39600 -10.38308
 Alpha  occ. eigenvalues --  -10.38019 -10.37454 -10.37289 -10.35827 -10.35685
 Alpha  occ. eigenvalues --  -10.34532 -10.34531 -10.34340 -10.33806 -10.33698
 Alpha  occ. eigenvalues --  -10.33208 -10.32982 -10.32973 -10.31571 -10.30582
 Alpha  occ. eigenvalues --  -10.30005 -10.28761 -10.27755  -1.19160  -1.15647
 Alpha  occ. eigenvalues --   -1.13011  -1.12535  -1.11669  -1.10228  -1.09530
 Alpha  occ. eigenvalues --   -1.08858  -1.08271  -1.05442  -1.05011  -1.02013
 Alpha  occ. eigenvalues --   -1.01395  -1.00955  -0.99300  -0.98369  -0.97378
 Alpha  occ. eigenvalues --   -0.97013  -0.96168  -0.93136  -0.90579  -0.88076
 Alpha  occ. eigenvalues --   -0.86419  -0.84363  -0.83686  -0.83345  -0.82746
 Alpha  occ. eigenvalues --   -0.81908  -0.78405  -0.77392  -0.75310  -0.74276
 Alpha  occ. eigenvalues --   -0.73428  -0.73227  -0.72932  -0.71448  -0.70763
 Alpha  occ. eigenvalues --   -0.67161  -0.66981  -0.66777  -0.66107  -0.64629
 Alpha  occ. eigenvalues --   -0.64228  -0.63517  -0.63164  -0.62584  -0.61654
 Alpha  occ. eigenvalues --   -0.61395  -0.60901  -0.60774  -0.59839  -0.59182
 Alpha  occ. eigenvalues --   -0.58375  -0.57935  -0.57473  -0.56984  -0.56343
 Alpha  occ. eigenvalues --   -0.55991  -0.55888  -0.55597  -0.54412  -0.54154
 Alpha  occ. eigenvalues --   -0.54090  -0.53706  -0.53468  -0.53167  -0.52848
 Alpha  occ. eigenvalues --   -0.52536  -0.52295  -0.52164  -0.51238  -0.50519
 Alpha  occ. eigenvalues --   -0.49906  -0.49722  -0.49278  -0.49052  -0.48682
 Alpha  occ. eigenvalues --   -0.48411  -0.48265  -0.47996  -0.47430  -0.47073
 Alpha  occ. eigenvalues --   -0.46953  -0.45628  -0.45034  -0.44413  -0.43071
 Alpha  occ. eigenvalues --   -0.41285  -0.40914  -0.39302  -0.38047  -0.37994
 Alpha  occ. eigenvalues --   -0.37876  -0.37140  -0.36772  -0.36085  -0.34888
 Alpha  occ. eigenvalues --   -0.34474  -0.33920  -0.33760  -0.33288  -0.32776
 Alpha  occ. eigenvalues --   -0.32387  -0.32364  -0.31847  -0.31629  -0.31001
 Alpha  occ. eigenvalues --   -0.30680  -0.29336  -0.25855  -0.24969
 Alpha virt. eigenvalues --    0.03359   0.03692   0.06720   0.07046   0.08587
 Alpha virt. eigenvalues --    0.08859   0.09951   0.10414   0.11335   0.12204
 Alpha virt. eigenvalues --    0.13069   0.13963   0.14043   0.14295   0.14892

 Mulliken charges:
               1
     1  N   -0.312319
     2  C    0.176054
     3  C    0.073783
     4  N   -0.259353
     5  C    0.135510
     6  H    0.026953
     7  N   -0.285342
     8  C    0.147118
     9  H    0.016208
    10  N   -0.285248
    11  C    0.234194
    12  C    0.089220
    13  N   -0.053704
    14  H    0.108074
    15  H    0.084229
    16  H    0.028424
    17  H    0.031754
    18  H    0.026958
    19  N   -0.262138
    20  C    0.177707
    21  C    0.183579
    22  N   -0.097333
    23  H    0.111516
    24  H    0.112293
    25  N   -0.288289
    26  C    0.210978
    27  N   -0.141965
    28  H    0.122960
    29  C    0.174193
    30  O   -0.321851
    31  C    0.013983
    32  N   -0.218386
    33  C    0.117698
    34  H    0.013204
    35  H    0.018741
    36  H    0.026082
    37  H    0.019787
    38  H    0.046333
    39  H    0.056191
    40  H    0.066598
    41  H    0.026822
    42  C   -0.111847
    43  O   -0.267135
    44  C    0.175005
    45  H    0.130509
    46  N   -0.121505
    47  O   -0.329106
    48  C    0.331777
    49  H    0.045748
    50  C    0.171169
    51  C    0.052336
    52  N   -0.278898
    53  H    0.038256
    54  H    0.036796
    55  H    0.025411
    56  H    0.123401
    57  H    0.119337
    58  N   -0.063509
    59  C    0.101437
    60  C    0.198817
    61  N   -0.255737
    62  H    0.051797
    63  C    0.133910
    64  N   -0.295623
    65  H    0.039988
    66  C    0.106607
    67  N   -0.248012
    68  C    0.045064
    69  C    0.182123
    70  N   -0.289330
 Sum of Mulliken charges =  -0.00000

 Dipole moment (field-independent basis, Debye):
    X=             -6.5353    Y=              6.5560    Z=             -3.9589  Tot=             10.0680
 Quadrupole moment (field-independent basis, Debye-Ang):
   XX=           -148.3777   YY=           -228.1306   ZZ=           -258.7401
   XY=             -7.9136   XZ=              0.5522   YZ=             13.5911

 Normal termination of Gaussian 16 at Sun Jan 21 13:57:56 2018.
