 Gaussian 16, Revision A.03,
 Gaussian 16:  EM64L-G16RevA.03 25-Dec-2016

 ---------------------------------------
 #p wb97xd/cc-pvdz sp scf=(maxcycles=20)
 ---------------------------------------

 ------------------
 Base pair stacking
 ------------------
 Symbolic Z-matrix:
 Charge =  0 Multiplicity = 1

                         Standard orientation:
 ---------------------------------------------------------------------
 Center     Atomic      Atomic             Coordinates (Angstroms)
 Number     Number       Type             X           Y           Z
 ---------------------------------------------------------------------
      1          7           0       -6.407171   -1.453026    0.469010
      2          6           0       -7.761122   -0.936168    0.747737
      3          6           0       -4.226869   -1.740641    0.439451
      4          7           0       -4.760178   -2.732428   -0.370903
      5          6           0       -6.052379   -2.519464   -0.320655
      6          1           0       -6.799808   -3.115430   -0.845165
      7          7           0       -2.718071   -0.370661    1.626732
      8          6           0       -3.788454    0.306967    2.054158
      9          1           0       -3.574538    1.144058    2.717320
     10          7           0       -5.077351    0.106746    1.786639
     11          6           0       -5.229883   -0.944302    0.964177
     12          6           0       -2.904846   -1.422916    0.800330
     13          7           0       -1.837615   -2.100582    0.372593
     14          1           0       -1.928774   -2.886303   -0.240236
     15          1           0       -0.911077   -1.846139    0.649964
     16          1           0       -8.309644   -1.651227    1.181304
     17          1           0       -7.698509   -0.148311    1.359691
     18          1           0       -8.196514   -0.657427   -0.108255
     19          7           0       -3.419209    2.429776   -1.267958
     20          6           0       -2.053724    2.345583   -1.139864
     21          6           0       -4.240235    3.601677   -0.902912
     22          7           0        0.974677    3.774623   -0.218788
     23          1           0        1.939809    3.514576   -0.207310
     24          1           0        0.747356    4.689783    0.115158
     25          7           0       -1.239172    3.311515   -0.662850
     26          6           0        0.027129    2.934557   -0.661897
     27          7           0        0.464372    1.706091   -1.094564
     28          1           0        1.451708    1.504186   -1.057552
     29          6           0       -0.355897    0.696991   -1.589282
     30          8           0        0.139885   -0.376322   -1.953876
     31          6           0       -1.719173    1.087253   -1.596448
     32          7           0       -2.851842    0.395376   -2.002993
     33          6           0       -3.833726    1.228974   -1.790333
     34          1           0       -4.883385    1.017890   -1.997521
     35          1           0       -4.902740    3.341147   -0.201480
     36          1           0       -3.647645    4.323714   -0.548260
     37          1           0       -4.724486    3.936127   -1.710659
     38          1           0        6.389935    0.884471   -0.017093
     39          1           0        6.584055    1.256658   -1.728371
     40          1           0        5.257354    1.976033   -0.815290
     41          1           0        5.175163   -3.336627   -1.980060
     42          6           0        4.743904   -2.349327   -1.814253
     43          8           0        2.514948   -3.052352   -2.220001
     44          6           0        3.328964   -2.173799   -1.936584
     45          1           0        1.893582   -0.723055   -1.783892
     46          7           0        2.887614   -0.886329   -1.706645
     47          8           0        3.170133    1.308631   -1.197211
     48          6           0        3.653317    0.205487   -1.382322
     49          1           0        6.597988   -1.384143   -1.394007
     50          6           0        5.516884   -1.303484   -1.499100
     51          6           0        5.866429    1.092840   -0.938289
     52          7           0        5.007989   -0.043859   -1.282885
     53          1           0        4.338474    2.011858    4.312069
     54          1           0        3.121865    2.592769    3.393100
     55          1           0        4.666328    2.728430    2.882916
     56          1           0        1.587288   -3.393416    0.036609
     57          1           0        3.237000   -3.300858    0.460856
     58          7           0        2.329885   -2.878557    0.465117
     59          6           0        2.120846   -1.681954    1.017954
     60          6           0        2.759427    0.304594    2.161435
     61          7           0        1.530680    0.847276    2.152476
     62          1           0       -0.358628    0.400534    1.495551
     63          6           0        0.666231    0.035472    1.546990
     64          7           0        0.873637   -1.163387    0.992657
     65          1           0        5.925502    0.095136    2.781335
     66          6           0        4.898068   -0.077272    2.459497
     67          7           0        4.485003   -1.148379    1.827206
     68          6           0        3.130702   -0.919145    1.632140
     69          6           0        4.017042    2.148414    3.375037
     70          7           0        3.906295    0.843505    2.694608
 ---------------------------------------------------------------------

 SCF Done:  E(RwB97XD) =  -2048.74614098     A.U. after   15 cycles

 The electronic state is 1-A.
 Alpha  occ. eigenvalues --  -19.26078 -19.22179 -19.20780 -14.52585 -14.51644
 Alpha  occ. eigenvalues --  -14.48914 -14.48774 -14.48044 -14.47068 -14.46807
 Alpha  occ. eigenvalues --  -14.46345 -14.44722 -14.43176 -14.43031 -14.42121
 Alpha  occ. eigenvalues --  -14.42103 -14.41474 -14.41044 -14.40879 -14.40242
 Alpha  occ. eigenvalues --  -10.45692 -10.41338 -10.40437 -10.38640 -10.38350
 Alpha  occ. eigenvalues --  -10.37964 -10.37217 -10.36216 -10.35516 -10.35420
 Alpha  occ. eigenvalues --  -10.34768 -10.34397 -10.34154 -10.33439 -10.33393
 Alpha  occ. eigenvalues --  -10.33339 -10.33181 -10.31608 -10.31209 -10.31129
 Alpha  occ. eigenvalues --  -10.30755 -10.28567 -10.28164  -1.19639  -1.14324
 Alpha  occ. eigenvalues --   -1.13421  -1.13321  -1.11460  -1.10635  -1.09474
 Alpha  occ. eigenvalues --   -1.08685  -1.08018  -1.05045  -1.03562  -1.02745
 Alpha  occ. eigenvalues --   -1.00439  -1.00082  -0.99873  -0.98635  -0.97041
 Alpha  occ. eigenvalues --   -0.96595  -0.95619  -0.92687  -0.91177  -0.86723
 Alpha  occ. eigenvalues --   -0.85143  -0.84141  -0.84054  -0.83869  -0.82467
 Alpha  occ. eigenvalues --   -0.82434  -0.79037  -0.75987  -0.74684  -0.73796
 Alpha  occ. eigenvalues --   -0.73736  -0.73563  -0.72952  -0.71120  -0.69347
 Alpha  occ. eigenvalues --   -0.67485  -0.66742  -0.66346  -0.65690  -0.64626
 Alpha  occ. eigenvalues --   -0.63863  -0.63176  -0.62776  -0.62707  -0.61836
 Alpha  occ. eigenvalues --   -0.60298  -0.60258  -0.59641  -0.59463  -0.58709
 Alpha  occ. eigenvalues --   -0.58549  -0.58487  -0.56723  -0.56593  -0.56453
 Alpha  occ. eigenvalues --   -0.56148  -0.55403  -0.54707  -0.54578  -0.54455
 Alpha  occ. eigenvalues --   -0.53754  -0.53579  -0.53017  -0.52790  -0.52682
 Alpha  occ. eigenvalues --   -0.52628  -0.51887  -0.51870  -0.50920  -0.50297
 Alpha  occ. eigenvalues --   -0.50274  -0.49666  -0.49469  -0.49301  -0.49006
 Alpha  occ. eigenvalues --   -0.48657  -0.48411  -0.47819  -0.47599  -0.47471
 Alpha  occ. eigenvalues --   -0.47038  -0.45551  -0.45086  -0.44153  -0.43374
 Alpha  occ. eigenvalues --   -0.41245  -0.39789  -0.39627  -0.37354  -0.37316
 Alpha  occ. eigenvalues --   -0.37240  -0.36758  -0.36562  -0.36001  -0.34277
 Alpha  occ. eigenvalues --   -0.33940  -0.33592  -0.33541  -0.33450  -0.33134
 Alpha  occ. eigenvalues --   -0.32780  -0.32382  -0.32192  -0.31940  -0.31039
 Alpha  occ. eigenvalues --   -0.30460  -0.28666  -0.25819  -0.25466
 Alpha virt. eigenvalues --    0.02760   0.05080   0.07709   0.07975   0.08643
 Alpha virt. eigenvalues --    0.08962   0.09671   0.10833   0.10965   0.11884
 Alpha virt. eigenvalues --    0.13084   0.13957   0.14602   0.14623   0.15590

 Mulliken charges:
               1
     1  N   -0.311313
     2  C    0.180412
     3  C    0.051933
     4  N   -0.254459
     5  C    0.129847
     6  H    0.026105
     7  N   -0.289918
     8  C    0.132472
     9  H    0.012513
    10  N   -0.291632
    11  C    0.230107
    12  C    0.105582
    13  N   -0.044464
    14  H    0.111157
    15  H    0.092084
    16  H    0.026663
    17  H    0.033618
    18  H    0.023221
    19  N   -0.309231
    20  C    0.256089
    21  C    0.179961
    22  N   -0.119474
    23  H    0.113287
    24  H    0.117549
    25  N   -0.309353
    26  C    0.244054
    27  N   -0.143401
    28  H    0.118144
    29  C    0.176773
    30  O   -0.324380
    31  C   -0.006125
    32  N   -0.224537
    33  C    0.130657
    34  H    0.024551
    35  H    0.032094
    36  H    0.028205
    37  H    0.022947
    38  H    0.054195
    39  H    0.061845
    40  H    0.072565
    41  H    0.027953
    42  C   -0.111163
    43  O   -0.282685
    44  C    0.149289
    45  H    0.137568
    46  N   -0.119220
    47  O   -0.346595
    48  C    0.350434
    49  H    0.047555
    50  C    0.192653
    51  C    0.041736
    52  N   -0.283601
    53  H    0.032684
    54  H    0.041001
    55  H    0.022011
    56  H    0.128800
    57  H    0.114200
    58  N   -0.037991
    59  C    0.097694
    60  C    0.249335
    61  N   -0.275665
    62  H    0.035330
    63  C    0.164198
    64  N   -0.302431
    65  H    0.031834
    66  C    0.122101
    67  N   -0.257121
    68  C   -0.000914
    69  C    0.180385
    70  N   -0.309717
 Sum of Mulliken charges =  -0.00000

 Dipole moment (field-independent basis, Debye):
    X=              6.9693    Y=              6.3225    Z=              2.8169  Tot=              9.8224
 Quadrupole moment (field-independent basis, Debye-Ang):
   XX=           -144.4392   YY=           -224.1234   ZZ=           -254.2248
   XY=              6.9091   XZ=             10.6754   YZ=             -1.3067

 Normal termination of Gaussian 16 at Sun Jan 21 11:12:26 2018.
