 Gaussian 16, Revision A.03,
 Gaussian 16:  EM64L-G16RevA.03 25-Dec-2016

 ---------------------------------------
 #p wb97xd/cc-pvdz sp scf=(maxcycles=20)
 ---------------------------------------

 ------------------
 Base pair stacking
 ------------------
 Symbolic Z-matrix:
 Charge =  0 Multiplicity = 1

                         Standard orientation:
 ---------------------------------------------------------------------
 Center     Atomic      Atomic             Coordinates (Angstroms)
 Number     Number       Type             X           Y           Z
 ---------------------------------------------------------------------
      1          7           0       -7.197467   -1.127141    0.078921
      2          6           0       -8.541799   -0.534954    0.220666
      3          6           0       -5.033156   -1.495420    0.211077
      4          7           0       -5.561541   -2.546682   -0.524028
      5          6           0       -6.844301   -2.282734   -0.574227
      6          1           0       -7.585591   -2.902848   -1.079108
      7          7           0       -3.536922   -0.064263    1.340691
      8          6           0       -4.599962    0.692973    1.630748
      9          1           0       -4.388439    1.586675    2.216255
     10          7           0       -5.879049    0.512831    1.307646
     11          6           0       -6.029442   -0.612453    0.589642
     12          6           0       -3.721302   -1.189913    0.616825
     13          7           0       -2.661389   -1.947105    0.326271
     14          1           0       -2.751121   -2.788941   -0.207090
     15          1           0       -1.742016   -1.698862    0.631664
     16          1           0       -9.143798   -1.180140    0.691311
     17          1           0       -8.480403    0.309954    0.751231
     18          1           0       -8.915955   -0.331896   -0.684187
     19          7           0       -2.498884    2.370741   -1.563387
     20          6           0       -1.147615    2.250811   -1.344911
     21          6           0       -3.288677    3.603579   -1.370891
     22          7           0        1.881950    3.657423   -0.393669
     23          1           0        2.832981    3.365071   -0.297164
     24          1           0        1.675240    4.610239   -0.169747
     25          7           0       -0.320987    3.231163   -0.921073
     26          6           0        0.926083    2.810551   -0.804789
     27          7           0        1.334457    1.528376   -1.081877
     28          1           0        2.308660    1.295670   -0.964639
     29          6           0        0.501282    0.503467   -1.519200
     30          8           0        0.970799   -0.619501   -1.741064
     31          6           0       -0.841604    0.940180   -1.648879
     32          7           0       -1.977896    0.251151   -2.050125
     33          6           0       -2.933913    1.137640   -1.983939
     34          1           0       -3.978225    0.944325   -2.231551
     35          1           0       -4.000180    3.442347   -0.687822
     36          1           0       -2.686904    4.336777   -1.056968
     37          1           0       -3.711926    3.868841   -2.236516
     38          1           0        7.149507    0.609224    0.430954
     39          1           0        7.455525    0.792509   -1.294562
     40          1           0        6.111175    1.651513   -0.542118
     41          1           0        5.869212   -3.747491   -1.158493
     42          6           0        5.471612   -2.733214   -1.121280
     43          8           0        3.241252   -3.393338   -1.586942
     44          6           0        4.074568   -2.520111   -1.346410
     45          1           0        2.695792   -1.010066   -1.430547
     46          7           0        3.676044   -1.200416   -1.276910
     47          8           0        4.022365    1.024132   -0.979206
     48          6           0        4.467920   -0.109195   -1.020567
     49          1           0        7.338357   -1.797388   -0.690805
     50          6           0        6.269311   -1.688908   -0.868876
     51          6           0        6.688145    0.738712   -0.536744
     52          7           0        5.803002   -0.395868   -0.814233
     53          1           0        3.451681    2.328433    4.189670
     54          1           0        2.314652    2.853616    3.144002
     55          1           0        3.889811    2.878703    2.717034
     56          1           0        0.718991   -3.391837    0.332666
     57          1           0        2.344573   -3.315382    0.844280
     58          7           0        1.457411   -2.862232    0.750266
     59          6           0        1.268550   -1.607422    1.163732
     60          6           0        1.925408    0.463565    2.133926
     61          7           0        0.723293    1.046670    1.994954
     62          1           0       -1.143211    0.602537    1.274162
     63          6           0       -0.139319    0.207824    1.424735
     64          7           0        0.047916   -1.049325    1.009906
     65          1           0        5.039693    0.205213    2.962567
     66          6           0        4.025663    0.037498    2.598508
     67          7           0        3.603803   -1.078287    2.055605
     68          6           0        2.273632   -0.821647    1.756430
     69          6           0        3.189733    2.377535    3.225841
     70          7           0        3.062213    1.013349    2.677433
 ---------------------------------------------------------------------

 SCF Done:  E(RwB97XD) =  -2048.74895174     A.U. after   15 cycles

 The electronic state is 1-A.
 Alpha  occ. eigenvalues --  -19.26099 -19.22370 -19.20833 -14.52592 -14.50978
 Alpha  occ. eigenvalues --  -14.49372 -14.48773 -14.48025 -14.47126 -14.47113
 Alpha  occ. eigenvalues --  -14.45582 -14.44004 -14.42402 -14.42370 -14.42221
 Alpha  occ. eigenvalues --  -14.42212 -14.42049 -14.41448 -14.40876 -14.40640
 Alpha  occ. eigenvalues --  -10.45684 -10.41465 -10.40412 -10.38460 -10.37846
 Alpha  occ. eigenvalues --  -10.37802 -10.36581 -10.35858 -10.35690 -10.35457
 Alpha  occ. eigenvalues --  -10.34690 -10.34478 -10.33978 -10.33945 -10.33604
 Alpha  occ. eigenvalues --  -10.33316 -10.32930 -10.31455 -10.31133 -10.30862
 Alpha  occ. eigenvalues --  -10.30733 -10.29146 -10.28267  -1.19626  -1.13649
 Alpha  occ. eigenvalues --   -1.13405  -1.13371  -1.11968  -1.10691  -1.09499
 Alpha  occ. eigenvalues --   -1.08828  -1.07148  -1.05484  -1.02741  -1.02651
 Alpha  occ. eigenvalues --   -1.00862  -1.00085  -0.99362  -0.98695  -0.97498
 Alpha  occ. eigenvalues --   -0.96621  -0.94784  -0.93095  -0.91136  -0.86043
 Alpha  occ. eigenvalues --   -0.84547  -0.84475  -0.84196  -0.83945  -0.82851
 Alpha  occ. eigenvalues --   -0.82492  -0.79011  -0.75237  -0.74736  -0.73898
 Alpha  occ. eigenvalues --   -0.73537  -0.73400  -0.72953  -0.71582  -0.68588
 Alpha  occ. eigenvalues --   -0.67602  -0.66780  -0.66714  -0.64916  -0.64612
 Alpha  occ. eigenvalues --   -0.63894  -0.63194  -0.62838  -0.62380  -0.61966
 Alpha  occ. eigenvalues --   -0.60600  -0.59871  -0.59659  -0.58797  -0.58727
 Alpha  occ. eigenvalues --   -0.58447  -0.57883  -0.56960  -0.56870  -0.56616
 Alpha  occ. eigenvalues --   -0.56185  -0.55728  -0.54573  -0.54421  -0.53862
 Alpha  occ. eigenvalues --   -0.53788  -0.53580  -0.53053  -0.52753  -0.52441
 Alpha  occ. eigenvalues --   -0.52190  -0.51967  -0.51329  -0.51206  -0.50658
 Alpha  occ. eigenvalues --   -0.50329  -0.49651  -0.49525  -0.49057  -0.48761
 Alpha  occ. eigenvalues --   -0.48416  -0.48316  -0.47851  -0.47686  -0.47467
 Alpha  occ. eigenvalues --   -0.47413  -0.45593  -0.45026  -0.44160  -0.42954
 Alpha  occ. eigenvalues --   -0.41714  -0.39667  -0.39111  -0.37711  -0.37448
 Alpha  occ. eigenvalues --   -0.37383  -0.36560  -0.35864  -0.35490  -0.34712
 Alpha  occ. eigenvalues --   -0.34104  -0.34032  -0.33519  -0.32968  -0.32808
 Alpha  occ. eigenvalues --   -0.32494  -0.32196  -0.32113  -0.31975  -0.31529
 Alpha  occ. eigenvalues --   -0.30811  -0.27978  -0.26247  -0.25614
 Alpha virt. eigenvalues --    0.02988   0.05590   0.07440   0.08278   0.08720
 Alpha virt. eigenvalues --    0.09232   0.09610   0.10404   0.11084   0.12316
 Alpha virt. eigenvalues --    0.12698   0.13528   0.14463   0.14591   0.16172

 Mulliken charges:
               1
     1  N   -0.310466
     2  C    0.180731
     3  C    0.030338
     4  N   -0.256406
     5  C    0.131774
     6  H    0.028098
     7  N   -0.285470
     8  C    0.127253
     9  H    0.015016
    10  N   -0.288770
    11  C    0.234414
    12  C    0.107358
    13  N   -0.040908
    14  H    0.107826
    15  H    0.089612
    16  H    0.027207
    17  H    0.035624
    18  H    0.025354
    19  N   -0.307428
    20  C    0.245699
    21  C    0.180522
    22  N   -0.124174
    23  H    0.112722
    24  H    0.118168
    25  N   -0.304114
    26  C    0.244430
    27  N   -0.130210
    28  H    0.117928
    29  C    0.162422
    30  O   -0.324130
    31  C   -0.005704
    32  N   -0.224697
    33  C    0.130866
    34  H    0.030140
    35  H    0.033068
    36  H    0.027798
    37  H    0.023656
    38  H    0.056621
    39  H    0.062479
    40  H    0.072202
    41  H    0.030627
    42  C   -0.098813
    43  O   -0.281830
    44  C    0.172333
    45  H    0.136521
    46  N   -0.129984
    47  O   -0.353986
    48  C    0.361832
    49  H    0.047637
    50  C    0.178029
    51  C    0.040225
    52  N   -0.293673
    53  H    0.030836
    54  H    0.040751
    55  H    0.017684
    56  H    0.119037
    57  H    0.118258
    58  N   -0.036122
    59  C    0.109896
    60  C    0.240821
    61  N   -0.267377
    62  H    0.039530
    63  C    0.152434
    64  N   -0.301373
    65  H    0.024618
    66  C    0.125236
    67  N   -0.261379
    68  C    0.011469
    69  C    0.179608
    70  N   -0.309696
 Sum of Mulliken charges =  -0.00000

 Dipole moment (field-independent basis, Debye):
    X=              6.7825    Y=              6.0896    Z=              2.4197  Tot=              9.4308
 Quadrupole moment (field-independent basis, Debye-Ang):
   XX=           -138.7900   YY=           -225.4667   ZZ=           -251.2513
   XY=             10.7077   XZ=             18.6580   YZ=             -3.2780

 Normal termination of Gaussian 16 at Sun Jan 21 13:34:11 2018.
