 Gaussian 16, Revision A.03,
 Gaussian 16:  EM64L-G16RevA.03 25-Dec-2016

 ---------------------------------------
 #p wb97xd/cc-pvdz sp scf=(maxcycles=20)
 ---------------------------------------

 ------------------
 Base pair stacking
 ------------------
 Symbolic Z-matrix:
 Charge =  0 Multiplicity = 1

                         Standard orientation:
 ---------------------------------------------------------------------
 Center     Atomic      Atomic             Coordinates (Angstroms)
 Number     Number       Type             X           Y           Z
 ---------------------------------------------------------------------
      1          7           0        4.554990   -1.837674   -1.682177
      2          6           0        5.891924   -1.401697   -2.129982
      3          6           0        2.391931   -1.940417   -1.297547
      4          7           0        2.940787   -3.083915   -0.735500
      5          6           0        4.221983   -2.976243   -0.989727
      6          1           0        4.976440   -3.705220   -0.692512
      7          7           0        0.865844   -0.285207   -2.000624
      8          6           0        1.917768    0.355440   -2.520820
      9          1           0        1.689431    1.297408   -3.017612
     10          7           0        3.203364    0.008817   -2.519486
     11          6           0        3.374641   -1.162561   -1.884683
     12          6           0        1.071196   -1.461271   -1.368325
     13          7           0        0.022401   -2.102275   -0.848403
     14          1           0        0.127698   -2.975704   -0.371680
     15          1           0       -0.903810   -1.731505   -0.917632
     16          1           0        6.278658   -2.087790   -2.746347
     17          1           0        5.814976   -0.528721   -2.610735
     18          1           0        6.491869   -1.292114   -1.337486
     19          7           0        5.343560    1.801029    0.678812
     20          6           0        3.975520    1.857422    0.794360
     21          6           0        6.208762    2.910147    0.229391
     22          7           0        1.002921    3.629577    0.503116
     23          1           0        0.028355    3.465013    0.652736
     24          1           0        1.264937    4.538811    0.178520
     25          7           0        3.198102    2.926920    0.518960
     26          6           0        1.918072    2.674539    0.727389
     27          7           0        1.434326    1.467788    1.171517
     28          1           0        0.439779    1.364798    1.302847
     29          6           0        2.215816    0.353680    1.461178
     30          8           0        1.679450   -0.688813    1.856466
     31          6           0        3.593282    0.609522    1.242068
     32          7           0        4.699098   -0.213735    1.404325
     33          6           0        5.712212    0.533762    1.059295
     34          1           0        6.753350    0.209263    1.063929
     35          1           0        6.707621    2.634365   -0.591514
     36          1           0        5.643914    3.707898    0.022493
     37          1           0        6.858927    3.141849    0.952182
     38          1           0       -4.641615    1.294130    1.138295
     39          1           0       -4.494467    1.568403    2.872589
     40          1           0       -3.277728    2.215947    1.771862
     41          1           0       -3.560954   -3.145700    2.643817
     42          6           0       -3.062361   -2.195678    2.451274
     43          8           0       -0.884622   -3.135499    2.415117
     44          6           0       -1.637179   -2.165732    2.325607
     45          1           0       -0.103898   -0.852980    1.987904
     46          7           0       -1.107863   -0.914287    2.082782
     47          8           0       -1.239095    1.326729    1.739519
     48          6           0       -1.797503    0.265353    1.954743
     49          1           0       -4.847683   -1.030612    2.418505
     50          6           0       -3.762425   -1.061592    2.331316
     51          6           0       -3.946745    1.389274    1.959364
     52          7           0       -3.167577    0.154772    2.088488
     53          1           0       -6.235040    3.062296   -3.027264
     54          1           0       -4.825940    3.393841   -2.274518
     55          1           0       -6.239380    3.582204   -1.480295
     56          1           0       -3.419410   -3.135490   -0.073407
     57          1           0       -5.096512   -2.840862   -0.176563
     58          7           0       -4.162023   -2.501190   -0.288681
     59          6           0       -3.918078   -1.257446   -0.706737
     60          6           0       -4.516496    0.924749   -1.442689
     61          7           0       -3.251436    1.353740   -1.584077
     62          1           0       -1.339631    0.655073   -1.344352
     63          6           0       -2.392502    0.390102   -1.257673
     64          7           0       -2.634853   -0.856225   -0.838736
     65          1           0       -7.745209    1.079803   -1.502564
     66          6           0       -6.703698    0.774632   -1.397365
     67          7           0       -6.311051   -0.410155   -0.997627
     68          6           0       -4.926319   -0.328433   -1.021849
     69          6           0       -5.748848    3.029358   -2.154033
     70          7           0       -5.670057    1.632707   -1.683736
 ---------------------------------------------------------------------

 SCF Done:  E(RwB97XD) =  -2048.74715909     A.U. after   15 cycles

 The electronic state is 1-A.
 Alpha  occ. eigenvalues --  -19.25518 -19.21793 -19.20726 -14.52617 -14.52061
 Alpha  occ. eigenvalues --  -14.49254 -14.48270 -14.48121 -14.47433 -14.46994
 Alpha  occ. eigenvalues --  -14.46826 -14.45543 -14.44654 -14.44602 -14.42373
 Alpha  occ. eigenvalues --  -14.42198 -14.41520 -14.40833 -14.40623 -14.40357
 Alpha  occ. eigenvalues --  -10.45087 -10.41424 -10.40189 -10.39867 -10.38407
 Alpha  occ. eigenvalues --  -10.38111 -10.37457 -10.37422 -10.36113 -10.35391
 Alpha  occ. eigenvalues --  -10.34713 -10.34681 -10.33943 -10.33912 -10.33428
 Alpha  occ. eigenvalues --  -10.33000 -10.32998 -10.32959 -10.31333 -10.30683
 Alpha  occ. eigenvalues --  -10.30530 -10.28477 -10.28189  -1.19057  -1.15387
 Alpha  occ. eigenvalues --   -1.13400  -1.12791  -1.10961  -1.10752  -1.09654
 Alpha  occ. eigenvalues --   -1.08902  -1.08716  -1.05089  -1.04957  -1.02100
 Alpha  occ. eigenvalues --   -1.01111  -1.00356  -0.99913  -0.98797  -0.97169
 Alpha  occ. eigenvalues --   -0.97001  -0.96402  -0.92664  -0.90709  -0.87842
 Alpha  occ. eigenvalues --   -0.86018  -0.84506  -0.83517  -0.83226  -0.82868
 Alpha  occ. eigenvalues --   -0.81921  -0.78560  -0.77238  -0.75067  -0.74944
 Alpha  occ. eigenvalues --   -0.73833  -0.73005  -0.72629  -0.70837  -0.70591
 Alpha  occ. eigenvalues --   -0.67632  -0.67018  -0.66223  -0.66039  -0.64598
 Alpha  occ. eigenvalues --   -0.64407  -0.63703  -0.62819  -0.62492  -0.62030
 Alpha  occ. eigenvalues --   -0.60773  -0.60531  -0.60313  -0.59517  -0.59220
 Alpha  occ. eigenvalues --   -0.59043  -0.58554  -0.57124  -0.56341  -0.55881
 Alpha  occ. eigenvalues --   -0.55786  -0.55499  -0.55261  -0.54492  -0.54233
 Alpha  occ. eigenvalues --   -0.53792  -0.53741  -0.53616  -0.53209  -0.53042
 Alpha  occ. eigenvalues --   -0.52797  -0.52049  -0.51395  -0.50491  -0.50361
 Alpha  occ. eigenvalues --   -0.50199  -0.49850  -0.49527  -0.49303  -0.49024
 Alpha  occ. eigenvalues --   -0.48671  -0.48445  -0.48187  -0.48080  -0.47331
 Alpha  occ. eigenvalues --   -0.46670  -0.45835  -0.45680  -0.44711  -0.42767
 Alpha  occ. eigenvalues --   -0.41015  -0.40877  -0.39198  -0.38135  -0.37789
 Alpha  occ. eigenvalues --   -0.37595  -0.37488  -0.36806  -0.35697  -0.35006
 Alpha  occ. eigenvalues --   -0.34578  -0.34191  -0.33304  -0.33192  -0.33048
 Alpha  occ. eigenvalues --   -0.32854  -0.32748  -0.32059  -0.31769  -0.30559
 Alpha  occ. eigenvalues --   -0.30293  -0.29900  -0.25885  -0.25551
 Alpha virt. eigenvalues --    0.02795   0.04075   0.06649   0.08179   0.08749
 Alpha virt. eigenvalues --    0.09007   0.09577   0.10364   0.11147   0.11949
 Alpha virt. eigenvalues --    0.13148   0.13739   0.14232   0.14705   0.14928

 Mulliken charges:
               1
     1  N   -0.305381
     2  C    0.182688
     3  C    0.053995
     4  N   -0.253081
     5  C    0.150963
     6  H    0.026540
     7  N   -0.295670
     8  C    0.128602
     9  H    0.009553
    10  N   -0.283688
    11  C    0.242533
    12  C    0.084448
    13  N   -0.062071
    14  H    0.117720
    15  H    0.086897
    16  H    0.024215
    17  H    0.029648
    18  H    0.019224
    19  N   -0.310197
    20  C    0.263700
    21  C    0.182476
    22  N   -0.124165
    23  H    0.119389
    24  H    0.118965
    25  N   -0.312269
    26  C    0.249389
    27  N   -0.144457
    28  H    0.120931
    29  C    0.192821
    30  O   -0.319667
    31  C   -0.017730
    32  N   -0.224863
    33  C    0.113039
    34  H    0.024774
    35  H    0.025283
    36  H    0.031708
    37  H    0.025257
    38  H    0.063990
    39  H    0.058004
    40  H    0.075395
    41  H    0.019574
    42  C   -0.116125
    43  O   -0.271242
    44  C    0.169765
    45  H    0.131732
    46  N   -0.122090
    47  O   -0.351079
    48  C    0.347835
    49  H    0.043877
    50  C    0.169661
    51  C    0.041572
    52  N   -0.275696
    53  H    0.034632
    54  H    0.042114
    55  H    0.028682
    56  H    0.125343
    57  H    0.115651
    58  N   -0.050248
    59  C    0.083973
    60  C    0.223761
    61  N   -0.263452
    62  H    0.032080
    63  C    0.169997
    64  N   -0.311528
    65  H    0.039068
    66  C    0.135679
    67  N   -0.257075
    68  C    0.019982
    69  C    0.180401
    70  N   -0.305755
 Sum of Mulliken charges =  -0.00000

 Dipole moment (field-independent basis, Debye):
    X=             -6.8026    Y=              7.5677    Z=             -1.6494  Tot=             10.3086
 Quadrupole moment (field-independent basis, Debye-Ang):
   XX=           -153.1917   YY=           -223.7846   ZZ=           -254.3737
   XY=             -2.5142   XZ=            -12.2373   YZ=              6.0978

 Normal termination of Gaussian 16 at Sun Jan 21 08:37:20 2018.
