 Gaussian 16, Revision A.03,
 Gaussian 16:  EM64L-G16RevA.03 25-Dec-2016

 ---------------------------------------
 #p wb97xd/cc-pvdz sp scf=(maxcycles=20)
 ---------------------------------------

 ------------------
 Base pair stacking
 ------------------
 Symbolic Z-matrix:
 Charge =  0 Multiplicity = 1

                         Standard orientation:
 ---------------------------------------------------------------------
 Center     Atomic      Atomic             Coordinates (Angstroms)
 Number     Number       Type             X           Y           Z
 ---------------------------------------------------------------------
      1          7           0        5.190141   -1.359455   -1.432931
      2          6           0        6.548473   -0.785222   -1.489468
      3          6           0        3.004085   -1.599880   -1.407167
      4          7           0        3.536239   -2.875376   -1.286179
      5          6           0        4.831961   -2.679490   -1.306544
      6          1           0        5.579698   -3.469603   -1.232136
      7          7           0        1.495070    0.204793   -1.577382
      8          6           0        2.569560    0.996708   -1.654311
      9          1           0        2.357153    2.060151   -1.755480
     10          7           0        3.860965    0.673722   -1.625164
     11          6           0        4.011344   -0.655109   -1.498603
     12          6           0        1.679750   -1.127458   -1.450527
     13          7           0        0.608415   -1.919597   -1.373576
     14          1           0        0.697891   -2.911703   -1.279051
     15          1           0       -0.319665   -1.548578   -1.407769
     16          1           0        7.039811   -1.164516   -2.273629
     17          1           0        6.487597    0.207980   -1.584137
     18          1           0        7.042290   -1.008612   -0.649094
     19          7           0        4.750507    1.653143    1.097360
     20          6           0        3.376637    1.662065    1.076145
     21          6           0        5.617372    2.790789    0.729914
     22          7           0        0.388432    3.328922    0.481207
     23          1           0       -0.589929    3.130812    0.534203
     24          1           0        0.649930    4.246045    0.179176
     25          7           0        2.594055    2.703234    0.718925
     26          6           0        1.309112    2.406838    0.800594
     27          7           0        0.825473    1.184911    1.201206
     28          1           0       -0.173059    1.047601    1.233684
     29          6           0        1.612215    0.099342    1.573269
     30          8           0        1.075454   -0.960375    1.919145
     31          6           0        2.995003    0.402555    1.490627
     32          7           0        4.106910   -0.381309    1.766508
     33          6           0        5.122954    0.400304    1.519639
     34          1           0        6.169024    0.112303    1.629472
     35          1           0        6.204608    2.530807   -0.035834
     36          1           0        5.048742    3.567926    0.463487
     37          1           0        6.184047    3.046547    1.512392
     38          1           0       -5.207428    0.799534    0.565635
     39          1           0       -5.243035    1.082455    2.304415
     40          1           0       -3.945893    1.769666    1.326386
     41          1           0       -4.129473   -3.596727    2.195820
     42          6           0       -3.647241   -2.630317    2.048440
     43          8           0       -1.445609   -3.493740    2.234018
     44          6           0       -2.218514   -2.550984    2.064789
     45          1           0       -0.705405   -1.186314    1.873722
     46          7           0       -1.711123   -1.282378    1.868756
     47          8           0       -1.884722    0.951972    1.501647
     48          6           0       -2.424856   -0.127765    1.666271
     49          1           0       -5.459539   -1.528249    1.832007
     50          6           0       -4.370572   -1.521577    1.853217
     51          6           0       -4.601347    0.920574    1.451126
     52          7           0       -3.796804   -0.285737    1.663883
     53          1           0       -5.584826    3.711765   -2.085858
     54          1           0       -4.294779    3.703930   -1.086949
     55          1           0       -5.801259    3.560534   -0.475356
     56          1           0       -2.847220   -3.163349   -1.534607
     57          1           0       -4.511961   -2.844978   -1.727897
     58          7           0       -3.588484   -2.493027   -1.571295
     59          6           0       -3.356857   -1.187606   -1.418296
     60          6           0       -3.967864    1.108214   -1.285666
     61          7           0       -2.717441    1.552267   -1.076656
     62          1           0       -0.816753    0.808149   -0.891537
     63          6           0       -1.858190    0.535318   -1.056548
     64          7           0       -2.088208   -0.772836   -1.209581
     65          1           0       -7.169427    1.288121   -1.697774
     66          6           0       -6.134585    0.962014   -1.589598
     67          7           0       -5.735697   -0.284817   -1.652651
     68          6           0       -4.363830   -0.206244   -1.461515
     69          6           0       -5.206584    3.325856   -1.244428
     70          7           0       -5.117060    1.858098   -1.369564
 ---------------------------------------------------------------------

 SCF Done:  E(RwB97XD) =  -2048.73472990     A.U. after   15 cycles

 The electronic state is 1-A.
 Alpha  occ. eigenvalues --  -19.25166 -19.21506 -19.20455 -14.52729 -14.51890
 Alpha  occ. eigenvalues --  -14.48721 -14.48584 -14.48493 -14.47307 -14.46563
 Alpha  occ. eigenvalues --  -14.46521 -14.45909 -14.44686 -14.44510 -14.42817
 Alpha  occ. eigenvalues --  -14.41850 -14.41316 -14.41098 -14.40960 -14.40590
 Alpha  occ. eigenvalues --  -10.44855 -10.41049 -10.40341 -10.39615 -10.38317
 Alpha  occ. eigenvalues --  -10.38064 -10.37491 -10.37263 -10.36289 -10.35776
 Alpha  occ. eigenvalues --  -10.34306 -10.34265 -10.34196 -10.34053 -10.33460
 Alpha  occ. eigenvalues --  -10.33413 -10.33133 -10.32940 -10.31276 -10.30737
 Alpha  occ. eigenvalues --  -10.30656 -10.28617 -10.27991  -1.19015  -1.15712
 Alpha  occ. eigenvalues --   -1.13047  -1.12534  -1.11326  -1.10440  -1.09670
 Alpha  occ. eigenvalues --   -1.08824  -1.08411  -1.05360  -1.05149  -1.01958
 Alpha  occ. eigenvalues --   -1.01381  -1.00786  -0.99566  -0.98413  -0.97286
 Alpha  occ. eigenvalues --   -0.96985  -0.96480  -0.93055  -0.90566  -0.88056
 Alpha  occ. eigenvalues --   -0.86302  -0.84070  -0.84016  -0.83154  -0.82522
 Alpha  occ. eigenvalues --   -0.82354  -0.78380  -0.77425  -0.75266  -0.74497
 Alpha  occ. eigenvalues --   -0.73468  -0.73128  -0.72866  -0.71273  -0.70773
 Alpha  occ. eigenvalues --   -0.67264  -0.67171  -0.66553  -0.66093  -0.64643
 Alpha  occ. eigenvalues --   -0.64223  -0.63630  -0.62998  -0.62533  -0.61723
 Alpha  occ. eigenvalues --   -0.61621  -0.60870  -0.60713  -0.59845  -0.59122
 Alpha  occ. eigenvalues --   -0.58591  -0.58216  -0.57353  -0.56811  -0.56025
 Alpha  occ. eigenvalues --   -0.55954  -0.55695  -0.55534  -0.54443  -0.54086
 Alpha  occ. eigenvalues --   -0.53900  -0.53790  -0.53361  -0.53128  -0.52890
 Alpha  occ. eigenvalues --   -0.52798  -0.52069  -0.51999  -0.50804  -0.50360
 Alpha  occ. eigenvalues --   -0.50224  -0.49936  -0.49220  -0.49127  -0.48850
 Alpha  occ. eigenvalues --   -0.48567  -0.48351  -0.48098  -0.47633  -0.47132
 Alpha  occ. eigenvalues --   -0.47053  -0.45780  -0.44860  -0.44798  -0.42685
 Alpha  occ. eigenvalues --   -0.41185  -0.41081  -0.39006  -0.38103  -0.37990
 Alpha  occ. eigenvalues --   -0.37515  -0.37180  -0.37042  -0.35883  -0.35123
 Alpha  occ. eigenvalues --   -0.34661  -0.34229  -0.33682  -0.33297  -0.32832
 Alpha  occ. eigenvalues --   -0.32495  -0.32161  -0.31770  -0.31728  -0.30946
 Alpha  occ. eigenvalues --   -0.30627  -0.29727  -0.25889  -0.25423
 Alpha virt. eigenvalues --    0.03396   0.03673   0.06625   0.07803   0.09013
 Alpha virt. eigenvalues --    0.09304   0.09715   0.10028   0.10833   0.12639
 Alpha virt. eigenvalues --    0.12717   0.13920   0.14181   0.14237   0.14579

 Mulliken charges:
               1
     1  N   -0.307889
     2  C    0.175714
     3  C    0.070898
     4  N   -0.260059
     5  C    0.141951
     6  H    0.026882
     7  N   -0.283678
     8  C    0.128422
     9  H    0.017070
    10  N   -0.280555
    11  C    0.239128
    12  C    0.077372
    13  N   -0.051663
    14  H    0.110195
    15  H    0.082602
    16  H    0.028688
    17  H    0.029724
    18  H    0.023235
    19  N   -0.285530
    20  C    0.242084
    21  C    0.184455
    22  N   -0.112895
    23  H    0.118796
    24  H    0.116456
    25  N   -0.293090
    26  C    0.218464
    27  N   -0.118290
    28  H    0.111942
    29  C    0.171448
    30  O   -0.321776
    31  C   -0.009399
    32  N   -0.216993
    33  C    0.103923
    34  H    0.017669
    35  H    0.021330
    36  H    0.029569
    37  H    0.021986
    38  H    0.051922
    39  H    0.052882
    40  H    0.073883
    41  H    0.025806
    42  C   -0.102135
    43  O   -0.266913
    44  C    0.172024
    45  H    0.129689
    46  N   -0.116800
    47  O   -0.336941
    48  C    0.332251
    49  H    0.046030
    50  C    0.161725
    51  C    0.066329
    52  N   -0.278601
    53  H    0.037121
    54  H    0.039531
    55  H    0.026248
    56  H    0.122645
    57  H    0.118521
    58  N   -0.058849
    59  C    0.095386
    60  C    0.176551
    61  N   -0.254364
    62  H    0.012864
    63  C    0.174869
    64  N   -0.303249
    65  H    0.035579
    66  C    0.113593
    67  N   -0.246619
    68  C    0.037576
    69  C    0.182174
    70  N   -0.288917
 Sum of Mulliken charges =  -0.00000

 Dipole moment (field-independent basis, Debye):
    X=             -6.6662    Y=              6.9543    Z=             -2.9964  Tot=             10.0886
 Quadrupole moment (field-independent basis, Debye-Ang):
   XX=           -151.4969   YY=           -227.1838   ZZ=           -257.4106
   XY=             -3.4692   XZ=             -7.0656   YZ=             13.7668

 Normal termination of Gaussian 16 at Sun Jan 21 11:00:55 2018.
