 Gaussian 16, Revision A.03,
 Gaussian 16:  EM64L-G16RevA.03 25-Dec-2016

 ---------------------------------------
 #p wb97xd/cc-pvdz sp scf=(maxcycles=20)
 ---------------------------------------

 ------------------
 Base pair stacking
 ------------------
 Symbolic Z-matrix:
 Charge =  0 Multiplicity = 1

                         Standard orientation:
 ---------------------------------------------------------------------
 Center     Atomic      Atomic             Coordinates (Angstroms)
 Number     Number       Type             X           Y           Z
 ---------------------------------------------------------------------
      1          7           0        4.251520   -1.624625   -1.923779
      2          6           0        5.587538   -1.135097   -2.315468
      3          6           0        2.092110   -1.768400   -1.531863
      4          7           0        2.635839   -2.990006   -1.162044
      5          6           0        3.915037   -2.854495   -1.412959
      6          1           0        4.665472   -3.627050   -1.242786
      7          7           0        0.574822   -0.011371   -1.948558
      8          6           0        1.627094    0.693939   -2.376156
      9          1           0        1.402569    1.703700   -2.717085
     10          7           0        2.909046    0.340846   -2.445515
     11          6           0        3.075804   -0.916558   -2.003289
     12          6           0        0.775549   -1.273286   -1.509981
     13          7           0       -0.273599   -1.978926   -1.082747
     14          1           0       -0.171637   -2.916845   -0.749376
     15          1           0       -1.196757   -1.594331   -1.081342
     16          1           0        5.960196   -1.719816   -3.036170
     17          1           0        5.513874   -0.197239   -2.653260
     18          1           0        6.197653   -1.155362   -1.523415
     19          7           0        5.627283    1.634884    0.660260
     20          6           0        4.261973    1.686434    0.806292
     21          6           0        6.488204    2.771309    0.275487
     22          7           0        1.291609    3.483053    0.702227
     23          1           0        0.319441    3.310712    0.858552
     24          1           0        1.551050    4.412708    0.439250
     25          7           0        3.483782    2.775169    0.624275
     26          6           0        2.206980    2.511810    0.838858
     27          7           0        1.726939    1.277367    1.203840
     28          1           0        0.734707    1.167804    1.346785
     29          6           0        2.509301    0.143100    1.396773
     30          8           0        1.976384   -0.923850    1.725968
     31          6           0        3.883323    0.410421    1.169883
     32          7           0        4.988671   -0.425408    1.250492
     33          6           0        5.998009    0.342381    0.940743
     34          1           0        7.037686    0.015597    0.901525
     35          1           0        6.969994    2.554377   -0.572821
     36          1           0        5.922744    3.583468    0.137953
     37          1           0        7.153132    2.948274    1.000310
     38          1           0       -4.349170    1.122967    1.276859
     39          1           0       -4.167460    1.270474    3.023247
     40          1           0       -2.969528    1.992772    1.948719
     41          1           0       -3.257904   -3.417172    2.435652
     42          6           0       -2.759218   -2.457041    2.302672
     43          8           0       -0.586461   -3.397642    2.156050
     44          6           0       -1.336611   -2.421919    2.151685
     45          1           0        0.195240   -1.092292    1.879996
     46          7           0       -0.806954   -1.157596    1.989787
     47          8           0       -0.935566    1.102737    1.812262
     48          6           0       -1.494084    0.030072    1.960977
     49          1           0       -4.540038   -1.287851    2.389205
     50          6           0       -3.456800   -1.315367    2.278821
     51          6           0       -3.638196    1.156494    2.088923
     52          7           0       -2.861761   -0.086206    2.113095
     53          1           0       -6.503250    3.513246   -2.348874
     54          1           0       -5.082295    3.711819   -1.571984
     55          1           0       -6.484514    3.785574   -0.739865
     56          1           0       -3.716512   -3.092174   -0.433696
     57          1           0       -5.391624   -2.771354   -0.467932
     58          7           0       -4.455107   -2.426010   -0.537846
     59          6           0       -4.203443   -1.134329   -0.760103
     60          6           0       -4.788246    1.140763   -1.139174
     61          7           0       -3.520617    1.576188   -1.228368
     62          1           0       -1.613332    0.833066   -1.125255
     63          6           0       -2.667752    0.566449   -1.067281
     64          7           0       -2.917834   -0.727941   -0.844581
     65          1           0       -8.015691    1.329664   -1.132302
     66          6           0       -6.976173    1.003313   -1.089450
     67          7           0       -6.590929   -0.232498   -0.884365
     68          6           0       -5.205825   -0.159316   -0.913486
     69          6           0       -6.007384    3.340561   -1.497816
     70          7           0       -5.937288    1.887062   -1.251982
 ---------------------------------------------------------------------

 SCF Done:  E(RwB97XD) =  -2048.74966591     A.U. after   15 cycles

 The electronic state is 1-A.
 Alpha  occ. eigenvalues --  -19.25313 -19.21499 -19.20726 -14.52691 -14.51753
 Alpha  occ. eigenvalues --  -14.49371 -14.48610 -14.48180 -14.47246 -14.46968
 Alpha  occ. eigenvalues --  -14.46802 -14.45579 -14.44895 -14.44799 -14.42732
 Alpha  occ. eigenvalues --  -14.42189 -14.41668 -14.41041 -14.40712 -14.40590
 Alpha  occ. eigenvalues --  -10.44866 -10.41416 -10.40433 -10.39608 -10.38425
 Alpha  occ. eigenvalues --  -10.38171 -10.37574 -10.37284 -10.36274 -10.35640
 Alpha  occ. eigenvalues --  -10.34782 -10.34316 -10.34032 -10.33992 -10.33512
 Alpha  occ. eigenvalues --  -10.33189 -10.33142 -10.33135 -10.31439 -10.30542
 Alpha  occ. eigenvalues --  -10.30374 -10.28545 -10.28371  -1.18840  -1.15480
 Alpha  occ. eigenvalues --   -1.13423  -1.12518  -1.11044  -1.10852  -1.09835
 Alpha  occ. eigenvalues --   -1.08768  -1.08610  -1.05295  -1.05184  -1.01879
 Alpha  occ. eigenvalues --   -1.01193  -1.00617  -0.99898  -0.98834  -0.97372
 Alpha  occ. eigenvalues --   -0.97085  -0.96494  -0.92898  -0.90490  -0.87982
 Alpha  occ. eigenvalues --   -0.86101  -0.84589  -0.83610  -0.83049  -0.82855
 Alpha  occ. eigenvalues --   -0.81949  -0.78332  -0.77378  -0.75236  -0.74991
 Alpha  occ. eigenvalues --   -0.73836  -0.72835  -0.72756  -0.71017  -0.70746
 Alpha  occ. eigenvalues --   -0.67644  -0.67167  -0.66213  -0.66018  -0.64612
 Alpha  occ. eigenvalues --   -0.64540  -0.63536  -0.62812  -0.62679  -0.62041
 Alpha  occ. eigenvalues --   -0.60863  -0.60632  -0.60355  -0.59686  -0.59082
 Alpha  occ. eigenvalues --   -0.58949  -0.58529  -0.57282  -0.56480  -0.55786
 Alpha  occ. eigenvalues --   -0.55731  -0.55668  -0.55417  -0.54737  -0.54274
 Alpha  occ. eigenvalues --   -0.53888  -0.53769  -0.53446  -0.53201  -0.53085
 Alpha  occ. eigenvalues --   -0.52403  -0.51770  -0.51429  -0.50564  -0.50404
 Alpha  occ. eigenvalues --   -0.50301  -0.49965  -0.49638  -0.49296  -0.48949
 Alpha  occ. eigenvalues --   -0.48784  -0.48273  -0.48206  -0.47743  -0.47230
 Alpha  occ. eigenvalues --   -0.46787  -0.45850  -0.45599  -0.44973  -0.42859
 Alpha  occ. eigenvalues --   -0.41265  -0.40989  -0.39062  -0.38203  -0.37918
 Alpha  occ. eigenvalues --   -0.37665  -0.37484  -0.36936  -0.35464  -0.35149
 Alpha  occ. eigenvalues --   -0.34784  -0.34187  -0.33473  -0.33351  -0.33172
 Alpha  occ. eigenvalues --   -0.32785  -0.32594  -0.32076  -0.31357  -0.30677
 Alpha  occ. eigenvalues --   -0.30504  -0.30394  -0.25931  -0.25764
 Alpha virt. eigenvalues --    0.02818   0.04327   0.06403   0.07977   0.08653
 Alpha virt. eigenvalues --    0.08996   0.09576   0.10270   0.10973   0.12000
 Alpha virt. eigenvalues --    0.13395   0.13777   0.14132   0.14719   0.14893

 Mulliken charges:
               1
     1  N   -0.303671
     2  C    0.183968
     3  C    0.056412
     4  N   -0.253269
     5  C    0.153478
     6  H    0.028455
     7  N   -0.294976
     8  C    0.125923
     9  H    0.009265
    10  N   -0.279594
    11  C    0.238689
    12  C    0.081092
    13  N   -0.065465
    14  H    0.117511
    15  H    0.084813
    16  H    0.023007
    17  H    0.028516
    18  H    0.021707
    19  N   -0.309553
    20  C    0.263434
    21  C    0.182650
    22  N   -0.122421
    23  H    0.120224
    24  H    0.118927
    25  N   -0.310201
    26  C    0.245267
    27  N   -0.140679
    28  H    0.120146
    29  C    0.191601
    30  O   -0.318310
    31  C   -0.019279
    32  N   -0.226657
    33  C    0.110107
    34  H    0.025914
    35  H    0.024289
    36  H    0.032247
    37  H    0.025858
    38  H    0.061938
    39  H    0.056070
    40  H    0.075770
    41  H    0.020140
    42  C   -0.117529
    43  O   -0.268575
    44  C    0.168786
    45  H    0.133223
    46  N   -0.123596
    47  O   -0.351313
    48  C    0.346806
    49  H    0.043874
    50  C    0.174407
    51  C    0.043770
    52  N   -0.276772
    53  H    0.034691
    54  H    0.041858
    55  H    0.029941
    56  H    0.122767
    57  H    0.118193
    58  N   -0.055685
    59  C    0.081175
    60  C    0.214668
    61  N   -0.257387
    62  H    0.032680
    63  C    0.164170
    64  N   -0.306758
    65  H    0.040192
    66  C    0.140132
    67  N   -0.257670
    68  C    0.028165
    69  C    0.179772
    70  N   -0.307330
 Sum of Mulliken charges =  -0.00000

 Dipole moment (field-independent basis, Debye):
    X=             -6.8233    Y=              7.6755    Z=             -1.1329  Tot=             10.3322
 Quadrupole moment (field-independent basis, Debye-Ang):
   XX=           -154.5540   YY=           -225.5216   ZZ=           -252.8113
   XY=              0.7950   XZ=            -15.7271   YZ=              9.8382

 Normal termination of Gaussian 16 at Sun Jan 21 22:27:46 2018.
