 Gaussian 16, Revision A.03,
 Gaussian 16:  EM64L-G16RevA.03 25-Dec-2016

 ---------------------------------------
 #p wb97xd/cc-pvdz sp scf=(maxcycles=20)
 ---------------------------------------

 ------------------
 Base pair stacking
 ------------------
 Symbolic Z-matrix:
 Charge =  0 Multiplicity = 1

                         Standard orientation:
 ---------------------------------------------------------------------
 Center     Atomic      Atomic             Coordinates (Angstroms)
 Number     Number       Type             X           Y           Z
 ---------------------------------------------------------------------
      1          7           0       -4.872287   -2.020826    1.338995
      2          6           0       -6.211537   -1.651809    1.837205
      3          6           0       -2.704292   -2.085108    0.974333
      4          7           0       -3.256696   -3.102776    0.210193
      5          6           0       -4.540732   -3.023325    0.460471
      6          1           0       -5.298406   -3.677054    0.027462
      7          7           0       -1.171335   -0.603047    1.982543
      8          6           0       -2.224498   -0.049584    2.592541
      9          1           0       -1.993770    0.785998    3.251958
     10          7           0       -3.513823   -0.371801    2.510654
     11          6           0       -3.687816   -1.409483    1.675574
     12          6           0       -1.379476   -1.645292    1.148589
     13          7           0       -0.329451   -2.199109    0.538747
     14          1           0       -0.436708   -2.972576   -0.086920
     15          1           0        0.599695   -1.859948    0.686407
     16          1           0       -6.616749   -2.430618    2.316217
     17          1           0       -6.132696   -0.879086    2.466349
     18          1           0       -6.796493   -1.394790    1.067943
     19          7           0       -5.041517    2.016609   -0.629908
     20          6           0       -3.670696    2.067661   -0.709325
     21          6           0       -5.906279    3.088621   -0.097300
     22          7           0       -0.688890    3.769862   -0.186805
     23          1           0        0.287272    3.608725   -0.329653
     24          1           0       -0.949671    4.647580    0.216087
     25          7           0       -2.889703    3.097425   -0.317306
     26          6           0       -1.607656    2.850833   -0.520197
     27          7           0       -1.125277    1.685575   -1.065175
     28          1           0       -0.128990    1.583792   -1.183589
     29          6           0       -1.910442    0.612788   -1.475680
     30          8           0       -1.375027   -0.394156   -1.955414
     31          6           0       -3.290099    0.862953   -1.263978
     32          7           0       -4.399662    0.071520   -1.527470
     33          6           0       -5.413322    0.795066   -1.136083
     34          1           0       -6.457108    0.484593   -1.194291
     35          1           0       -6.426592    2.742792    0.682756
     36          1           0       -5.338789    3.856777    0.196245
     37          1           0       -6.537313    3.394743   -0.809266
     38          1           0        4.946341    1.438763   -0.914014
     39          1           0        4.841955    1.876406   -2.617603
     40          1           0        3.606303    2.431845   -1.487994
     41          1           0        3.858557   -2.827147   -2.854459
     42          6           0        3.364714   -1.893648   -2.584394
     43          8           0        1.177867   -2.807267   -2.685097
     44          6           0        1.937350   -1.859030   -2.488036
     45          1           0        0.409242   -0.566019   -2.062233
     46          7           0        1.414509   -0.629840   -2.140219
     47          8           0        1.559092    1.567340   -1.584635
     48          6           0        2.112203    0.524441   -1.886445
     49          1           0        5.159807   -0.757698   -2.402564
     50          6           0        4.072581   -0.784086   -2.342719
     51          6           0        4.271577    1.618696   -1.737651
     52          7           0        3.483883    0.410951   -1.999646
     53          1           0        5.949367    2.406154    3.692111
     54          1           0        4.557341    2.886283    2.989372
     55          1           0        5.986299    3.191949    2.262221
     56          1           0        3.112889   -3.128362   -0.356229
     57          1           0        4.791288   -2.881029   -0.177571
     58          7           0        3.859031   -2.553098   -0.020815
     59          6           0        3.622442   -1.399769    0.607685
     60          6           0        4.233514    0.608505    1.728038
     61          7           0        2.971277    1.023932    1.924553
     62          1           0        1.055863    0.406608    1.536333
     63          6           0        2.106916    0.145964    1.419613
     64          7           0        2.341894   -1.009736    0.789768
     65          1           0        7.462302    0.703666    1.862308
     66          6           0        6.419262    0.437110    1.689199
     67          7           0        6.019768   -0.652240    1.079760
     68          6           0        4.635877   -0.556028    1.097580
     69          6           0        5.477881    2.535590    2.819791
     70          7           0        5.390920    1.245730    2.107974
 ---------------------------------------------------------------------

 SCF Done:  E(RwB97XD) =  -2048.74072944     A.U. after   15 cycles

 The electronic state is 1-A.
 Alpha  occ. eigenvalues --  -19.25676 -19.22252 -19.20762 -14.52467 -14.52271
 Alpha  occ. eigenvalues --  -14.49158 -14.48131 -14.47921 -14.47662 -14.47042
 Alpha  occ. eigenvalues --  -14.46862 -14.45458 -14.44377 -14.44332 -14.42213
 Alpha  occ. eigenvalues --  -14.42048 -14.41378 -14.40693 -14.40602 -14.40165
 Alpha  occ. eigenvalues --  -10.45254 -10.41446 -10.40199 -10.39900 -10.38419
 Alpha  occ. eigenvalues --  -10.37981 -10.37353 -10.37242 -10.35863 -10.35182
 Alpha  occ. eigenvalues --  -10.34946 -10.34666 -10.33839 -10.33803 -10.33406
 Alpha  occ. eigenvalues --  -10.32916 -10.32867 -10.32737 -10.31241 -10.30943
 Alpha  occ. eigenvalues --  -10.30654 -10.28429 -10.28074  -1.19240  -1.15223
 Alpha  occ. eigenvalues --   -1.13404  -1.13183  -1.10904  -1.10718  -1.09489
 Alpha  occ. eigenvalues --   -1.09030  -1.08750  -1.04878  -1.04778  -1.02364
 Alpha  occ. eigenvalues --   -1.00981  -1.00151  -0.99940  -0.98782  -0.96947
 Alpha  occ. eigenvalues --   -0.96932  -0.96355  -0.92478  -0.90908  -0.87644
 Alpha  occ. eigenvalues --   -0.85880  -0.84443  -0.83482  -0.83441  -0.82813
 Alpha  occ. eigenvalues --   -0.81908  -0.78767  -0.77057  -0.74916  -0.74853
 Alpha  occ. eigenvalues --   -0.73848  -0.73239  -0.72516  -0.70712  -0.70414
 Alpha  occ. eigenvalues --   -0.67633  -0.66890  -0.66366  -0.65918  -0.64668
 Alpha  occ. eigenvalues --   -0.64289  -0.63787  -0.62836  -0.62358  -0.62026
 Alpha  occ. eigenvalues --   -0.60681  -0.60409  -0.60207  -0.59362  -0.59307
 Alpha  occ. eigenvalues --   -0.59080  -0.58580  -0.57002  -0.56244  -0.55987
 Alpha  occ. eigenvalues --   -0.55879  -0.55343  -0.55088  -0.54405  -0.54085
 Alpha  occ. eigenvalues --   -0.53805  -0.53743  -0.53605  -0.53375  -0.53216
 Alpha  occ. eigenvalues --   -0.52772  -0.52297  -0.51387  -0.50465  -0.50360
 Alpha  occ. eigenvalues --   -0.50076  -0.49747  -0.49539  -0.49274  -0.49058
 Alpha  occ. eigenvalues --   -0.48686  -0.48611  -0.48341  -0.48024  -0.47452
 Alpha  occ. eigenvalues --   -0.46595  -0.45924  -0.45620  -0.44537  -0.42782
 Alpha  occ. eigenvalues --   -0.40809  -0.40711  -0.39329  -0.38053  -0.37608
 Alpha  occ. eigenvalues --   -0.37547  -0.37480  -0.36717  -0.35956  -0.34730
 Alpha  occ. eigenvalues --   -0.34358  -0.34132  -0.33441  -0.33088  -0.32973
 Alpha  occ. eigenvalues --   -0.32922  -0.32780  -0.32251  -0.32055  -0.30515
 Alpha  occ. eigenvalues --   -0.30167  -0.29173  -0.25888  -0.25335
 Alpha virt. eigenvalues --    0.02757   0.04089   0.06933   0.08253   0.08839
 Alpha virt. eigenvalues --    0.08952   0.09517   0.10446   0.11301   0.11942
 Alpha virt. eigenvalues --    0.12995   0.13726   0.14311   0.14653   0.15047

 Mulliken charges:
               1
     1  N   -0.307585
     2  C    0.181367
     3  C    0.054931
     4  N   -0.252295
     5  C    0.146480
     6  H    0.025212
     7  N   -0.296348
     8  C    0.131358
     9  H    0.009579
    10  N   -0.287111
    11  C    0.243139
    12  C    0.087291
    13  N   -0.054953
    14  H    0.117554
    15  H    0.085671
    16  H    0.024768
    17  H    0.030655
    18  H    0.018967
    19  N   -0.310106
    20  C    0.262062
    21  C    0.182116
    22  N   -0.124551
    23  H    0.118539
    24  H    0.118966
    25  N   -0.312633
    26  C    0.250966
    27  N   -0.147752
    28  H    0.120087
    29  C    0.193641
    30  O   -0.320851
    31  C   -0.016400
    32  N   -0.223035
    33  C    0.117176
    34  H    0.022628
    35  H    0.026626
    36  H    0.031044
    37  H    0.024783
    38  H    0.062085
    39  H    0.059366
    40  H    0.074834
    41  H    0.020259
    42  C   -0.112629
    43  O   -0.272330
    44  C    0.165373
    45  H    0.130398
    46  N   -0.115086
    47  O   -0.349813
    48  C    0.344574
    49  H    0.043790
    50  C    0.168331
    51  C    0.042135
    52  N   -0.275850
    53  H    0.034338
    54  H    0.042216
    55  H    0.027420
    56  H    0.125405
    57  H    0.113967
    58  N   -0.044446
    59  C    0.082317
    60  C    0.233989
    61  N   -0.268303
    62  H    0.032708
    63  C    0.168824
    64  N   -0.311431
    65  H    0.037470
    66  C    0.131106
    67  N   -0.258427
    68  C    0.020254
    69  C    0.180999
    70  N   -0.305829
 Sum of Mulliken charges =  -0.00000

 Dipole moment (field-independent basis, Debye):
    X=              6.7826    Y=              7.2953    Z=              2.3244  Tot=             10.2288
 Quadrupole moment (field-independent basis, Debye-Ang):
   XX=           -151.9605   YY=           -222.9785   ZZ=           -254.8608
   XY=              4.7370   XZ=             -7.8501   YZ=             -1.3287

 Normal termination of Gaussian 16 at Sun Jan 21 12:11:12 2018.
