 Gaussian 16, Revision A.03,
 Gaussian 16:  EM64L-G16RevA.03 25-Dec-2016

 ---------------------------------------
 #p wb97xd/cc-pvdz sp scf=(maxcycles=20)
 ---------------------------------------

 ------------------
 Base pair stacking
 ------------------
 Symbolic Z-matrix:
 Charge =  0 Multiplicity = 1

                         Standard orientation:
 ---------------------------------------------------------------------
 Center     Atomic      Atomic             Coordinates (Angstroms)
 Number     Number       Type             X           Y           Z
 ---------------------------------------------------------------------
      1          7           0       -4.548483   -2.225788    1.365256
      2          6           0       -5.871364   -1.949755    1.958382
      3          6           0       -2.397926   -2.194158    0.905487
      4          7           0       -2.963516   -3.130311    0.052003
      5          6           0       -4.236513   -3.111904    0.363148
      6          1           0       -4.999619   -3.729869   -0.110893
      7          7           0       -0.851256   -0.800790    2.014231
      8          6           0       -1.887050   -0.347425    2.727783
      9          1           0       -1.643819    0.412034    3.469609
     10          7           0       -3.172161   -0.689757    2.662873
     11          6           0       -3.362523   -1.628285    1.720875
     12          6           0       -1.075595   -1.744828    1.074251
     13          7           0       -0.042915   -2.198632    0.360938
     14          1           0       -0.162554   -2.897266   -0.345332
     15          1           0        0.885010   -1.855950    0.508114
     16          1           0       -6.239579   -2.788316    2.360149
     17          1           0       -5.779948   -1.252962    2.669191
     18          1           0       -6.494743   -1.620316    1.249255
     19          7           0       -5.339078    1.968763   -0.367598
     20          6           0       -3.973686    2.055791   -0.494714
     21          6           0       -6.208336    3.001830    0.230638
     22          7           0       -1.015029    3.812846   -0.024712
     23          1           0       -0.041329    3.680235   -0.207877
     24          1           0       -1.281138    4.670664    0.415810
     25          7           0       -3.202931    3.091330   -0.097660
     26          6           0       -1.923846    2.882720   -0.354624
     27          7           0       -1.434905    1.747547   -0.954471
     28          1           0       -0.441565    1.673954   -1.112016
     29          6           0       -2.209494    0.669495   -1.371242
     30          8           0       -1.668853   -0.308270   -1.902656
     31          6           0       -3.585871    0.879013   -1.101848
     32          7           0       -4.685676    0.069500   -1.350878
     33          6           0       -5.700779    0.755224   -0.899726
     34          1           0       -6.738506    0.421357   -0.930356
     35          1           0       -6.691360    2.618723    1.017223
     36          1           0       -5.648438    3.773879    0.528479
     37          1           0       -6.872122    3.314948   -0.447707
     38          1           0        4.642257    1.644471   -1.030609
     39          1           0        4.465014    2.133454   -2.714096
     40          1           0        3.259242    2.622285   -1.523078
     41          1           0        3.583218   -2.582796   -3.069031
     42          6           0        3.078085   -1.670724   -2.750931
     43          8           0        0.910851   -2.633830   -2.802505
     44          6           0        1.654821   -1.674076   -2.602069
     45          1           0        0.113782   -0.433003   -2.079350
     46          7           0        1.116707   -0.469732   -2.195604
     47          8           0        1.230521    1.711533   -1.574026
     48          6           0        1.796241    0.692593   -1.929539
     49          1           0        4.851753   -0.497624   -2.596934
     50          6           0        3.768372   -0.552459   -2.498795
     51          6           0        3.933589    1.833992   -1.823043
     52          7           0        3.165093    0.616316   -2.095809
     53          1           0        6.277632    2.166012    3.763329
     54          1           0        4.846690    2.689450    3.179802
     55          1           0        6.235752    3.111995    2.434124
     56          1           0        3.374017   -2.933436   -0.778716
     57          1           0        5.053493   -2.667034   -0.642700
     58          7           0        4.122825   -2.382432   -0.410162
     59          6           0        3.891677   -1.315378    0.357391
     60          6           0        4.512156    0.564880    1.677000
     61          7           0        3.251937    0.923655    1.972924
     62          1           0        1.333727    0.308144    1.595837
     63          6           0        2.383496    0.088675    1.405897
     64          7           0        2.613028   -0.980613    0.636800
     65          1           0        7.741225    0.723501    1.686632
     66          6           0        6.696996    0.453038    1.527382
     67          7           0        6.292390   -0.568353    0.812715
     68          6           0        4.909020   -0.508985    0.899291
     69          6           0        5.765528    2.383425    2.932380
     70          7           0        5.672509    1.182423    2.079781
 ---------------------------------------------------------------------

 SCF Done:  E(RwB97XD) =  -2048.73601508     A.U. after   15 cycles

 The electronic state is 1-A.
 Alpha  occ. eigenvalues --  -19.25707 -19.22148 -19.20837 -14.52465 -14.52348
 Alpha  occ. eigenvalues --  -14.49330 -14.47977 -14.47909 -14.47652 -14.47147
 Alpha  occ. eigenvalues --  -14.46973 -14.45435 -14.44519 -14.44440 -14.42334
 Alpha  occ. eigenvalues --  -14.41980 -14.41575 -14.40581 -14.40358 -14.40087
 Alpha  occ. eigenvalues --  -10.45283 -10.41568 -10.40178 -10.39990 -10.38519
 Alpha  occ. eigenvalues --  -10.37993 -10.37571 -10.37315 -10.35952 -10.35093
 Alpha  occ. eigenvalues --  -10.34968 -10.34814 -10.33966 -10.33805 -10.33185
 Alpha  occ. eigenvalues --  -10.32832 -10.32767 -10.32760 -10.31394 -10.30878
 Alpha  occ. eigenvalues --  -10.30388 -10.28577 -10.27937  -1.19259  -1.15239
 Alpha  occ. eigenvalues --   -1.13521  -1.13133  -1.11051  -1.10527  -1.09627
 Alpha  occ. eigenvalues --   -1.09062  -1.08851  -1.04993  -1.04690  -1.02344
 Alpha  occ. eigenvalues --   -1.01002  -1.00076  -1.00039  -0.98916  -0.97092
 Alpha  occ. eigenvalues --   -0.97048  -0.96162  -0.92386  -0.90995  -0.87693
 Alpha  occ. eigenvalues --   -0.85885  -0.84597  -0.83475  -0.83295  -0.82957
 Alpha  occ. eigenvalues --   -0.81712  -0.78855  -0.77121  -0.75053  -0.74929
 Alpha  occ. eigenvalues --   -0.73968  -0.73269  -0.72371  -0.70609  -0.70462
 Alpha  occ. eigenvalues --   -0.67756  -0.66947  -0.66463  -0.65782  -0.64802
 Alpha  occ. eigenvalues --   -0.64407  -0.63802  -0.62954  -0.62227  -0.62140
 Alpha  occ. eigenvalues --   -0.60695  -0.60375  -0.60134  -0.59419  -0.59302
 Alpha  occ. eigenvalues --   -0.59164  -0.58691  -0.57132  -0.56107  -0.56062
 Alpha  occ. eigenvalues --   -0.55667  -0.55324  -0.55029  -0.54537  -0.54250
 Alpha  occ. eigenvalues --   -0.53884  -0.53806  -0.53643  -0.53347  -0.53228
 Alpha  occ. eigenvalues --   -0.52803  -0.52314  -0.51196  -0.50540  -0.50278
 Alpha  occ. eigenvalues --   -0.50028  -0.49709  -0.49606  -0.49475  -0.49166
 Alpha  occ. eigenvalues --   -0.48707  -0.48475  -0.48236  -0.48160  -0.47500
 Alpha  occ. eigenvalues --   -0.46443  -0.45912  -0.45752  -0.44520  -0.42741
 Alpha  occ. eigenvalues --   -0.40746  -0.40737  -0.39383  -0.38105  -0.37714
 Alpha  occ. eigenvalues --   -0.37641  -0.37604  -0.36562  -0.35822  -0.34899
 Alpha  occ. eigenvalues --   -0.34452  -0.34277  -0.33451  -0.33082  -0.32983
 Alpha  occ. eigenvalues --   -0.32921  -0.32758  -0.32124  -0.32088  -0.30351
 Alpha  occ. eigenvalues --   -0.30039  -0.29339  -0.25979  -0.25289
 Alpha virt. eigenvalues --    0.02532   0.04059   0.06831   0.08403   0.08729
 Alpha virt. eigenvalues --    0.08885   0.09442   0.10441   0.11405   0.11655
 Alpha virt. eigenvalues --    0.13186   0.13716   0.14205   0.14822   0.15124

 Mulliken charges:
               1
     1  N   -0.306940
     2  C    0.182707
     3  C    0.050256
     4  N   -0.250095
     5  C    0.150947
     6  H    0.025325
     7  N   -0.298633
     8  C    0.130038
     9  H    0.008945
    10  N   -0.286329
    11  C    0.242916
    12  C    0.086599
    13  N   -0.062504
    14  H    0.119006
    15  H    0.088530
    16  H    0.023414
    17  H    0.030239
    18  H    0.019045
    19  N   -0.310919
    20  C    0.260183
    21  C    0.181780
    22  N   -0.124261
    23  H    0.118439
    24  H    0.119423
    25  N   -0.312816
    26  C    0.251295
    27  N   -0.149141
    28  H    0.120802
    29  C    0.197922
    30  O   -0.319046
    31  C   -0.016628
    32  N   -0.225342
    33  C    0.117185
    34  H    0.024264
    35  H    0.026382
    36  H    0.031463
    37  H    0.025605
    38  H    0.064524
    39  H    0.059063
    40  H    0.075079
    41  H    0.020578
    42  C   -0.127465
    43  O   -0.273879
    44  C    0.170576
    45  H    0.131849
    46  N   -0.120602
    47  O   -0.352002
    48  C    0.349961
    49  H    0.043075
    50  C    0.176381
    51  C    0.040970
    52  N   -0.275842
    53  H    0.034245
    54  H    0.042779
    55  H    0.028391
    56  H    0.127473
    57  H    0.113959
    58  N   -0.047892
    59  C    0.082887
    60  C    0.236855
    61  N   -0.267751
    62  H    0.033905
    63  C    0.171831
    64  N   -0.313957
    65  H    0.038734
    66  C    0.136761
    67  N   -0.260628
    68  C    0.018983
    69  C    0.180217
    70  N   -0.309116
 Sum of Mulliken charges =  -0.00000

 Dipole moment (field-independent basis, Debye):
    X=              6.7712    Y=              7.6315    Z=              2.2332  Tot=             10.4440
 Quadrupole moment (field-independent basis, Debye-Ang):
   XX=           -152.9675   YY=           -223.3914   ZZ=           -252.9396
   XY=              4.8532   XZ=            -10.8398   YZ=              0.4028

 Normal termination of Gaussian 16 at Sun Jan 21 17:20:47 2018.
