 Gaussian 16, Revision A.03,
 Gaussian 16:  EM64L-G16RevA.03 25-Dec-2016

 ---------------------------------------
 #p wb97xd/cc-pvdz sp scf=(maxcycles=20)
 ---------------------------------------

 ------------------
 Base pair stacking
 ------------------
 Symbolic Z-matrix:
 Charge =  0 Multiplicity = 1

                         Standard orientation:
 ---------------------------------------------------------------------
 Center     Atomic      Atomic             Coordinates (Angstroms)
 Number     Number       Type             X           Y           Z
 ---------------------------------------------------------------------
      1          7           0        4.262168   -1.503261   -1.939103
      2          6           0        5.604767   -0.982330   -2.261708
      3          6           0        2.096608   -1.677999   -1.596873
      4          7           0        2.633195   -2.930264   -1.334910
      5          6           0        3.916395   -2.774877   -1.551579
      6          1           0        4.663283   -3.561818   -1.442859
      7          7           0        0.587828    0.114093   -1.870659
      8          6           0        1.647498    0.853909   -2.213252
      9          1           0        1.429410    1.891781   -2.461275
     10          7           0        2.930073    0.505793   -2.295074
     11          6           0        3.088529   -0.788007   -1.970409
     12          6           0        0.780334   -1.183942   -1.549516
     13          7           0       -0.276201   -1.924063   -1.207266
     14          1           0       -0.180485   -2.889411   -0.961959
     15          1           0       -1.198916   -1.539067   -1.184416
     16          1           0        5.988425   -1.497633   -3.028157
     17          1           0        5.537407   -0.016701   -2.510967
     18          1           0        6.202048   -1.078417   -1.465451
     19          7           0        5.622834    1.585116    0.701582
     20          6           0        4.255980    1.627484    0.835631
     21          6           0        6.480746    2.730383    0.336831
     22          7           0        1.276527    3.408490    0.723466
     23          1           0        0.303973    3.229050    0.869036
     24          1           0        1.533052    4.342333    0.472790
     25          7           0        3.473302    2.713732    0.658086
     26          6           0        2.196125    2.440963    0.858132
     27          7           0        1.719797    1.200018    1.205543
     28          1           0        0.726940    1.083401    1.338203
     29          6           0        2.506796    0.068144    1.393548
     30          8           0        1.976981   -1.005220    1.706474
     31          6           0        3.881289    0.345546    1.182123
     32          7           0        4.990592   -0.484910    1.263963
     33          6           0        5.998328    0.291783    0.971665
     34          1           0        7.040167   -0.028760    0.938515
     35          1           0        6.971479    2.525232   -0.509282
     36          1           0        5.911963    3.540795    0.202776
     37          1           0        7.138036    2.903298    1.069563
     38          1           0       -4.355748    1.010909    1.221206
     39          1           0       -4.190796    1.140734    2.970660
     40          1           0       -2.987255    1.881175    1.914909
     41          1           0       -3.249295   -3.535199    2.341558
     42          6           0       -2.754887   -2.570924    2.223382
     43          8           0       -0.575572   -3.497757    2.086675
     44          6           0       -1.331186   -2.526244    2.085830
     45          1           0        0.195506   -1.185249    1.842360
     46          7           0       -0.807265   -1.257330    1.942261
     47          8           0       -0.947110    1.004030    1.787633
     48          6           0       -1.500843   -0.073271    1.919796
     49          1           0       -4.543035   -1.412701    2.306037
     50          6           0       -3.458694   -1.432979    2.205297
     51          6           0       -3.652406    1.039723    2.040068
     52          7           0       -2.869176   -0.198815    2.058127
     53          1           0       -6.479651    3.677886   -2.050535
     54          1           0       -5.071195    3.799114   -1.235898
     55          1           0       -6.486542    3.797742   -0.422962
     56          1           0       -3.730134   -3.085034   -0.720655
     57          1           0       -5.404181   -2.758360   -0.751259
     58          7           0       -4.466343   -2.410243   -0.773467
     59          6           0       -4.209956   -1.103999   -0.869283
     60          6           0       -4.786493    1.198056   -1.042067
     61          7           0       -3.517206    1.636873   -1.069736
     62          1           0       -1.612503    0.882728   -1.006573
     63          6           0       -2.667969    0.614386   -0.990722
     64          7           0       -2.922784   -0.694591   -0.894700
     65          1           0       -8.013463    1.393300   -1.068865
     66          6           0       -6.975066    1.061843   -1.040339
     67          7           0       -6.594308   -0.188697   -0.946217
     68          6           0       -5.208839   -0.116463   -0.946277
     69          6           0       -5.997696    3.424775   -1.211697
     70          7           0       -5.932896    1.954442   -1.102502
 ---------------------------------------------------------------------

 SCF Done:  E(RwB97XD) =  -2048.74912588     A.U. after   15 cycles

 The electronic state is 1-A.
 Alpha  occ. eigenvalues --  -19.25213 -19.21383 -19.20672 -14.52770 -14.51612
 Alpha  occ. eigenvalues --  -14.49336 -14.48707 -14.48291 -14.47162 -14.46880
 Alpha  occ. eigenvalues --  -14.46740 -14.45643 -14.44962 -14.44844 -14.42900
 Alpha  occ. eigenvalues --  -14.42108 -14.41633 -14.41163 -14.40851 -14.40711
 Alpha  occ. eigenvalues --  -10.44761 -10.41334 -10.40528 -10.39494 -10.38367
 Alpha  occ. eigenvalues --  -10.38230 -10.37625 -10.37173 -10.36330 -10.35778
 Alpha  occ. eigenvalues --  -10.34723 -10.34057 -10.34056 -10.33998 -10.33640
 Alpha  occ. eigenvalues --  -10.33302 -10.33255 -10.33208 -10.31419 -10.30465
 Alpha  occ. eigenvalues --  -10.30428 -10.28497 -10.28490  -1.18745  -1.15559
 Alpha  occ. eigenvalues --   -1.13362  -1.12401  -1.11001  -1.10968  -1.09911
 Alpha  occ. eigenvalues --   -1.08695  -1.08502  -1.05384  -1.05307  -1.01779
 Alpha  occ. eigenvalues --   -1.01261  -1.00756  -0.99826  -0.98770  -0.97456
 Alpha  occ. eigenvalues --   -0.97037  -0.96611  -0.93027  -0.90375  -0.88065
 Alpha  occ. eigenvalues --   -0.86171  -0.84546  -0.83721  -0.82986  -0.82738
 Alpha  occ. eigenvalues --   -0.82047  -0.78224  -0.77447  -0.75314  -0.74936
 Alpha  occ. eigenvalues --   -0.73768  -0.72936  -0.72677  -0.71140  -0.70829
 Alpha  occ. eigenvalues --   -0.67581  -0.67234  -0.66336  -0.65915  -0.64627
 Alpha  occ. eigenvalues --   -0.64544  -0.63440  -0.62810  -0.62740  -0.61980
 Alpha  occ. eigenvalues --   -0.60951  -0.60732  -0.60487  -0.59788  -0.59003
 Alpha  occ. eigenvalues --   -0.58883  -0.58461  -0.57333  -0.56600  -0.55825
 Alpha  occ. eigenvalues --   -0.55772  -0.55673  -0.55507  -0.54809  -0.54230
 Alpha  occ. eigenvalues --   -0.53952  -0.53778  -0.53347  -0.53186  -0.53086
 Alpha  occ. eigenvalues --   -0.52213  -0.51608  -0.51526  -0.50604  -0.50407
 Alpha  occ. eigenvalues --   -0.50344  -0.50058  -0.49669  -0.49246  -0.48896
 Alpha  occ. eigenvalues --   -0.48851  -0.48184  -0.48145  -0.47619  -0.47147
 Alpha  occ. eigenvalues --   -0.46895  -0.45849  -0.45536  -0.45079  -0.42785
 Alpha  occ. eigenvalues --   -0.41393  -0.41055  -0.38975  -0.38248  -0.37994
 Alpha  occ. eigenvalues --   -0.37661  -0.37412  -0.37004  -0.35433  -0.35158
 Alpha  occ. eigenvalues --   -0.34847  -0.34132  -0.33590  -0.33481  -0.33133
 Alpha  occ. eigenvalues --   -0.32717  -0.32511  -0.32021  -0.31192  -0.30771
 Alpha  occ. eigenvalues --   -0.30626  -0.30514  -0.25989  -0.25775
 Alpha virt. eigenvalues --    0.02846   0.04391   0.06274   0.07819   0.08675
 Alpha virt. eigenvalues --    0.09047   0.09642   0.10198   0.10864   0.12069
 Alpha virt. eigenvalues --    0.13385   0.13827   0.14113   0.14628   0.14807

 Mulliken charges:
               1
     1  N   -0.303050
     2  C    0.184455
     3  C    0.059750
     4  N   -0.254880
     5  C    0.153246
     6  H    0.028897
     7  N   -0.292348
     8  C    0.124059
     9  H    0.009162
    10  N   -0.277051
    11  C    0.236809
    12  C    0.079690
    13  N   -0.064984
    14  H    0.116714
    15  H    0.084109
    16  H    0.023232
    17  H    0.027911
    18  H    0.022561
    19  N   -0.308372
    20  C    0.264697
    21  C    0.183020
    22  N   -0.119848
    23  H    0.120811
    24  H    0.118608
    25  N   -0.306713
    26  C    0.236316
    27  N   -0.134778
    28  H    0.119569
    29  C    0.187405
    30  O   -0.318616
    31  C   -0.019195
    32  N   -0.225466
    33  C    0.106488
    34  H    0.025906
    35  H    0.023407
    36  H    0.032382
    37  H    0.025776
    38  H    0.060461
    39  H    0.054366
    40  H    0.076091
    41  H    0.020723
    42  C   -0.114759
    43  O   -0.268126
    44  C    0.170091
    45  H    0.133358
    46  N   -0.124085
    47  O   -0.349968
    48  C    0.343755
    49  H    0.044150
    50  C    0.171170
    51  C    0.047068
    52  N   -0.276234
    53  H    0.034877
    54  H    0.041582
    55  H    0.030277
    56  H    0.122050
    57  H    0.118958
    58  N   -0.056948
    59  C    0.083650
    60  C    0.206838
    61  N   -0.254467
    62  H    0.031702
    63  C    0.161339
    64  N   -0.305095
    65  H    0.040456
    66  C    0.140040
    67  N   -0.256667
    68  C    0.029887
    69  C    0.179818
    70  N   -0.306040
 Sum of Mulliken charges =  -0.00000

 Dipole moment (field-independent basis, Debye):
    X=             -6.8696    Y=              7.5943    Z=             -1.2876  Tot=             10.3210
 Quadrupole moment (field-independent basis, Debye-Ang):
   XX=           -154.5636   YY=           -226.4777   ZZ=           -252.8842
   XY=              1.6817   XZ=            -15.9275   YZ=             11.6821

 Normal termination of Gaussian 16 at Sun Jan 21 05:03:01 2018.
