 Gaussian 16, Revision A.03,
 Gaussian 16:  EM64L-G16RevA.03 25-Dec-2016

 ---------------------------------------
 #p wb97xd/cc-pvdz sp scf=(maxcycles=20)
 ---------------------------------------

 ------------------
 Base pair stacking
 ------------------
 Symbolic Z-matrix:
 Charge =  0 Multiplicity = 1

                         Standard orientation:
 ---------------------------------------------------------------------
 Center     Atomic      Atomic             Coordinates (Angstroms)
 Number     Number       Type             X           Y           Z
 ---------------------------------------------------------------------
      1          7           0       -6.688484   -1.355081    0.262306
      2          6           0       -8.042638   -0.846053    0.554109
      3          6           0       -4.510710   -1.662454    0.250696
      4          7           0       -5.037790   -2.586242   -0.640119
      5          6           0       -6.328712   -2.364083   -0.597464
      6          1           0       -7.071622   -2.911965   -1.177868
      7          7           0       -3.011949   -0.399477    1.562760
      8          6           0       -4.083913    0.255948    2.019799
      9          1           0       -3.874815    1.039635    2.746696
     10          7           0       -5.369357    0.089439    1.715152
     11          6           0       -5.516064   -0.896520    0.814721
     12          6           0       -3.192819   -1.385989    0.657691
     13          7           0       -2.123992   -2.041403    0.200298
     14          1           0       -2.210827   -2.778850   -0.470411
     15          1           0       -1.200519   -1.817759    0.512280
     16          1           0       -8.605629   -1.585353    0.923785
     17          1           0       -7.984300   -0.106116    1.223599
     18          1           0       -8.459445   -0.500489   -0.286634
     19          7           0       -3.081864    2.553294   -1.284935
     20          6           0       -1.720707    2.439313   -1.135505
     21          6           0       -3.881251    3.746864   -0.942779
     22          7           0        1.325490    3.807687   -0.181604
     23          1           0        2.284162    3.525913   -0.153251
     24          1           0        1.114185    4.730820    0.140718
     25          7           0       -0.891511    3.390869   -0.654879
     26          6           0        0.365699    2.985292   -0.631456
     27          7           0        0.781166    1.743262   -1.046516
     28          1           0        1.762968    1.519341   -0.992811
     29          6           0       -0.054478    0.748511   -1.544547
     30          8           0        0.422035   -0.339116   -1.892043
     31          6           0       -1.408230    1.169538   -1.575757
     32          7           0       -2.550221    0.499826   -1.993172
     33          6           0       -3.515876    1.357427   -1.802783
     34          1           0       -4.566882    1.168321   -2.023904
     35          1           0       -4.559905    3.507931   -0.249122
     36          1           0       -3.277668    4.458496   -0.585668
     37          1           0       -4.345660    4.084731   -1.760689
     38          1           0        6.669726    0.797342    0.127519
     39          1           0        6.897753    1.149173   -1.583874
     40          1           0        5.574377    1.906899   -0.697368
     41          1           0        5.388222   -3.413074   -1.815864
     42          6           0        4.977199   -2.414756   -1.665388
     43          8           0        2.739056   -3.070716   -2.098441
     44          6           0        3.568617   -2.208289   -1.810616
     45          1           0        2.164626   -0.723969   -1.692530
     46          7           0        3.153413   -0.909053   -1.598836
     47          8           0        3.478369    1.283543   -1.104786
     48          6           0        3.938941    0.168052   -1.272746
     49          1           0        6.846382   -1.488060   -1.225835
     50          6           0        5.769079   -1.383850   -1.347942
     51          6           0        6.164880    1.009004   -0.803278
     52          7           0        5.285936   -0.111061   -1.150653
     53          1           0        4.014633    1.705007    4.542816
     54          1           0        2.820702    2.364702    3.647597
     55          1           0        4.375578    2.521454    3.176603
     56          1           0        1.294705   -3.341625   -0.168769
     57          1           0        2.936990   -3.297785    0.290685
     58          7           0        2.033823   -2.867508    0.309842
     59          6           0        1.825386   -1.712773    0.945688
     60          6           0        2.460544    0.177378    2.244021
     61          7           0        1.237141    0.732036    2.253122
     62          1           0       -0.643566    0.354634    1.531222
     63          6           0        0.376806   -0.023895    1.573935
     64          7           0        0.583633   -1.180767    0.936390
     65          1           0        5.612468   -0.110192    2.903439
     66          6           0        4.589686   -0.247700    2.551376
     67          7           0        4.178782   -1.264949    1.834401
     68          6           0        2.830492   -1.007846    1.632547
     69          6           0        3.711981    1.913566    3.612812
     70          7           0        3.602100    0.663561    2.836014
 ---------------------------------------------------------------------

 SCF Done:  E(RwB97XD) =  -2048.73994409     A.U. after   15 cycles

 The electronic state is 1-A.
 Alpha  occ. eigenvalues --  -19.26183 -19.22403 -19.20876 -14.52696 -14.51245
 Alpha  occ. eigenvalues --  -14.48996 -14.48832 -14.48250 -14.47182 -14.46963
 Alpha  occ. eigenvalues --  -14.45677 -14.44333 -14.42655 -14.42473 -14.42227
 Alpha  occ. eigenvalues --  -14.42019 -14.41601 -14.41051 -14.40933 -14.40229
 Alpha  occ. eigenvalues --  -10.45799 -10.41459 -10.40549 -10.38455 -10.38030
 Alpha  occ. eigenvalues --  -10.38008 -10.36838 -10.35728 -10.35642 -10.35429
 Alpha  occ. eigenvalues --  -10.34503 -10.34263 -10.34257 -10.33531 -10.33371
 Alpha  occ. eigenvalues --  -10.33203 -10.33079 -10.31230 -10.31228 -10.31134
 Alpha  occ. eigenvalues --  -10.30820 -10.28663 -10.28269  -1.19743  -1.13918
 Alpha  occ. eigenvalues --   -1.13697  -1.13427  -1.11555  -1.10718  -1.09590
 Alpha  occ. eigenvalues --   -1.08804  -1.07460  -1.05059  -1.03018  -1.02923
 Alpha  occ. eigenvalues --   -1.00444  -1.00010  -0.99652  -0.98730  -0.97105
 Alpha  occ. eigenvalues --   -0.96666  -0.95085  -0.92684  -0.91256  -0.86292
 Alpha  occ. eigenvalues --   -0.84746  -0.84226  -0.84122  -0.83988  -0.82545
 Alpha  occ. eigenvalues --   -0.82486  -0.79148  -0.75522  -0.74769  -0.73894
 Alpha  occ. eigenvalues --   -0.73707  -0.73271  -0.72992  -0.71162  -0.68881
 Alpha  occ. eigenvalues --   -0.67594  -0.66864  -0.66382  -0.65258  -0.64744
 Alpha  occ. eigenvalues --   -0.63958  -0.62871  -0.62868  -0.62571  -0.61935
 Alpha  occ. eigenvalues --   -0.60259  -0.60119  -0.59771  -0.59040  -0.58629
 Alpha  occ. eigenvalues --   -0.58518  -0.58173  -0.56737  -0.56598  -0.56546
 Alpha  occ. eigenvalues --   -0.56256  -0.55374  -0.54701  -0.54592  -0.54096
 Alpha  occ. eigenvalues --   -0.53840  -0.53603  -0.53100  -0.52790  -0.52556
 Alpha  occ. eigenvalues --   -0.52270  -0.51896  -0.51466  -0.50965  -0.50396
 Alpha  occ. eigenvalues --   -0.50315  -0.49787  -0.49423  -0.49211  -0.49145
 Alpha  occ. eigenvalues --   -0.48466  -0.48359  -0.47860  -0.47736  -0.47388
 Alpha  occ. eigenvalues --   -0.47075  -0.45446  -0.45168  -0.44257  -0.42917
 Alpha  occ. eigenvalues --   -0.41296  -0.39740  -0.39376  -0.37457  -0.37368
 Alpha  occ. eigenvalues --   -0.37293  -0.36785  -0.36162  -0.35751  -0.34478
 Alpha  occ. eigenvalues --   -0.33747  -0.33700  -0.33622  -0.33252  -0.32869
 Alpha  occ. eigenvalues --   -0.32671  -0.32409  -0.32281  -0.31989  -0.31103
 Alpha  occ. eigenvalues --   -0.30449  -0.27948  -0.25939  -0.25523
 Alpha virt. eigenvalues --    0.02666   0.05406   0.07893   0.08004   0.08692
 Alpha virt. eigenvalues --    0.09091   0.09574   0.10873   0.11067   0.12154
 Alpha virt. eigenvalues --    0.13005   0.13828   0.14552   0.14630   0.15969

 Mulliken charges:
               1
     1  N   -0.310865
     2  C    0.180581
     3  C    0.042205
     4  N   -0.254544
     5  C    0.129440
     6  H    0.026339
     7  N   -0.288735
     8  C    0.130689
     9  H    0.013071
    10  N   -0.290961
    11  C    0.230519
    12  C    0.109425
    13  N   -0.043557
    14  H    0.110013
    15  H    0.090979
    16  H    0.026698
    17  H    0.034481
    18  H    0.023639
    19  N   -0.310139
    20  C    0.254992
    21  C    0.180158
    22  N   -0.122450
    23  H    0.113040
    24  H    0.118219
    25  N   -0.308969
    26  C    0.247742
    27  N   -0.140774
    28  H    0.116804
    29  C    0.175941
    30  O   -0.324473
    31  C   -0.005405
    32  N   -0.225559
    33  C    0.130254
    34  H    0.027596
    35  H    0.032852
    36  H    0.028288
    37  H    0.023501
    38  H    0.055532
    39  H    0.062242
    40  H    0.073109
    41  H    0.029030
    42  C   -0.099369
    43  O   -0.287228
    44  C    0.145321
    45  H    0.139125
    46  N   -0.120246
    47  O   -0.349439
    48  C    0.354891
    49  H    0.047976
    50  C    0.190334
    51  C    0.041231
    52  N   -0.286147
    53  H    0.031582
    54  H    0.041387
    55  H    0.020745
    56  H    0.127011
    57  H    0.115256
    58  N   -0.024270
    59  C    0.093314
    60  C    0.245853
    61  N   -0.276296
    62  H    0.034444
    63  C    0.163893
    64  N   -0.302367
    65  H    0.028159
    66  C    0.123644
    67  N   -0.258945
    68  C   -0.000749
    69  C    0.180447
    70  N   -0.310504
 Sum of Mulliken charges =  -0.00000

 Dipole moment (field-independent basis, Debye):
    X=              7.1007    Y=              6.2126    Z=              2.5590  Tot=              9.7757
 Quadrupole moment (field-independent basis, Debye-Ang):
   XX=           -142.5635   YY=           -224.5025   ZZ=           -252.3517
   XY=              6.4798   XZ=             13.8787   YZ=             -0.1014

 Normal termination of Gaussian 16 at Sun Jan 21 16:22:18 2018.
