 Gaussian 16, Revision A.03,
 Gaussian 16:  EM64L-G16RevA.03 25-Dec-2016

 ---------------------------------------
 #p wb97xd/cc-pvdz sp scf=(maxcycles=20)
 ---------------------------------------

 ------------------
 Base pair stacking
 ------------------
 Symbolic Z-matrix:
 Charge =  0 Multiplicity = 1

                         Standard orientation:
 ---------------------------------------------------------------------
 Center     Atomic      Atomic             Coordinates (Angstroms)
 Number     Number       Type             X           Y           Z
 ---------------------------------------------------------------------
      1          7           0       -6.680329   -1.326597    0.330268
      2          6           0       -8.031605   -0.779161    0.559141
      3          6           0       -4.504927   -1.649025    0.361552
      4          7           0       -5.035877   -2.660436   -0.425766
      5          6           0       -6.325228   -2.425704   -0.413103
      6          1           0       -7.070222   -3.028132   -0.933681
      7          7           0       -3.001224   -0.261582    1.534936
      8          6           0       -4.069777    0.447338    1.913346
      9          1           0       -3.857282    1.303930    2.551594
     10          7           0       -5.355382    0.257898    1.623075
     11          6           0       -5.506408   -0.819085    0.834588
     12          6           0       -3.186403   -1.339383    0.741758
     13          7           0       -2.120987   -2.048310    0.362963
     14          1           0       -2.211075   -2.853703   -0.223937
     15          1           0       -1.196947   -1.798679    0.652756
     16          1           0       -8.601476   -1.469804    1.004602
     17          1           0       -7.969990    0.028775    1.144427
     18          1           0       -8.442814   -0.524125   -0.315987
     19          7           0       -3.101684    2.427283   -1.390361
     20          6           0       -1.741025    2.326401   -1.227651
     21          6           0       -3.911465    3.624019   -1.085777
     22          7           0        1.288699    3.739757   -0.286936
     23          1           0        2.248927    3.465267   -0.243901
     24          1           0        1.068888    4.669590    0.009393
     25          7           0       -0.921797    3.295784   -0.765919
     26          6           0        0.337806    2.899405   -0.722297
     27          7           0        0.764568    1.649742   -1.101394
     28          1           0        1.747359    1.433901   -1.034366
     29          6           0       -0.060688    0.636678   -1.579437
     30          8           0        0.425574   -0.456465   -1.894593
     31          6           0       -1.416875    1.047637   -1.631991
     32          7           0       -2.551203    0.359555   -2.040315
     33          6           0       -3.523871    1.215351   -1.879882
     34          1           0       -4.571873    1.013455   -2.103926
     35          1           0       -4.593919    3.398819   -0.391253
     36          1           0       -3.315331    4.348820   -0.742925
     37          1           0       -4.371697    3.937190   -1.915789
     38          1           0        6.649864    0.774496    0.141806
     39          1           0        6.888869    1.082829   -1.576462
     40          1           0        5.553746    1.854649   -0.720263
     41          1           0        5.410941   -3.493959   -1.699905
     42          6           0        4.992266   -2.494817   -1.578859
     43          8           0        2.761873   -3.176929   -2.011513
     44          6           0        3.583537   -2.301694   -1.740160
     45          1           0        2.169045   -0.824252   -1.671802
     46          7           0        3.158248   -1.000172   -1.565762
     47          8           0        3.465075    1.206767   -1.127059
     48          6           0        3.934187    0.090367   -1.262139
     49          1           0        6.851904   -1.544385   -1.149623
     50          6           0        5.774933   -1.450654   -1.282610
     51          6           0        6.150894    0.958272   -0.798045
     52          7           0        5.281980   -0.176389   -1.122530
     53          1           0        4.030634    2.104166    4.298724
     54          1           0        2.844892    2.671100    3.331914
     55          1           0        4.402568    2.764530    2.853388
     56          1           0        1.288999   -3.405439    0.152254
     57          1           0        2.929946   -3.323654    0.611282
     58          7           0        2.030014   -2.887380    0.579651
     59          6           0        1.828128   -1.668861    1.085229
     60          6           0        2.473053    0.346710    2.173012
     61          7           0        1.253889    0.907821    2.116463
     62          1           0       -0.627083    0.467620    1.431786
     63          6           0        0.390220    0.088677    1.519814
     64          7           0        0.590485   -1.132137    1.012772
     65          1           0        5.620371    0.109993    2.873387
     66          6           0        4.597823   -0.057659    2.533957
     67          7           0        4.181725   -1.143903    1.930111
     68          6           0        2.836138   -0.900626    1.695671
     69          6           0        3.732842    2.212486    3.350259
     70          7           0        3.616197    0.886206    2.713540
 ---------------------------------------------------------------------

 SCF Done:  E(RwB97XD) =  -2048.74650570     A.U. after   15 cycles

 The electronic state is 1-A.
 Alpha  occ. eigenvalues --  -19.26107 -19.22289 -19.20787 -14.52595 -14.51385
 Alpha  occ. eigenvalues --  -14.49079 -14.48761 -14.48117 -14.47076 -14.46876
 Alpha  occ. eigenvalues --  -14.46057 -14.44453 -14.42845 -14.42695 -14.42169
 Alpha  occ. eigenvalues --  -14.42152 -14.41683 -14.41177 -14.40867 -14.40345
 Alpha  occ. eigenvalues --  -10.45707 -10.41368 -10.40411 -10.38369 -10.38287
 Alpha  occ. eigenvalues --  -10.37907 -10.36977 -10.35899 -10.35607 -10.35552
 Alpha  occ. eigenvalues --  -10.34439 -10.34431 -10.34344 -10.33627 -10.33316
 Alpha  occ. eigenvalues --  -10.33311 -10.33228 -10.31303 -10.31294 -10.31139
 Alpha  occ. eigenvalues --  -10.30729 -10.28762 -10.28196  -1.19655  -1.14049
 Alpha  occ. eigenvalues --   -1.13438  -1.13345  -1.11641  -1.10641  -1.09487
 Alpha  occ. eigenvalues --   -1.08714  -1.07675  -1.05173  -1.03224  -1.02773
 Alpha  occ. eigenvalues --   -1.00566  -0.99924  -0.99806  -0.98650  -0.97198
 Alpha  occ. eigenvalues --   -0.96591  -0.95286  -0.92804  -0.91161  -0.86453
 Alpha  occ. eigenvalues --   -0.84905  -0.84218  -0.84141  -0.83915  -0.82577
 Alpha  occ. eigenvalues --   -0.82459  -0.79037  -0.75693  -0.74691  -0.73805
 Alpha  occ. eigenvalues --   -0.73586  -0.73446  -0.73095  -0.71269  -0.69051
 Alpha  occ. eigenvalues --   -0.67511  -0.66749  -0.66487  -0.65408  -0.64637
 Alpha  occ. eigenvalues --   -0.63871  -0.63004  -0.62799  -0.62719  -0.61857
 Alpha  occ. eigenvalues --   -0.60366  -0.60111  -0.59669  -0.59209  -0.58626
 Alpha  occ. eigenvalues --   -0.58519  -0.58307  -0.56782  -0.56692  -0.56520
 Alpha  occ. eigenvalues --   -0.56172  -0.55495  -0.54589  -0.54556  -0.54242
 Alpha  occ. eigenvalues --   -0.53759  -0.53564  -0.53019  -0.52724  -0.52659
 Alpha  occ. eigenvalues --   -0.52383  -0.51985  -0.51618  -0.51054  -0.50413
 Alpha  occ. eigenvalues --   -0.50292  -0.49676  -0.49322  -0.49277  -0.49005
 Alpha  occ. eigenvalues --   -0.48511  -0.48389  -0.47837  -0.47645  -0.47454
 Alpha  occ. eigenvalues --   -0.47175  -0.45433  -0.45238  -0.44165  -0.43197
 Alpha  occ. eigenvalues --   -0.41405  -0.39659  -0.39531  -0.37400  -0.37379
 Alpha  occ. eigenvalues --   -0.37300  -0.36715  -0.36314  -0.35823  -0.34387
 Alpha  occ. eigenvalues --   -0.33813  -0.33716  -0.33567  -0.33350  -0.32818
 Alpha  occ. eigenvalues --   -0.32813  -0.32350  -0.32208  -0.31934  -0.31204
 Alpha  occ. eigenvalues --   -0.30565  -0.28282  -0.26017  -0.25486
 Alpha virt. eigenvalues --    0.02826   0.05224   0.07790   0.08050   0.08696
 Alpha virt. eigenvalues --    0.09051   0.09630   0.10748   0.10928   0.11925
 Alpha virt. eigenvalues --    0.12947   0.13800   0.14559   0.14617   0.15881

 Mulliken charges:
               1
     1  N   -0.311012
     2  C    0.180502
     3  C    0.043922
     4  N   -0.254996
     5  C    0.130184
     6  H    0.026764
     7  N   -0.287501
     8  C    0.130575
     9  H    0.013258
    10  N   -0.291129
    11  C    0.230160
    12  C    0.109291
    13  N   -0.044480
    14  H    0.109886
    15  H    0.090503
    16  H    0.026862
    17  H    0.034328
    18  H    0.024055
    19  N   -0.309116
    20  C    0.254375
    21  C    0.180001
    22  N   -0.120203
    23  H    0.112387
    24  H    0.117595
    25  N   -0.307827
    26  C    0.244754
    27  N   -0.137755
    28  H    0.116489
    29  C    0.169333
    30  O   -0.323375
    31  C   -0.002625
    32  N   -0.225268
    33  C    0.128886
    34  H    0.026968
    35  H    0.032670
    36  H    0.027935
    37  H    0.023099
    38  H    0.054370
    39  H    0.062481
    40  H    0.072559
    41  H    0.028775
    42  C   -0.103027
    43  O   -0.281983
    44  C    0.153480
    45  H    0.138367
    46  N   -0.123893
    47  O   -0.349370
    48  C    0.353579
    49  H    0.047528
    50  C    0.188072
    51  C    0.040964
    52  N   -0.285898
    53  H    0.032150
    54  H    0.040806
    55  H    0.020736
    56  H    0.126007
    57  H    0.116010
    58  N   -0.033572
    59  C    0.098856
    60  C    0.245200
    61  N   -0.274706
    62  H    0.036264
    63  C    0.164415
    64  N   -0.301956
    65  H    0.029261
    66  C    0.123066
    67  N   -0.257466
    68  C   -0.000313
    69  C    0.179934
    70  N   -0.310187
 Sum of Mulliken charges =  -0.00000

 Dipole moment (field-independent basis, Debye):
    X=              6.9269    Y=              6.1995    Z=              2.6555  Tot=              9.6678
 Quadrupole moment (field-independent basis, Debye-Ang):
   XX=           -142.7136   YY=           -224.3997   ZZ=           -253.3941
   XY=              7.8470   XZ=             13.5966   YZ=             -2.0415

 Normal termination of Gaussian 16 at Sun Jan 21 11:59:55 2018.
