 Gaussian 16, Revision A.03,
 Gaussian 16:  EM64L-G16RevA.03 25-Dec-2016

 ---------------------------------------
 #p wb97xd/cc-pvdz sp scf=(maxcycles=20)
 ---------------------------------------

 ------------------
 Base pair stacking
 ------------------
 Symbolic Z-matrix:
 Charge =  0 Multiplicity = 1

                         Standard orientation:
 ---------------------------------------------------------------------
 Center     Atomic      Atomic             Coordinates (Angstroms)
 Number     Number       Type             X           Y           Z
 ---------------------------------------------------------------------
      1          7           0       -5.807614   -1.569072    0.946592
      2          6           0       -7.162767   -1.036939    1.188245
      3          6           0       -3.623271   -1.814925    0.872287
      4          7           0       -4.161635   -2.946300    0.276568
      5          6           0       -5.456069   -2.752903    0.345181
      6          1           0       -6.207549   -3.447780   -0.030794
      7          7           0       -2.105662   -0.224942    1.727726
      8          6           0       -3.175964    0.497521    2.074248
      9          1           0       -2.958332    1.444099    2.567083
     10          7           0       -4.468667    0.227527    1.904184
     11          6           0       -4.625594   -0.956917    1.290264
     12          6           0       -2.296902   -1.411945    1.111673
     13          7           0       -1.229754   -2.134563    0.764993
     14          1           0       -1.324149   -3.019196    0.307015
     15          1           0       -0.300065   -1.816491    0.951122
     16          1           0       -7.673921   -1.673019    1.766437
     17          1           0       -7.096988   -0.150920    1.646238
     18          1           0       -7.639536   -0.924985    0.316372
     19          7           0       -4.101136    2.113185   -1.203184
     20          6           0       -2.729111    2.087347   -1.132808
     21          6           0       -4.954433    3.254700   -0.816492
     22          7           0        0.272930    3.652592   -0.358541
     23          1           0        1.247747    3.432951   -0.385521
     24          1           0        0.021741    4.561821   -0.025473
     25          7           0       -1.936361    3.092344   -0.702041
     26          6           0       -0.656445    2.768258   -0.751129
     27          7           0       -0.186746    1.553443   -1.188290
     28          1           0        0.808877    1.393139   -1.191365
     29          6           0       -0.984148    0.504832   -1.635998
     30          8           0       -0.459636   -0.551663   -2.009399
     31          6           0       -2.361691    0.838112   -1.589109
     32          7           0       -3.480508    0.094639   -1.938916
     33          6           0       -4.486633    0.889508   -1.693755
     34          1           0       -5.534350    0.632413   -1.853374
     35          1           0       -5.575107    2.976087   -0.084408
     36          1           0       -4.378176    4.005231   -0.495723
     37          1           0       -5.486077    3.558225   -1.606454
     38          1           0        5.808406    0.992308   -0.356645
     39          1           0        5.914071    1.349866   -2.078746
     40          1           0        4.598203    2.025476   -1.117791
     41          1           0        4.689832   -3.300769   -2.218077
     42          6           0        4.224916   -2.330115   -2.045063
     43          8           0        2.012241   -3.130165   -2.346953
     44          6           0        2.799948   -2.215010   -2.108597
     45          1           0        1.312690   -0.823144   -1.910854
     46          7           0        2.315078   -0.944056   -1.874453
     47          8           0        2.526532    1.267195   -1.402351
     48          6           0        3.047320    0.182704   -1.595577
     49          1           0        6.052992   -1.283499   -1.715586
     50          6           0        4.965963   -1.249098   -1.775142
     51          6           0        5.238059    1.166762   -1.256825
     52          7           0        4.414268   -0.008954   -1.551500
     53          1           0        4.985927    2.737706    3.628912
     54          1           0        3.718158    3.120383    2.675802
     55          1           0        5.236686    3.192166    2.081655
     56          1           0        2.212622   -3.399962    0.513892
     57          1           0        3.874917   -3.200696    0.841263
     58          7           0        2.957612   -2.802195    0.810224
     59          6           0        2.738635   -1.530046    1.149131
     60          6           0        3.368617    0.641605    1.889951
     61          7           0        2.126273    1.149884    1.838660
     62          1           0        0.224901    0.555811    1.356480
     63          6           0        1.260496    0.225899    1.426823
     64          7           0        1.477854   -1.048769    1.086910
     65          1           0        6.561518    0.608410    2.396368
     66          6           0        5.527034    0.361081    2.156351
     67          7           0        5.118066   -0.813991    1.744485
     68          6           0        3.751325   -0.649856    1.571827
     69          6           0        4.623577    2.697468    2.697742
     70          7           0        4.520961    1.289683    2.266929
 ---------------------------------------------------------------------

 SCF Done:  E(RwB97XD) =  -2048.75347979     A.U. after   15 cycles

 The electronic state is 1-A.
 Alpha  occ. eigenvalues --  -19.25749 -19.21984 -19.20599 -14.52324 -14.52212
 Alpha  occ. eigenvalues --  -14.48777 -14.48651 -14.47673 -14.47635 -14.46882
 Alpha  occ. eigenvalues --  -14.46568 -14.45382 -14.44019 -14.43974 -14.42283
 Alpha  occ. eigenvalues --  -14.41953 -14.41280 -14.41070 -14.40845 -14.40311
 Alpha  occ. eigenvalues --  -10.45315 -10.41175 -10.40110 -10.39600 -10.38204
 Alpha  occ. eigenvalues --  -10.37894 -10.37536 -10.36990 -10.35492 -10.35451
 Alpha  occ. eigenvalues --  -10.35091 -10.34252 -10.33999 -10.33897 -10.33344
 Alpha  occ. eigenvalues --  -10.33296 -10.33167 -10.32461 -10.31201 -10.30888
 Alpha  occ. eigenvalues --  -10.30676 -10.28461 -10.28030  -1.19310  -1.15057
 Alpha  occ. eigenvalues --   -1.13153  -1.13021  -1.11309  -1.10506  -1.09141
 Alpha  occ. eigenvalues --   -1.08953  -1.08506  -1.05073  -1.04464  -1.02373
 Alpha  occ. eigenvalues --   -1.00817  -1.00480  -0.99660  -0.98489  -0.96968
 Alpha  occ. eigenvalues --   -0.96493  -0.96483  -0.92744  -0.90855  -0.87459
 Alpha  occ. eigenvalues --   -0.85798  -0.84024  -0.83963  -0.83517  -0.82393
 Alpha  occ. eigenvalues --   -0.82350  -0.78671  -0.76800  -0.74628  -0.74493
 Alpha  occ. eigenvalues --   -0.73577  -0.73231  -0.72921  -0.71087  -0.70154
 Alpha  occ. eigenvalues --   -0.67311  -0.66513  -0.66384  -0.66324  -0.64350
 Alpha  occ. eigenvalues --   -0.63983  -0.63658  -0.62756  -0.62594  -0.61693
 Alpha  occ. eigenvalues --   -0.60735  -0.60418  -0.60220  -0.59299  -0.59250
 Alpha  occ. eigenvalues --   -0.58788  -0.58283  -0.56781  -0.56618  -0.56252
 Alpha  occ. eigenvalues --   -0.55866  -0.55526  -0.55121  -0.54394  -0.54205
 Alpha  occ. eigenvalues --   -0.53695  -0.53548  -0.53328  -0.53213  -0.52866
 Alpha  occ. eigenvalues --   -0.52592  -0.52360  -0.51875  -0.50843  -0.50305
 Alpha  occ. eigenvalues --   -0.50089  -0.49743  -0.49364  -0.48922  -0.48895
 Alpha  occ. eigenvalues --   -0.48756  -0.48329  -0.48180  -0.47460  -0.47326
 Alpha  occ. eigenvalues --   -0.46992  -0.45767  -0.44889  -0.44582  -0.43561
 Alpha  occ. eigenvalues --   -0.41132  -0.40519  -0.39334  -0.37617  -0.37310
 Alpha  occ. eigenvalues --   -0.37264  -0.37199  -0.37159  -0.36104  -0.34517
 Alpha  occ. eigenvalues --   -0.34140  -0.33989  -0.33449  -0.33390  -0.33187
 Alpha  occ. eigenvalues --   -0.32608  -0.32340  -0.32026  -0.31850  -0.30942
 Alpha  occ. eigenvalues --   -0.30519  -0.29419  -0.25711  -0.25332
 Alpha virt. eigenvalues --    0.03217   0.04184   0.07327   0.07783   0.08436
 Alpha virt. eigenvalues --    0.09155   0.09840   0.10612   0.11088   0.11943
 Alpha virt. eigenvalues --    0.13086   0.14141   0.14288   0.14588   0.15089

 Mulliken charges:
               1
     1  N   -0.311305
     2  C    0.179306
     3  C    0.066689
     4  N   -0.255216
     5  C    0.134073
     6  H    0.026021
     7  N   -0.292566
     8  C    0.135280
     9  H    0.012074
    10  N   -0.289829
    11  C    0.233934
    12  C    0.098952
    13  N   -0.048335
    14  H    0.112091
    15  H    0.086102
    16  H    0.026750
    17  H    0.031950
    18  H    0.022767
    19  N   -0.302833
    20  C    0.253739
    21  C    0.181462
    22  N   -0.117295
    23  H    0.114880
    24  H    0.116888
    25  N   -0.308333
    26  C    0.237477
    27  N   -0.146296
    28  H    0.123004
    29  C    0.184647
    30  O   -0.324270
    31  C   -0.014656
    32  N   -0.221856
    33  C    0.127593
    34  H    0.018559
    35  H    0.028509
    36  H    0.028220
    37  H    0.022011
    38  H    0.055674
    39  H    0.060643
    40  H    0.072910
    41  H    0.023660
    42  C   -0.112304
    43  O   -0.272128
    44  C    0.160778
    45  H    0.132241
    46  N   -0.113638
    47  O   -0.341161
    48  C    0.335095
    49  H    0.046412
    50  C    0.177413
    51  C    0.039100
    52  N   -0.278477
    53  H    0.034413
    54  H    0.039970
    55  H    0.024092
    56  H    0.127438
    57  H    0.116962
    58  N   -0.052991
    59  C    0.089190
    60  C    0.240674
    61  N   -0.270121
    62  H    0.037644
    63  C    0.155642
    64  N   -0.300022
    65  H    0.036509
    66  C    0.116179
    67  N   -0.257280
    68  C    0.028103
    69  C    0.181960
    70  N   -0.304770
 Sum of Mulliken charges =  -0.00000

 Dipole moment (field-independent basis, Debye):
    X=              6.7806    Y=              6.5703    Z=              3.0090  Tot=              9.9095
 Quadrupole moment (field-independent basis, Debye-Ang):
   XX=           -147.8402   YY=           -223.6997   ZZ=           -256.9562
   XY=              6.9695   XZ=              2.9021   YZ=             -5.1002

 Normal termination of Gaussian 16 at Sun Jan 21 18:31:33 2018.
