 Gaussian 16, Revision A.03,
 Gaussian 16:  EM64L-G16RevA.03 25-Dec-2016

 ---------------------------------------
 #p wb97xd/cc-pvdz sp scf=(maxcycles=20)
 ---------------------------------------

 ------------------
 Base pair stacking
 ------------------
 Symbolic Z-matrix:
 Charge =  0 Multiplicity = 1

                         Standard orientation:
 ---------------------------------------------------------------------
 Center     Atomic      Atomic             Coordinates (Angstroms)
 Number     Number       Type             X           Y           Z
 ---------------------------------------------------------------------
      1          7           0       -6.081607   -1.374582    0.827354
      2          6           0       -7.431013   -0.781471    0.900180
      3          6           0       -3.903613   -1.670584    0.905187
      4          7           0       -4.446065   -2.883378    0.505681
      5          6           0       -5.736510   -2.656507    0.474772
      6          1           0       -6.489502   -3.395457    0.199299
      7          7           0       -2.382069    0.023095    1.521081
      8          6           0       -3.446409    0.817491    1.675019
      9          1           0       -3.224802    1.835470    1.992622
     10          7           0       -4.737322    0.544481    1.496389
     11          6           0       -4.899491   -0.730943    1.107240
     12          6           0       -2.578490   -1.254601    1.128662
     13          7           0       -1.517302   -2.049127    0.974444
     14          1           0       -1.615656   -3.002022    0.685434
     15          1           0       -0.588308   -1.719151    1.142449
     16          1           0       -7.984093   -1.288238    1.561601
     17          1           0       -7.361185    0.173334    1.187592
     18          1           0       -7.865996   -0.826124    0.000853
     19          7           0       -3.810466    1.985105   -1.383900
     20          6           0       -2.442885    1.949680   -1.255357
     21          6           0       -4.668982    3.141285   -1.056939
     22          7           0        0.537956    3.506487   -0.387775
     23          1           0        1.511043    3.278481   -0.369215
     24          1           0        0.281176    4.424466   -0.084287
     25          7           0       -1.659921    2.957032   -0.812342
     26          6           0       -0.382021    2.621683   -0.800883
     27          7           0        0.094710    1.394255   -1.192897
     28          1           0        1.088110    1.225899   -1.150797
     29          6           0       -0.692574    0.342995   -1.652139
     30          8           0       -0.162348   -0.725260   -1.981405
     31          6           0       -2.067834    0.688277   -1.670082
     32          7           0       -3.177627   -0.053288   -2.051319
     33          6           0       -4.186000    0.754610   -1.865044
     34          1           0       -5.228355    0.502699   -2.063286
     35          1           0       -5.322234    2.883029   -0.346048
     36          1           0       -4.099985    3.893676   -0.727679
     37          1           0       -5.164339    3.432538   -1.874619
     38          1           0        6.044510    0.802270   -0.098471
     39          1           0        6.225409    1.122962   -1.821579
     40          1           0        4.876526    1.829058   -0.930887
     41          1           0        4.966587   -3.519547   -1.916859
     42          6           0        4.503518   -2.541790   -1.783501
     43          8           0        2.298383   -3.330095   -2.161713
     44          6           0        3.083548   -2.416542   -1.909267
     45          1           0        1.601800   -1.008904   -1.802854
     46          7           0        2.600665   -1.137111   -1.721844
     47          8           0        2.811905    1.081728   -1.286720
     48          6           0        3.330629   -0.010715   -1.435579
     49          1           0        6.325464   -1.503296   -1.398953
     50          6           0        5.242238   -1.461382   -1.504877
     51          6           0        5.513946    0.962499   -1.025248
     52          7           0        4.692753   -0.212424   -1.330119
     53          1           0        4.697758    3.157263    3.174978
     54          1           0        3.483758    3.377958    2.107466
     55          1           0        5.028193    3.308808    1.583983
     56          1           0        1.896988   -3.402961    1.129297
     57          1           0        3.548203   -3.176797    1.493235
     58          7           0        2.644337   -2.774191    1.344417
     59          6           0        2.445515   -1.457214    1.429296
     60          6           0        3.101473    0.802726    1.781649
     61          7           0        1.876860    1.315392    1.576886
     62          1           0       -0.017101    0.676914    1.123159
     63          6           0        1.005063    0.346840    1.303440
     64          7           0        1.202238   -0.972787    1.217962
     65          1           0        6.267100    0.805696    2.438132
     66          6           0        5.237730    0.537031    2.199039
     67          7           0        4.815279   -0.686605    1.994304
     68          6           0        3.462373   -0.532372    1.728633
     69          6           0        4.375494    2.949896    2.251325
     70          7           0        4.253464    1.488452    2.086103
 ---------------------------------------------------------------------

 SCF Done:  E(RwB97XD) =  -2048.75165238     A.U. after   15 cycles

 The electronic state is 1-A.
 Alpha  occ. eigenvalues --  -19.25696 -19.21838 -19.20470 -14.52292 -14.52243
 Alpha  occ. eigenvalues --  -14.49114 -14.48400 -14.47687 -14.47648 -14.46659
 Alpha  occ. eigenvalues --  -14.46245 -14.45324 -14.43938 -14.43900 -14.42646
 Alpha  occ. eigenvalues --  -14.41786 -14.41653 -14.41416 -14.40641 -14.40586
 Alpha  occ. eigenvalues --  -10.45301 -10.40932 -10.39969 -10.39594 -10.38019
 Alpha  occ. eigenvalues --  -10.37854 -10.37574 -10.36955 -10.35784 -10.35426
 Alpha  occ. eigenvalues --  -10.35184 -10.34330 -10.34055 -10.34008 -10.33673
 Alpha  occ. eigenvalues --  -10.33468 -10.33097 -10.32356 -10.31431 -10.30844
 Alpha  occ. eigenvalues --  -10.30294 -10.28792 -10.27796  -1.19310  -1.15021
 Alpha  occ. eigenvalues --   -1.13000  -1.12865  -1.11656  -1.10315  -1.09149
 Alpha  occ. eigenvalues --   -1.08888  -1.08311  -1.05392  -1.04429  -1.02323
 Alpha  occ. eigenvalues --   -1.00840  -1.00796  -0.99409  -0.98323  -0.97292
 Alpha  occ. eigenvalues --   -0.96450  -0.96264  -0.93068  -0.90838  -0.87470
 Alpha  occ. eigenvalues --   -0.85862  -0.84292  -0.83771  -0.83571  -0.82678
 Alpha  occ. eigenvalues --   -0.82077  -0.78659  -0.76798  -0.74610  -0.74306
 Alpha  occ. eigenvalues --   -0.73393  -0.73243  -0.73172  -0.71417  -0.70170
 Alpha  occ. eigenvalues --   -0.67095  -0.66663  -0.66523  -0.66334  -0.64270
 Alpha  occ. eigenvalues --   -0.64014  -0.63501  -0.63079  -0.62492  -0.61463
 Alpha  occ. eigenvalues --   -0.60881  -0.60655  -0.60306  -0.59350  -0.59257
 Alpha  occ. eigenvalues --   -0.58637  -0.58033  -0.57018  -0.56889  -0.56238
 Alpha  occ. eigenvalues --   -0.55817  -0.55784  -0.55212  -0.54501  -0.54161
 Alpha  occ. eigenvalues --   -0.53928  -0.53372  -0.53271  -0.53016  -0.52641
 Alpha  occ. eigenvalues --   -0.52490  -0.52387  -0.52156  -0.51136  -0.50573
 Alpha  occ. eigenvalues --   -0.49889  -0.49713  -0.49282  -0.49102  -0.48725
 Alpha  occ. eigenvalues --   -0.48558  -0.48332  -0.48084  -0.47304  -0.47262
 Alpha  occ. eigenvalues --   -0.47191  -0.45526  -0.45135  -0.44455  -0.43637
 Alpha  occ. eigenvalues --   -0.41488  -0.40556  -0.39315  -0.37586  -0.37502
 Alpha  occ. eigenvalues --   -0.37385  -0.37068  -0.37022  -0.35912  -0.34484
 Alpha  occ. eigenvalues --   -0.34130  -0.33911  -0.33754  -0.33408  -0.33036
 Alpha  occ. eigenvalues --   -0.32486  -0.32202  -0.31841  -0.31688  -0.31238
 Alpha  occ. eigenvalues --   -0.30825  -0.29538  -0.26010  -0.25061
 Alpha virt. eigenvalues --    0.03212   0.04291   0.07300   0.07487   0.08491
 Alpha virt. eigenvalues --    0.09087   0.09972   0.10717   0.10903   0.11611
 Alpha virt. eigenvalues --    0.13129   0.13930   0.14356   0.14512   0.14955

 Mulliken charges:
               1
     1  N   -0.312030
     2  C    0.179201
     3  C    0.066029
     4  N   -0.257083
     5  C    0.133328
     6  H    0.027168
     7  N   -0.285201
     8  C    0.136238
     9  H    0.013617
    10  N   -0.287420
    11  C    0.230541
    12  C    0.101565
    13  N   -0.049228
    14  H    0.110266
    15  H    0.087710
    16  H    0.027443
    17  H    0.032347
    18  H    0.024736
    19  N   -0.293649
    20  C    0.241558
    21  C    0.180912
    22  N   -0.105267
    23  H    0.112784
    24  H    0.114064
    25  N   -0.302458
    26  C    0.220314
    27  N   -0.143938
    28  H    0.127659
    29  C    0.169348
    30  O   -0.323915
    31  C   -0.001599
    32  N   -0.222448
    33  C    0.126749
    34  H    0.018296
    35  H    0.024836
    36  H    0.026330
    37  H    0.021048
    38  H    0.052839
    39  H    0.060557
    40  H    0.071583
    41  H    0.026760
    42  C   -0.115012
    43  O   -0.268989
    44  C    0.170079
    45  H    0.132905
    46  N   -0.122614
    47  O   -0.339432
    48  C    0.339580
    49  H    0.046036
    50  C    0.179265
    51  C    0.040309
    52  N   -0.280404
    53  H    0.035177
    54  H    0.037331
    55  H    0.022574
    56  H    0.125563
    57  H    0.118015
    58  N   -0.058345
    59  C    0.105450
    60  C    0.243197
    61  N   -0.274665
    62  H    0.042783
    63  C    0.150255
    64  N   -0.300931
    65  H    0.037571
    66  C    0.107988
    67  N   -0.252788
    68  C    0.016012
    69  C    0.181301
    70  N   -0.299797
 Sum of Mulliken charges =  -0.00000

 Dipole moment (field-independent basis, Debye):
    X=              6.5778    Y=              6.3011    Z=              3.4174  Tot=              9.7288
 Quadrupole moment (field-independent basis, Debye-Ang):
   XX=           -146.4290   YY=           -225.2752   ZZ=           -257.5389
   XY=              8.8775   XZ=              5.2133   YZ=             -8.6643

 Normal termination of Gaussian 16 at Sun Jan 21 18:43:37 2018.
