 Gaussian 16, Revision A.03,
 Gaussian 16:  EM64L-G16RevA.03 25-Dec-2016

 ---------------------------------------
 #p wb97xd/cc-pvdz sp scf=(maxcycles=20)
 ---------------------------------------

 ------------------
 Base pair stacking
 ------------------
 Symbolic Z-matrix:
 Charge =  0 Multiplicity = 1

                         Standard orientation:
 ---------------------------------------------------------------------
 Center     Atomic      Atomic             Coordinates (Angstroms)
 Number     Number       Type             X           Y           Z
 ---------------------------------------------------------------------
      1          7           0       -7.113521   -1.089059    0.186597
      2          6           0       -8.428166   -0.439939    0.018205
      3          6           0       -4.972691   -1.451906    0.536581
      4          7           0       -5.542782   -2.693872    0.297296
      5          6           0       -6.809731   -2.425555    0.096022
      6          1           0       -7.574010   -3.171360   -0.124445
      7          7           0       -3.422605    0.262739    1.005778
      8          6           0       -4.450151    1.112943    0.911578
      9          1           0       -4.202267    2.161450    1.071108
     10          7           0       -5.731892    0.863592    0.651118
     11          6           0       -5.928514   -0.453050    0.471649
     12          6           0       -3.653078   -1.055380    0.819989
     13          7           0       -2.628644   -1.905634    0.913622
     14          1           0       -2.753033   -2.889933    0.783565
     15          1           0       -1.702414   -1.587924    1.116842
     16          1           0       -9.068689   -0.800269    0.696485
     17          1           0       -8.331875    0.547064    0.143443
     18          1           0       -8.778514   -0.625109   -0.899922
     19          7           0       -2.657965    1.938388   -1.572614
     20          6           0       -1.310522    1.869652   -1.312382
     21          6           0       -3.513774    3.118594   -1.337204
     22          7           0        1.612109    3.358325   -0.170530
     23          1           0        2.572646    3.106054   -0.056672
     24          1           0        1.351122    4.285049    0.101105
     25          7           0       -0.548092    2.860743   -0.802005
     26          6           0        0.713639    2.493439   -0.665126
     27          7           0        1.193995    1.251074   -1.001716
     28          1           0        2.174020    1.058126   -0.862843
     29          6           0        0.427695    0.216062   -1.528394
     30          8           0        0.959357   -0.868005   -1.798348
     31          6           0       -0.930033    0.595691   -1.681201
     32          7           0       -2.016728   -0.120955   -2.163279
     33          6           0       -3.017100    0.713649   -2.080231
     34          1           0       -4.041669    0.486357   -2.376662
     35          1           0       -4.238981    2.882986   -0.691162
     36          1           0       -2.959883    3.859232   -0.959149
     37          1           0       -3.920304    3.415177   -2.200678
     38          1           0        6.993263    0.518920    0.665831
     39          1           0        7.347661    0.820111   -1.033672
     40          1           0        5.937945    1.567586   -0.281776
     41          1           0        5.984116   -3.789876   -1.221607
     42          6           0        5.535816   -2.799653   -1.139602
     43          8           0        3.357737   -3.535423   -1.724177
     44          6           0        4.138299   -2.639793   -1.402685
     45          1           0        2.690146   -1.194427   -1.448508
     46          7           0        3.672894   -1.347039   -1.270633
     47          8           0        3.898585    0.869441   -0.830757
     48          6           0        4.400777   -0.236962   -0.922122
     49          1           0        7.338480   -1.804093   -0.587256
     50          6           0        6.271964   -1.735833   -0.797561
     51          6           0        6.558837    0.684465   -0.308807
     52          7           0        5.740718   -0.471982   -0.684362
     53          1           0        3.636001    3.359011    2.814497
     54          1           0        2.542129    3.435785    1.606341
     55          1           0        4.122551    3.215059    1.263380
     56          1           0        0.674086   -3.343904    1.646848
     57          1           0        2.293899   -3.122138    2.133791
     58          7           0        1.432196   -2.716890    1.826457
     59          6           0        1.300941   -1.398760    1.663704
     60          6           0        2.047398    0.860420    1.689039
     61          7           0        0.878352    1.376655    1.275193
     62          1           0       -0.997578    0.743046    0.746023
     63          6           0       -0.017160    0.410035    1.083872
     64          7           0        0.112371   -0.910725    1.246340
     65          1           0        5.132398    0.854762    2.655941
     66          6           0        4.116544    0.588774    2.362272
     67          7           0        3.646799   -0.634270    2.327998
     68          6           0        2.335732   -0.476271    1.902717
     69          6           0        3.390803    3.005097    1.911938
     70          7           0        3.202534    1.543315    1.987870
 ---------------------------------------------------------------------

 SCF Done:  E(RwB97XD) =  -2048.67654612     A.U. after   15 cycles

 The electronic state is 1-A.
 Alpha  occ. eigenvalues --  -19.26034 -19.21885 -19.20416 -14.52503 -14.51619
 Alpha  occ. eigenvalues --  -14.49842 -14.48419 -14.47832 -14.46867 -14.46058
 Alpha  occ. eigenvalues --  -14.45916 -14.44589 -14.43179 -14.43145 -14.42509
 Alpha  occ. eigenvalues --  -14.42316 -14.42198 -14.41851 -14.41246 -14.40614
 Alpha  occ. eigenvalues --  -10.45594 -10.41169 -10.40005 -10.38671 -10.37979
 Alpha  occ. eigenvalues --  -10.37705 -10.37196 -10.36527 -10.36053 -10.35805
 Alpha  occ. eigenvalues --  -10.35151 -10.34548 -10.34289 -10.34254 -10.34162
 Alpha  occ. eigenvalues --  -10.33526 -10.33038 -10.31812 -10.31592 -10.31005
 Alpha  occ. eigenvalues --  -10.30182 -10.29708 -10.27947  -1.19586  -1.14475
 Alpha  occ. eigenvalues --   -1.13181  -1.12932  -1.12461  -1.10379  -1.09391
 Alpha  occ. eigenvalues --   -1.08750  -1.07969  -1.06139  -1.03666  -1.02478
 Alpha  occ. eigenvalues --   -1.01559  -1.00611  -0.99554  -0.98394  -0.98009
 Alpha  occ. eigenvalues --   -0.96391  -0.95654  -0.93779  -0.91033  -0.87008
 Alpha  occ. eigenvalues --   -0.85591  -0.85049  -0.83997  -0.83885  -0.83336
 Alpha  occ. eigenvalues --   -0.82194  -0.78874  -0.76138  -0.74781  -0.74024
 Alpha  occ. eigenvalues --   -0.73916  -0.73500  -0.73337  -0.72272  -0.69578
 Alpha  occ. eigenvalues --   -0.67585  -0.67390  -0.66577  -0.65970  -0.64451
 Alpha  occ. eigenvalues --   -0.63871  -0.63688  -0.63407  -0.62759  -0.61950
 Alpha  occ. eigenvalues --   -0.61283  -0.60396  -0.59760  -0.59525  -0.59494
 Alpha  occ. eigenvalues --   -0.58780  -0.58190  -0.57756  -0.57369  -0.57140
 Alpha  occ. eigenvalues --   -0.56422  -0.55928  -0.55586  -0.54487  -0.54383
 Alpha  occ. eigenvalues --   -0.53837  -0.53486  -0.53123  -0.52783  -0.52686
 Alpha  occ. eigenvalues --   -0.52559  -0.52259  -0.51772  -0.51710  -0.51108
 Alpha  occ. eigenvalues --   -0.50105  -0.49922  -0.49444  -0.49325  -0.48652
 Alpha  occ. eigenvalues --   -0.48597  -0.48278  -0.48101  -0.47761  -0.47285
 Alpha  occ. eigenvalues --   -0.47235  -0.46016  -0.45474  -0.43992  -0.42639
 Alpha  occ. eigenvalues --   -0.42281  -0.39682  -0.39578  -0.38337  -0.37339
 Alpha  occ. eigenvalues --   -0.37143  -0.36934  -0.36094  -0.35637  -0.35018
 Alpha  occ. eigenvalues --   -0.34601  -0.34557  -0.33086  -0.32905  -0.32597
 Alpha  occ. eigenvalues --   -0.32412  -0.32184  -0.31906  -0.31731  -0.31620
 Alpha  occ. eigenvalues --   -0.31231  -0.27916  -0.26916  -0.25230
 Alpha virt. eigenvalues --    0.03222   0.04461   0.06849   0.07906   0.08437
 Alpha virt. eigenvalues --    0.09096   0.09643   0.09745   0.11329   0.12314
 Alpha virt. eigenvalues --    0.12991   0.13158   0.14397   0.14587   0.14712

 Mulliken charges:
               1
     1  N   -0.311982
     2  C    0.180510
     3  C    0.039859
     4  N   -0.257982
     5  C    0.134758
     6  H    0.030254
     7  N   -0.271538
     8  C    0.112837
     9  H    0.024930
    10  N   -0.288126
    11  C    0.235240
    12  C    0.106200
    13  N   -0.047898
    14  H    0.107346
    15  H    0.088010
    16  H    0.027998
    17  H    0.035236
    18  H    0.027617
    19  N   -0.292529
    20  C    0.216558
    21  C    0.181756
    22  N   -0.080490
    23  H    0.088958
    24  H    0.118574
    25  N   -0.273327
    26  C    0.196811
    27  N   -0.104683
    28  H    0.124383
    29  C    0.127355
    30  O   -0.320571
    31  C    0.012641
    32  N   -0.220625
    33  C    0.120688
    34  H    0.027714
    35  H    0.019717
    36  H    0.025636
    37  H    0.022255
    38  H    0.057442
    39  H    0.065261
    40  H    0.071534
    41  H    0.031493
    42  C   -0.108508
    43  O   -0.266561
    44  C    0.182297
    45  H    0.134687
    46  N   -0.134961
    47  O   -0.352036
    48  C    0.360667
    49  H    0.046848
    50  C    0.174996
    51  C    0.033350
    52  N   -0.292433
    53  H    0.031638
    54  H    0.016299
    55  H    0.027356
    56  H    0.118792
    57  H    0.118815
    58  N   -0.067308
    59  C    0.129710
    60  C    0.223536
    61  N   -0.268788
    62  H    0.074064
    63  C    0.144237
    64  N   -0.300585
    65  H    0.025463
    66  C    0.121008
    67  N   -0.256538
    68  C    0.016776
    69  C    0.175622
    70  N   -0.298261
 Sum of Mulliken charges =  -0.00000

 Dipole moment (field-independent basis, Debye):
    X=              5.6423    Y=              5.7545    Z=              4.0744  Tot=              9.0305
 Quadrupole moment (field-independent basis, Debye-Ang):
   XX=           -138.6823   YY=           -228.5846   ZZ=           -255.8427
   XY=             14.6902   XZ=             16.0864   YZ=            -10.2237

 Normal termination of Gaussian 16 at Sun Jan 21 13:10:32 2018.
