 Gaussian 16, Revision A.03,
 Gaussian 16:  EM64L-G16RevA.03 25-Dec-2016

 ---------------------------------------
 #p wb97xd/cc-pvdz sp scf=(maxcycles=20)
 ---------------------------------------

 ------------------
 Base pair stacking
 ------------------
 Symbolic Z-matrix:
 Charge =  0 Multiplicity = 1

                         Standard orientation:
 ---------------------------------------------------------------------
 Center     Atomic      Atomic             Coordinates (Angstroms)
 Number     Number       Type             X           Y           Z
 ---------------------------------------------------------------------
      1          7           0        4.567444   -1.561638   -1.783100
      2          6           0        5.915572   -1.043765   -2.086980
      3          6           0        2.394265   -1.738052   -1.494126
      4          7           0        2.930176   -2.977051   -1.174086
      5          6           0        4.217981   -2.821174   -1.360996
      6          1           0        4.965807   -3.599134   -1.204559
      7          7           0        0.883977    0.033864   -1.871309
      8          6           0        1.948663    0.768018   -2.210512
      9          1           0        1.731902    1.795247   -2.500460
     10          7           0        3.234858    0.425372   -2.245148
     11          6           0        3.391286   -0.855333   -1.871326
     12          6           0        1.074548   -1.250980   -1.499930
     13          7           0        0.013001   -1.985423   -1.160976
     14          1           0        0.107131   -2.941035   -0.879608
     15          1           0       -0.912046   -1.605703   -1.176733
     16          1           0        6.322889   -1.582938   -2.824238
     17          1           0        5.849903   -0.087810   -2.371538
     18          1           0        6.491280   -1.108346   -1.271875
     19          7           0        5.340772    1.663393    0.813711
     20          6           0        3.970546    1.701755    0.908900
     21          6           0        6.202218    2.800693    0.432724
     22          7           0        0.985783    3.458929    0.653483
     23          1           0        0.010575    3.278514    0.778669
     24          1           0        1.244080    4.385101    0.377449
     25          7           0        3.187221    2.776212    0.672284
     26          6           0        1.906515    2.502495    0.846849
     27          7           0        1.427500    1.271391    1.224249
     28          1           0        0.432014    1.153183    1.333792
     29          6           0        2.215094    0.151721    1.473027
     30          8           0        1.682653   -0.913448    1.808672
     31          6           0        3.593372    0.430295    1.289583
     32          7           0        4.704436   -0.389790    1.430562
     33          6           0        5.715642    0.382623    1.138905
     34          1           0        6.759704    0.067724    1.145366
     35          1           0        6.717084    2.569380   -0.392025
     36          1           0        5.632998    3.602354    0.255012
     37          1           0        6.838205    3.003111    1.176615
     38          1           0       -4.645097    1.044559    1.080924
     39          1           0       -4.528933    1.236135    2.828624
     40          1           0       -3.300849    1.947023    1.780867
     41          1           0       -3.545442   -3.452805    2.389009
     42          6           0       -3.053156   -2.490113    2.250766
     43          8           0       -0.865968   -3.407348    2.205936
     44          6           0       -1.626475   -2.441244    2.150589
     45          1           0       -0.100890   -1.099900    1.902158
     46          7           0       -1.105625   -1.174800    1.977149
     47          8           0       -1.253302    1.078893    1.739930
     48          6           0       -1.804667    0.003357    1.894475
     49          1           0       -4.849094   -1.341031    2.244180
     50          6           0       -3.762302   -1.357945    2.173798
     51          6           0       -3.964654    1.106249    1.917144
     52          7           0       -3.175581   -0.125940    1.999761
     53          1           0       -6.194922    3.544539   -2.368008
     54          1           0       -4.810028    3.702900   -1.520020
     55          1           0       -6.247141    3.720825   -0.746404
     56          1           0       -3.446704   -3.150580   -0.728450
     57          1           0       -5.121008   -2.835749   -0.816049
     58          7           0       -4.184796   -2.482695   -0.824827
     59          6           0       -3.932894   -1.178982   -0.959153
     60          6           0       -4.516812    1.111991   -1.227831
     61          7           0       -3.249609    1.557586   -1.236196
     62          1           0       -1.343340    0.818139   -1.094865
     63          6           0       -2.397388    0.543861   -1.098430
     64          7           0       -2.647725   -0.762580   -0.963757
     65          1           0       -7.742830    1.285795   -1.349361
     66          6           0       -6.703845    0.962096   -1.280994
     67          7           0       -6.319104   -0.281982   -1.132941
     68          6           0       -4.934570   -0.201048   -1.097762
     69          6           0       -5.734822    3.323782   -1.508026
     70          7           0       -5.665158    1.858569   -1.345852
 ---------------------------------------------------------------------

 SCF Done:  E(RwB97XD) =  -2048.74972098     A.U. after   15 cycles

 The electronic state is 1-A.
 Alpha  occ. eigenvalues --  -19.25335 -19.21535 -19.20619 -14.52772 -14.51816
 Alpha  occ. eigenvalues --  -14.49165 -14.48517 -14.48335 -14.47275 -14.46819
 Alpha  occ. eigenvalues --  -14.46691 -14.45669 -14.44779 -14.44715 -14.42713
 Alpha  occ. eigenvalues --  -14.42050 -14.41445 -14.41073 -14.40887 -14.40596
 Alpha  occ. eigenvalues --  -10.44905 -10.41264 -10.40381 -10.39633 -10.38285
 Alpha  occ. eigenvalues --  -10.38228 -10.37571 -10.37264 -10.36256 -10.35662
 Alpha  occ. eigenvalues --  -10.34587 -10.34282 -10.34081 -10.33841 -10.33667
 Alpha  occ. eigenvalues --  -10.33218 -10.33215 -10.33071 -10.31269 -10.30674
 Alpha  occ. eigenvalues --  -10.30551 -10.28432 -10.28352  -1.18892  -1.15548
 Alpha  occ. eigenvalues --   -1.13273  -1.12544  -1.10978  -1.10856  -1.09769
 Alpha  occ. eigenvalues --   -1.08726  -1.08573  -1.05252  -1.05190  -1.01910
 Alpha  occ. eigenvalues --   -1.01245  -1.00632  -0.99767  -0.98665  -0.97318
 Alpha  occ. eigenvalues --   -0.96897  -0.96635  -0.92922  -0.90498  -0.88006
 Alpha  occ. eigenvalues --   -0.86160  -0.84406  -0.83732  -0.83001  -0.82761
 Alpha  occ. eigenvalues --   -0.82128  -0.78349  -0.77378  -0.75214  -0.74828
 Alpha  occ. eigenvalues --   -0.73693  -0.72886  -0.72801  -0.71073  -0.70743
 Alpha  occ. eigenvalues --   -0.67503  -0.67142  -0.66288  -0.66033  -0.64566
 Alpha  occ. eigenvalues --   -0.64439  -0.63539  -0.62750  -0.62682  -0.61908
 Alpha  occ. eigenvalues --   -0.60987  -0.60728  -0.60528  -0.59714  -0.59073
 Alpha  occ. eigenvalues --   -0.58903  -0.58420  -0.57196  -0.56569  -0.55859
 Alpha  occ. eigenvalues --   -0.55768  -0.55676  -0.55463  -0.54600  -0.54156
 Alpha  occ. eigenvalues --   -0.53903  -0.53753  -0.53422  -0.53134  -0.53057
 Alpha  occ. eigenvalues --   -0.52457  -0.51790  -0.51594  -0.50549  -0.50386
 Alpha  occ. eigenvalues --   -0.50270  -0.50036  -0.49536  -0.49171  -0.48873
 Alpha  occ. eigenvalues --   -0.48865  -0.48256  -0.48081  -0.47927  -0.47175
 Alpha  occ. eigenvalues --   -0.46884  -0.45811  -0.45637  -0.44857  -0.42687
 Alpha  occ. eigenvalues --   -0.41270  -0.41012  -0.39033  -0.38209  -0.37941
 Alpha  occ. eigenvalues --   -0.37508  -0.37356  -0.37004  -0.35598  -0.35094
 Alpha  occ. eigenvalues --   -0.34698  -0.34140  -0.33448  -0.33408  -0.33024
 Alpha  occ. eigenvalues --   -0.32680  -0.32603  -0.31965  -0.31432  -0.30721
 Alpha  occ. eigenvalues --   -0.30524  -0.30272  -0.25911  -0.25655
 Alpha virt. eigenvalues --    0.02981   0.04096   0.06438   0.07868   0.08806
 Alpha virt. eigenvalues --    0.09110   0.09721   0.10253   0.10899   0.12151
 Alpha virt. eigenvalues --    0.13120   0.13844   0.14201   0.14573   0.14692

 Mulliken charges:
               1
     1  N   -0.304197
     2  C    0.182900
     3  C    0.059174
     4  N   -0.255910
     5  C    0.150742
     6  H    0.027529
     7  N   -0.291399
     8  C    0.124716
     9  H    0.010619
    10  N   -0.278570
    11  C    0.240662
    12  C    0.081615
    13  N   -0.061470
    14  H    0.115928
    15  H    0.085299
    16  H    0.025218
    17  H    0.028929
    18  H    0.019716
    19  N   -0.308086
    20  C    0.266700
    21  C    0.183401
    22  N   -0.121882
    23  H    0.120755
    24  H    0.118339
    25  N   -0.307206
    26  C    0.237182
    27  N   -0.134533
    28  H    0.119966
    29  C    0.185221
    30  O   -0.320229
    31  C   -0.018093
    32  N   -0.223225
    33  C    0.107044
    34  H    0.025194
    35  H    0.023541
    36  H    0.031949
    37  H    0.024887
    38  H    0.062527
    39  H    0.055504
    40  H    0.076040
    41  H    0.020738
    42  C   -0.109536
    43  O   -0.269229
    44  C    0.170713
    45  H    0.131691
    46  N   -0.122867
    47  O   -0.348835
    48  C    0.343729
    49  H    0.044500
    50  C    0.164435
    51  C    0.045627
    52  N   -0.275532
    53  H    0.035125
    54  H    0.041457
    55  H    0.029099
    56  H    0.123287
    57  H    0.117637
    58  N   -0.054140
    59  C    0.088984
    60  C    0.205721
    61  N   -0.257554
    62  H    0.027751
    63  C    0.170477
    64  N   -0.309692
    65  H    0.039202
    66  C    0.134086
    67  N   -0.253483
    68  C    0.021020
    69  C    0.180708
    70  N   -0.301615
 Sum of Mulliken charges =  -0.00000

 Dipole moment (field-independent basis, Debye):
    X=             -6.8310    Y=              7.4348    Z=             -1.7218  Tot=             10.2422
 Quadrupole moment (field-independent basis, Debye-Ang):
   XX=           -153.3976   YY=           -225.5271   ZZ=           -254.5972
   XY=             -0.8091   XZ=            -13.0306   YZ=             10.6849

 Normal termination of Gaussian 16 at Sun Jan 21 04:39:36 2018.
