 Gaussian 16, Revision A.03,
 Gaussian 16:  EM64L-G16RevA.03 25-Dec-2016

 ---------------------------------------
 #p wb97xd/cc-pvdz sp scf=(maxcycles=20)
 ---------------------------------------

 ------------------
 Base pair stacking
 ------------------
 Symbolic Z-matrix:
 Charge =  0 Multiplicity = 1

                         Standard orientation:
 ---------------------------------------------------------------------
 Center     Atomic      Atomic             Coordinates (Angstroms)
 Number     Number       Type             X           Y           Z
 ---------------------------------------------------------------------
      1          7           0       -6.895382   -1.161356    0.309169
      2          6           0       -8.226606   -0.525517    0.269846
      3          6           0       -4.738934   -1.521119    0.549237
      4          7           0       -5.291224   -2.728183    0.145874
      5          6           0       -6.568296   -2.463130    0.017388
      6          1           0       -7.323780   -3.186684   -0.290286
      7          7           0       -3.209982    0.142994    1.224481
      8          6           0       -4.256108    0.973681    1.280684
      9          1           0       -4.024319    1.993445    1.585004
     10          7           0       -5.539556    0.734922    1.018623
     11          6           0       -5.715455   -0.545978    0.654259
     12          6           0       -3.419883   -1.139236    0.854490
     13          7           0       -2.376872   -1.969954    0.797796
     14          1           0       -2.485680   -2.927599    0.528907
     15          1           0       -1.451674   -1.663571    1.022029
     16          1           0       -8.840760   -0.995280    0.904124
     17          1           0       -8.146072    0.434851    0.535064
     18          1           0       -8.598841   -0.583655   -0.656466
     19          7           0       -2.889274    2.056041   -1.578514
     20          6           0       -1.535912    1.982824   -1.352487
     21          6           0       -3.730542    3.247061   -1.345189
     22          7           0        1.425940    3.473242   -0.319120
     23          1           0        2.387431    3.216346   -0.225392
     24          1           0        1.178514    4.407242   -0.060010
     25          7           0       -0.753537    2.978591   -0.883032
     26          6           0        0.508857    2.604956   -0.771843
     27          7           0        0.971713    1.352458   -1.095113
     28          1           0        1.953750    1.155243   -0.978126
     29          6           0        0.184747    0.312465   -1.579845
     30          8           0        0.701730   -0.780784   -1.841159
     31          6           0       -1.173946    0.698793   -1.704684
     32          7           0       -2.277853   -0.019652   -2.143000
     33          6           0       -3.270005    0.823780   -2.050974
     34          1           0       -4.303583    0.597938   -2.315543
     35          1           0       -4.439966    3.030099   -0.675524
     36          1           0       -3.161835    3.991247   -0.997302
     37          1           0       -4.157771    3.528795   -2.203624
     38          1           0        6.808018    0.612351    0.433973
     39          1           0        7.119313    0.875935   -1.280160
     40          1           0        5.735096    1.648997   -0.507076
     41          1           0        5.720099   -3.726847   -1.336434
     42          6           0        5.280843   -2.731900   -1.263211
     43          8           0        3.083121   -3.463577   -1.774834
     44          6           0        3.877967   -2.567254   -1.492664
     45          1           0        2.438920   -1.112598   -1.530315
     46          7           0        3.424975   -1.268695   -1.375249
     47          8           0        3.677236    0.954644   -0.987558
     48          6           0        4.169332   -0.157035   -1.069134
     49          1           0        7.104201   -1.738401   -0.779312
     50          6           0        6.032970   -1.666684   -0.962818
     51          6           0        6.349066    0.760994   -0.532117
     52          7           0        5.513479   -0.396922   -0.861920
     53          1           0        3.834892    3.107888    3.288815
     54          1           0        2.706337    3.333591    2.132293
     55          1           0        4.280544    3.201873    1.721662
     56          1           0        0.972448   -3.421963    1.231396
     57          1           0        2.600632   -3.235459    1.705024
     58          7           0        1.722936   -2.810125    1.481513
     59          6           0        1.561558   -1.485753    1.515775
     60          6           0        2.264323    0.762638    1.851305
     61          7           0        1.074332    1.306047    1.546249
     62          1           0       -0.802986    0.712345    0.977241
     63          6           0        0.192796    0.356792    1.238508
     64          7           0        0.352503   -0.970181    1.203612
     65          1           0        5.374709    0.688724    2.730085
     66          6           0        4.356402    0.444545    2.426150
     67          7           0        3.909772   -0.771217    2.225801
     68          6           0        2.584496   -0.583811    1.860793
     69          6           0        3.571457    2.883029    2.350708
     70          7           0        3.413873    1.421710    2.217588
 ---------------------------------------------------------------------

 SCF Done:  E(RwB97XD) =  -2048.73718117     A.U. after   15 cycles

 The electronic state is 1-A.
 Alpha  occ. eigenvalues --  -19.26012 -19.21970 -19.20554 -14.52452 -14.51546
 Alpha  occ. eigenvalues --  -14.49562 -14.48509 -14.47881 -14.46779 -14.46553
 Alpha  occ. eigenvalues --  -14.46548 -14.44570 -14.43076 -14.42817 -14.42687
 Alpha  occ. eigenvalues --  -14.42201 -14.42024 -14.41835 -14.40896 -14.40668
 Alpha  occ. eigenvalues --  -10.45570 -10.41052 -10.40083 -10.38671 -10.38131
 Alpha  occ. eigenvalues --  -10.37699 -10.37175 -10.36166 -10.36085 -10.35691
 Alpha  occ. eigenvalues --  -10.34849 -10.34606 -10.34237 -10.34203 -10.33919
 Alpha  occ. eigenvalues --  -10.33683 -10.33099 -10.31630 -10.31510 -10.30988
 Alpha  occ. eigenvalues --  -10.30360 -10.29357 -10.28025  -1.19544  -1.14251
 Alpha  occ. eigenvalues --   -1.13166  -1.13004  -1.12157  -1.10429  -1.09349
 Alpha  occ. eigenvalues --   -1.08506  -1.07995  -1.05765  -1.03575  -1.02511
 Alpha  occ. eigenvalues --   -1.01191  -1.00111  -0.99665  -0.98447  -0.97711
 Alpha  occ. eigenvalues --   -0.96371  -0.95610  -0.93406  -0.91007  -0.86759
 Alpha  occ. eigenvalues --   -0.85273  -0.84721  -0.83965  -0.83852  -0.83053
 Alpha  occ. eigenvalues --   -0.82201  -0.78856  -0.76021  -0.74538  -0.73754
 Alpha  occ. eigenvalues --   -0.73662  -0.73543  -0.73372  -0.71865  -0.69431
 Alpha  occ. eigenvalues --   -0.67312  -0.67050  -0.66558  -0.65765  -0.64442
 Alpha  occ. eigenvalues --   -0.63658  -0.63535  -0.63204  -0.62654  -0.61655
 Alpha  occ. eigenvalues --   -0.60908  -0.60254  -0.59614  -0.59486  -0.58932
 Alpha  occ. eigenvalues --   -0.58663  -0.58244  -0.57266  -0.57152  -0.56625
 Alpha  occ. eigenvalues --   -0.56049  -0.55964  -0.54988  -0.54569  -0.54372
 Alpha  occ. eigenvalues --   -0.53692  -0.53523  -0.52934  -0.52764  -0.52675
 Alpha  occ. eigenvalues --   -0.52444  -0.52295  -0.51851  -0.51500  -0.50902
 Alpha  occ. eigenvalues --   -0.50016  -0.49802  -0.49446  -0.48971  -0.48663
 Alpha  occ. eigenvalues --   -0.48625  -0.48163  -0.47913  -0.47678  -0.47629
 Alpha  occ. eigenvalues --   -0.47339  -0.45672  -0.45470  -0.43967  -0.43227
 Alpha  occ. eigenvalues --   -0.41984  -0.39878  -0.39554  -0.37993  -0.37293
 Alpha  occ. eigenvalues --   -0.37189  -0.36844  -0.36299  -0.35669  -0.34442
 Alpha  occ. eigenvalues --   -0.34317  -0.34233  -0.33299  -0.33164  -0.32882
 Alpha  occ. eigenvalues --   -0.32591  -0.32189  -0.31936  -0.31789  -0.31633
 Alpha  occ. eigenvalues --   -0.31129  -0.28448  -0.26583  -0.25368
 Alpha virt. eigenvalues --    0.03192   0.04777   0.07204   0.08052   0.08689
 Alpha virt. eigenvalues --    0.09137   0.09612   0.10099   0.10965   0.11689
 Alpha virt. eigenvalues --    0.12911   0.13442   0.14387   0.14664   0.14883

 Mulliken charges:
               1
     1  N   -0.311589
     2  C    0.180428
     3  C    0.043653
     4  N   -0.257120
     5  C    0.133257
     6  H    0.029008
     7  N   -0.276360
     8  C    0.123511
     9  H    0.018184
    10  N   -0.289996
    11  C    0.230987
    12  C    0.107925
    13  N   -0.047417
    14  H    0.108161
    15  H    0.088301
    16  H    0.027641
    17  H    0.034555
    18  H    0.026426
    19  N   -0.299113
    20  C    0.236973
    21  C    0.179912
    22  N   -0.096030
    23  H    0.106481
    24  H    0.115790
    25  N   -0.292405
    26  C    0.216018
    27  N   -0.116232
    28  H    0.119551
    29  C    0.135504
    30  O   -0.320325
    31  C    0.014200
    32  N   -0.222381
    33  C    0.121073
    34  H    0.027220
    35  H    0.025893
    36  H    0.026195
    37  H    0.022488
    38  H    0.054030
    39  H    0.064569
    40  H    0.071959
    41  H    0.030401
    42  C   -0.108955
    43  O   -0.269737
    44  C    0.176369
    45  H    0.136737
    46  N   -0.133239
    47  O   -0.350422
    48  C    0.355377
    49  H    0.046826
    50  C    0.179088
    51  C    0.036337
    52  N   -0.288919
    53  H    0.034859
    54  H    0.029412
    55  H    0.023381
    56  H    0.121460
    57  H    0.118756
    58  N   -0.060228
    59  C    0.121672
    60  C    0.232124
    61  N   -0.268885
    62  H    0.053240
    63  C    0.156662
    64  N   -0.300717
    65  H    0.028565
    66  C    0.118183
    67  N   -0.255643
    68  C    0.007289
    69  C    0.171695
    70  N   -0.302616
 Sum of Mulliken charges =  -0.00000

 Dipole moment (field-independent basis, Debye):
    X=              6.1564    Y=              5.9531    Z=              3.4262  Tot=              9.2238
 Quadrupole moment (field-independent basis, Debye-Ang):
   XX=           -140.9195   YY=           -226.4782   ZZ=           -255.4045
   XY=             12.6692   XZ=             14.4374   YZ=             -8.3587

 Normal termination of Gaussian 16 at Sun Jan 21 21:06:17 2018.
