 Gaussian 16, Revision A.03,
 Gaussian 16:  EM64L-G16RevA.03 25-Dec-2016

 ---------------------------------------
 #p wb97xd/cc-pvdz sp scf=(maxcycles=20)
 ---------------------------------------

 ------------------
 Base pair stacking
 ------------------
 Symbolic Z-matrix:
 Charge =  0 Multiplicity = 1

                         Standard orientation:
 ---------------------------------------------------------------------
 Center     Atomic      Atomic             Coordinates (Angstroms)
 Number     Number       Type             X           Y           Z
 ---------------------------------------------------------------------
      1          7           0       -6.348203   -1.273174    0.656724
      2          6           0       -7.688770   -0.656464    0.633490
      3          6           0       -4.179499   -1.593380    0.834211
      4          7           0       -4.729327   -2.827153    0.517649
      5          6           0       -6.013889   -2.584857    0.423388
      6          1           0       -6.770012   -3.333106    0.183919
      7          7           0       -2.650106    0.123279    1.360534
      8          6           0       -3.705012    0.943140    1.411350
      9          1           0       -3.476448    1.980655    1.651292
     10          7           0       -4.993798    0.675067    1.211209
     11          6           0       -5.165064   -0.625781    0.923327
     12          6           0       -2.855525   -1.179623    1.068392
     13          7           0       -1.803768   -1.999589    1.017200
     14          1           0       -1.908985   -2.971680    0.804625
     15          1           0       -0.875286   -1.670354    1.189489
     16          1           0       -8.272327   -1.098395    1.314917
     17          1           0       -7.611972    0.317804    0.843316
     18          1           0       -8.094235   -0.769381   -0.273621
     19          7           0       -3.518124    1.949478   -1.467566
     20          6           0       -2.155667    1.904447   -1.295121
     21          6           0       -4.378722    3.111272   -1.167031
     22          7           0        0.806361    3.439692   -0.330191
     23          1           0        1.776759    3.204921   -0.280597
     24          1           0        0.546287    4.359136   -0.034037
     25          7           0       -1.380443    2.905904   -0.825929
     26          6           0       -0.105920    2.561690   -0.773756
     27          7           0        0.374700    1.331373   -1.151674
     28          1           0        1.365048    1.156091   -1.077828
     29          6           0       -0.404623    0.286043   -1.637275
     30          8           0        0.128546   -0.785549   -1.950579
     31          6           0       -1.776182    0.640873   -1.699063
     32          7           0       -2.878215   -0.092617   -2.116696
     33          6           0       -3.886467    0.722082   -1.962018
     34          1           0       -4.923612    0.477591   -2.193998
     35          1           0       -5.056289    2.856852   -0.477844
     36          1           0       -3.815438    3.859380   -0.818731
     37          1           0       -4.845471    3.406741   -1.999889
     38          1           0        6.281962    0.697080    0.132956
     39          1           0        6.520442    1.018171   -1.583048
     40          1           0        5.148500    1.732739   -0.735389
     41          1           0        5.233333   -3.615404   -1.724324
     42          6           0        4.772973   -2.634581   -1.604782
     43          8           0        2.575759   -3.407207   -2.054709
     44          6           0        3.358677   -2.499368   -1.776025
     45          1           0        1.884031   -1.081599   -1.715675
     46          7           0        2.878860   -1.216804   -1.602719
     47          8           0        3.091294    1.000093   -1.158381
     48          6           0        3.606982   -0.095779   -1.291765
     49          1           0        6.588708   -1.609125   -1.160558
     50          6           0        5.509778   -1.559603   -1.301234
     51          6           0        5.782628    0.861871   -0.810214
     52          7           0        4.963585   -0.307028   -1.142770
     53          1           0        4.424069    3.280583    2.994478
     54          1           0        3.250369    3.429446    1.870930
     55          1           0        4.809961    3.294536    1.408813
     56          1           0        1.579401   -3.385468    1.401613
     57          1           0        3.221245   -3.153914    1.802668
     58          7           0        2.329977   -2.751954    1.589865
     59          6           0        2.151372   -1.429711    1.558757
     60          6           0        2.834426    0.841890    1.745823
     61          7           0        1.626427    1.353553    1.457088
     62          1           0       -0.262165    0.707233    0.992228
     63          6           0        0.747519    0.378427    1.234481
     64          7           0        0.924448   -0.946457    1.265157
     65          1           0        5.975967    0.853304    2.509200
     66          6           0        4.950632    0.580721    2.257552
     67          7           0        4.514017   -0.649420    2.140031
     68          6           0        3.173611   -0.498097    1.815777
     69          6           0        4.129230    3.001876    2.080479
     70          7           0        3.987382    1.533695    2.032370
 ---------------------------------------------------------------------

 SCF Done:  E(RwB97XD) =  -2048.74128648     A.U. after   15 cycles

 The electronic state is 1-A.
 Alpha  occ. eigenvalues --  -19.25790 -19.21874 -19.20458 -14.52363 -14.52080
 Alpha  occ. eigenvalues --  -14.49330 -14.48349 -14.47769 -14.47535 -14.46494
 Alpha  occ. eigenvalues --  -14.46030 -14.45091 -14.43686 -14.43485 -14.42832
 Alpha  occ. eigenvalues --  -14.41901 -14.41782 -14.41634 -14.40758 -14.40593
 Alpha  occ. eigenvalues --  -10.45420 -10.40785 -10.40004 -10.39397 -10.37948
 Alpha  occ. eigenvalues --  -10.37641 -10.37640 -10.36729 -10.36005 -10.35414
 Alpha  occ. eigenvalues --  -10.35314 -10.34553 -10.34113 -10.33980 -10.33913
 Alpha  occ. eigenvalues --  -10.33705 -10.33055 -10.32024 -10.31550 -10.30919
 Alpha  occ. eigenvalues --  -10.30094 -10.29035 -10.27757  -1.19431  -1.14795
 Alpha  occ. eigenvalues --   -1.13003  -1.12906  -1.11889  -1.10298  -1.09246
 Alpha  occ. eigenvalues --   -1.08712  -1.08244  -1.05597  -1.04247  -1.02415
 Alpha  occ. eigenvalues --   -1.01054  -1.00622  -0.99319  -0.98305  -0.97502
 Alpha  occ. eigenvalues --   -0.96288  -0.96186  -0.93274  -0.90926  -0.87312
 Alpha  occ. eigenvalues --   -0.85777  -0.84502  -0.83770  -0.83667  -0.82867
 Alpha  occ. eigenvalues --   -0.81976  -0.78756  -0.76628  -0.74452  -0.74280
 Alpha  occ. eigenvalues --   -0.73454  -0.73374  -0.73233  -0.71654  -0.70034
 Alpha  occ. eigenvalues --   -0.67048  -0.66875  -0.66470  -0.66338  -0.64342
 Alpha  occ. eigenvalues --   -0.63922  -0.63473  -0.63278  -0.62551  -0.61378
 Alpha  occ. eigenvalues --   -0.60839  -0.60811  -0.60232  -0.59410  -0.59200
 Alpha  occ. eigenvalues --   -0.58645  -0.57971  -0.57234  -0.57036  -0.56385
 Alpha  occ. eigenvalues --   -0.55926  -0.55860  -0.55152  -0.54710  -0.54245
 Alpha  occ. eigenvalues --   -0.54092  -0.53342  -0.53147  -0.52805  -0.52575
 Alpha  occ. eigenvalues --   -0.52466  -0.52305  -0.52259  -0.51301  -0.50739
 Alpha  occ. eigenvalues --   -0.49855  -0.49697  -0.49331  -0.49022  -0.48797
 Alpha  occ. eigenvalues --   -0.48531  -0.48243  -0.47989  -0.47505  -0.47320
 Alpha  occ. eigenvalues --   -0.47192  -0.45495  -0.45253  -0.44148  -0.43730
 Alpha  occ. eigenvalues --   -0.41753  -0.40523  -0.39411  -0.37821  -0.37446
 Alpha  occ. eigenvalues --   -0.37346  -0.37032  -0.36798  -0.35748  -0.34412
 Alpha  occ. eigenvalues --   -0.34126  -0.33942  -0.33890  -0.33094  -0.33050
 Alpha  occ. eigenvalues --   -0.32485  -0.32075  -0.31827  -0.31665  -0.31499
 Alpha  occ. eigenvalues --   -0.30995  -0.29253  -0.26272  -0.24978
 Alpha virt. eigenvalues --    0.03154   0.04550   0.07357   0.07432   0.08561
 Alpha virt. eigenvalues --    0.09221   0.09962   0.10456   0.10936   0.11457
 Alpha virt. eigenvalues --    0.13125   0.13674   0.14281   0.14754   0.14889

 Mulliken charges:
               1
     1  N   -0.312225
     2  C    0.179717
     3  C    0.060857
     4  N   -0.257835
     5  C    0.133267
     6  H    0.027922
     7  N   -0.278819
     8  C    0.135368
     9  H    0.014728
    10  N   -0.288569
    11  C    0.229078
    12  C    0.103817
    13  N   -0.048444
    14  H    0.109091
    15  H    0.088700
    16  H    0.027628
    17  H    0.032702
    18  H    0.025822
    19  N   -0.290850
    20  C    0.239145
    21  C    0.178019
    22  N   -0.089446
    23  H    0.112054
    24  H    0.111409
    25  N   -0.298600
    26  C    0.207197
    27  N   -0.138640
    28  H    0.127032
    29  C    0.152811
    30  O   -0.322941
    31  C    0.014266
    32  N   -0.221953
    33  C    0.121776
    34  H    0.019643
    35  H    0.024282
    36  H    0.025514
    37  H    0.020988
    38  H    0.051001
    39  H    0.061902
    40  H    0.069951
    41  H    0.028910
    42  C   -0.114079
    43  O   -0.267328
    44  C    0.174545
    45  H    0.133053
    46  N   -0.128050
    47  O   -0.341294
    48  C    0.346448
    49  H    0.046296
    50  C    0.180428
    51  C    0.042511
    52  N   -0.282759
    53  H    0.035475
    54  H    0.033545
    55  H    0.021200
    56  H    0.123638
    57  H    0.118478
    58  N   -0.061338
    59  C    0.114438
    60  C    0.247643
    61  N   -0.286280
    62  H    0.035892
    63  C    0.168961
    64  N   -0.303741
    65  H    0.037689
    66  C    0.104196
    67  N   -0.250338
    68  C    0.003440
    69  C    0.179739
    70  N   -0.298683
 Sum of Mulliken charges =  -0.00000

 Dipole moment (field-independent basis, Debye):
    X=              6.3761    Y=              6.1021    Z=              3.6472  Tot=              9.5495
 Quadrupole moment (field-independent basis, Debye-Ang):
   XX=           -144.9543   YY=           -226.3707   ZZ=           -257.4747
   XY=             10.4270   XZ=              7.8247   YZ=             -9.8152

 Normal termination of Gaussian 16 at Sun Jan 21 06:26:57 2018.
