 Gaussian 16, Revision A.03,
 Gaussian 16:  EM64L-G16RevA.03 25-Dec-2016

 ---------------------------------------
 #p wb97xd/cc-pvdz sp scf=(maxcycles=20)
 ---------------------------------------

 ------------------
 Base pair stacking
 ------------------
 Symbolic Z-matrix:
 Charge =  0 Multiplicity = 1

                         Standard orientation:
 ---------------------------------------------------------------------
 Center     Atomic      Atomic             Coordinates (Angstroms)
 Number     Number       Type             X           Y           Z
 ---------------------------------------------------------------------
      1          7           0       -6.121768   -1.592111    0.615884
      2          6           0       -7.477108   -1.110240    0.945839
      3          6           0       -3.938118   -1.836874    0.520805
      4          7           0       -4.474424   -2.812828   -0.306621
      5          6           0       -5.768533   -2.626303   -0.216214
      6          1           0       -6.518540   -3.219745   -0.739906
      7          7           0       -2.423773   -0.476126    1.711635
      8          6           0       -3.494694    0.167170    2.187941
      9          1           0       -3.278671    0.987022    2.871638
     10          7           0       -4.786336   -0.049205    1.947618
     11          6           0       -4.941304   -1.076707    1.096363
     12          6           0       -2.613042   -1.505372    0.857289
     13          7           0       -1.545272   -2.148763    0.380749
     14          1           0       -1.638211   -2.916506   -0.254198
     15          1           0       -0.616541   -1.885439    0.642015
     16          1           0       -8.000781   -1.848892    1.370486
     17          1           0       -7.412762   -0.340880    1.580719
     18          1           0       -7.940026   -0.813212    0.110696
     19          7           0       -3.744939    2.405248   -1.129641
     20          6           0       -2.375230    2.343231   -1.039654
     21          6           0       -4.577340    3.549214   -0.706390
     22          7           0        0.649806    3.800418   -0.152235
     23          1           0        1.619510    3.558649   -0.174004
     24          1           0        0.414681    4.700153    0.216419
     25          7           0       -1.566174    3.309154   -0.553388
     26          6           0       -0.293593    2.956662   -0.597181
     27          7           0        0.154470    1.750940   -1.079869
     28          1           0        1.145965    1.566900   -1.074850
     29          6           0       -0.659986    0.742316   -1.585049
     30          8           0       -0.154454   -0.309368   -1.996301
     31          6           0       -2.029898    1.106443   -1.544533
     32          7           0       -3.160061    0.406095   -1.943443
     33          6           0       -4.151082    1.213674   -1.679050
     34          1           0       -5.201814    0.989134   -1.865636
     35          1           0       -5.216172    3.254215    0.003303
     36          1           0       -3.988901    4.270992   -0.344400
     37          1           0       -5.088837    3.899469   -1.490294
     38          1           0        6.120518    1.009528   -0.182714
     39          1           0        6.262444    1.438772   -1.885736
     40          1           0        4.947416    2.103678   -0.916224
     41          1           0        4.931730   -3.170498   -2.246870
     42          6           0        4.486996   -2.197316   -2.038644
     43          8           0        2.261339   -2.929809   -2.408755
     44          6           0        3.066338   -2.045153   -2.118689
     45          1           0        1.609182   -0.627630   -1.882851
     46          7           0        2.607726   -0.774197   -1.836576
     47          8           0        2.863385    1.408737   -1.265072
     48          6           0        3.361621    0.321379   -1.497604
     49          1           0        6.333566   -1.210462   -1.636011
     50          6           0        5.248763   -1.147254   -1.710495
     51          6           0        5.569087    1.236581   -1.082966
     52          7           0        4.722795    0.095018   -1.441222
     53          1           0        4.656548    1.955727    4.287962
     54          1           0        3.405611    2.541750    3.419714
     55          1           0        4.933306    2.722854    2.874323
     56          1           0        1.892641   -3.364661   -0.084666
     57          1           0        3.551022   -3.253873    0.299497
     58          7           0        2.636757   -2.849350    0.340651
     59          6           0        2.420549   -1.674873    0.936489
     60          6           0        3.052679    0.286746    2.125678
     61          7           0        1.814386    0.805835    2.165773
     62          1           0       -0.083144    0.343811    1.544062
     63          6           0        0.949236   -0.003010    1.557334
     64          7           0        1.163821   -1.179732    0.959970
     65          1           0        6.237350    0.118606    2.656497
     66          6           0        5.205083   -0.063263    2.356024
     67          7           0        4.795123   -1.121758    1.700879
     68          6           0        3.432171   -0.912480    1.548301
     69          6           0        4.307989    2.115385    3.364366
     70          7           0        4.203184    0.830551    2.645879
 ---------------------------------------------------------------------

 SCF Done:  E(RwB97XD) =  -2048.74645796     A.U. after   15 cycles

 The electronic state is 1-A.
 Alpha  occ. eigenvalues --  -19.26020 -19.22121 -19.20759 -14.52489 -14.51919
 Alpha  occ. eigenvalues --  -14.48795 -14.48749 -14.47925 -14.47066 -14.46783
 Alpha  occ. eigenvalues --  -14.46723 -14.45001 -14.43534 -14.43420 -14.42109
 Alpha  occ. eigenvalues --  -14.42043 -14.41267 -14.40918 -14.40913 -14.40159
 Alpha  occ. eigenvalues --  -10.45622 -10.41336 -10.40462 -10.39019 -10.38349
 Alpha  occ. eigenvalues --  -10.37889 -10.37504 -10.36552 -10.35370 -10.35302
 Alpha  occ. eigenvalues --  -10.35078 -10.34393 -10.33970 -10.33564 -10.33374
 Alpha  occ. eigenvalues --  -10.33269 -10.33060 -10.31968 -10.31125 -10.31080
 Alpha  occ. eigenvalues --  -10.30808 -10.28391 -10.28162  -1.19575  -1.14626
 Alpha  occ. eigenvalues --   -1.13393  -1.13309  -1.11281  -1.10643  -1.09405
 Alpha  occ. eigenvalues --   -1.08676  -1.08397  -1.04935  -1.03935  -1.02668
 Alpha  occ. eigenvalues --   -1.00383  -1.00321  -0.99857  -0.98635  -0.96890
 Alpha  occ. eigenvalues --   -0.96617  -0.95982  -0.92587  -0.91128  -0.87022
 Alpha  occ. eigenvalues --   -0.85397  -0.84147  -0.83914  -0.83768  -0.82493
 Alpha  occ. eigenvalues --   -0.82304  -0.78968  -0.76314  -0.74694  -0.74087
 Alpha  occ. eigenvalues --   -0.73753  -0.73508  -0.72822  -0.70986  -0.69671
 Alpha  occ. eigenvalues --   -0.67480  -0.66669  -0.66218  -0.66007  -0.64580
 Alpha  occ. eigenvalues --   -0.63858  -0.63468  -0.62757  -0.62620  -0.61841
 Alpha  occ. eigenvalues --   -0.60448  -0.60210  -0.59757  -0.59540  -0.58827
 Alpha  occ. eigenvalues --   -0.58799  -0.58475  -0.56708  -0.56496  -0.56371
 Alpha  occ. eigenvalues --   -0.56105  -0.55328  -0.54802  -0.54691  -0.54480
 Alpha  occ. eigenvalues --   -0.53754  -0.53593  -0.53028  -0.52985  -0.52911
 Alpha  occ. eigenvalues --   -0.52597  -0.52163  -0.51779  -0.50789  -0.50268
 Alpha  occ. eigenvalues --   -0.50193  -0.49623  -0.49514  -0.49401  -0.48987
 Alpha  occ. eigenvalues --   -0.48710  -0.48445  -0.47823  -0.47587  -0.47511
 Alpha  occ. eigenvalues --   -0.46911  -0.45689  -0.44925  -0.44004  -0.43690
 Alpha  occ. eigenvalues --   -0.41081  -0.40080  -0.39571  -0.37351  -0.37344
 Alpha  occ. eigenvalues --   -0.37097  -0.37001  -0.36834  -0.36137  -0.34324
 Alpha  occ. eigenvalues --   -0.34123  -0.33683  -0.33503  -0.33337  -0.33295
 Alpha  occ. eigenvalues --   -0.32706  -0.32448  -0.32132  -0.31965  -0.30879
 Alpha  occ. eigenvalues --   -0.30368  -0.29073  -0.25590  -0.25509
 Alpha virt. eigenvalues --    0.02817   0.04800   0.07484   0.08057   0.08459
 Alpha virt. eigenvalues --    0.08994   0.09684   0.10764   0.11134   0.11965
 Alpha virt. eigenvalues --    0.13174   0.14106   0.14540   0.14586   0.15314

 Mulliken charges:
               1
     1  N   -0.311625
     2  C    0.180297
     3  C    0.058364
     4  N   -0.253889
     5  C    0.130261
     6  H    0.025542
     7  N   -0.292440
     8  C    0.133759
     9  H    0.011802
    10  N   -0.291834
    11  C    0.231896
    12  C    0.102735
    13  N   -0.045253
    14  H    0.112499
    15  H    0.091110
    16  H    0.026460
    17  H    0.032941
    18  H    0.022320
    19  N   -0.308955
    20  C    0.256400
    21  C    0.180319
    22  N   -0.120343
    23  H    0.114412
    24  H    0.117755
    25  N   -0.309964
    26  C    0.244203
    27  N   -0.147623
    28  H    0.121089
    29  C    0.185019
    30  O   -0.325156
    31  C   -0.012868
    32  N   -0.223039
    33  C    0.131734
    34  H    0.022163
    35  H    0.031246
    36  H    0.028547
    37  H    0.022964
    38  H    0.055414
    39  H    0.060875
    40  H    0.072546
    41  H    0.026493
    42  C   -0.116675
    43  O   -0.282473
    44  C    0.149178
    45  H    0.135850
    46  N   -0.113153
    47  O   -0.344267
    48  C    0.343122
    49  H    0.047294
    50  C    0.191987
    51  C    0.041523
    52  N   -0.281613
    53  H    0.033253
    54  H    0.041236
    55  H    0.023359
    56  H    0.128871
    57  H    0.114406
    58  N   -0.044993
    59  C    0.095197
    60  C    0.250704
    61  N   -0.274631
    62  H    0.036251
    63  C    0.161689
    64  N   -0.302325
    65  H    0.033933
    66  C    0.121940
    67  N   -0.259601
    68  C    0.010490
    69  C    0.180825
    70  N   -0.309554
 Sum of Mulliken charges =  -0.00000

 Dipole moment (field-independent basis, Debye):
    X=              6.9696    Y=              6.4723    Z=              2.9899  Tot=              9.9702
 Quadrupole moment (field-independent basis, Debye-Ang):
   XX=           -146.1536   YY=           -223.9006   ZZ=           -254.8218
   XY=              6.3307   XZ=              7.6727   YZ=             -0.6255

 Normal termination of Gaussian 16 at Sun Jan 21 10:24:45 2018.
