 Gaussian 16, Revision A.03,
 Gaussian 16:  EM64L-G16RevA.03 25-Dec-2016

 ---------------------------------------
 #p wb97xd/cc-pvdz sp scf=(maxcycles=20)
 ---------------------------------------

 ------------------
 Base pair stacking
 ------------------
 Symbolic Z-matrix:
 Charge =  0 Multiplicity = 1

                         Standard orientation:
 ---------------------------------------------------------------------
 Center     Atomic      Atomic             Coordinates (Angstroms)
 Number     Number       Type             X           Y           Z
 ---------------------------------------------------------------------
      1          7           0       -6.386459   -1.370462    0.583573
      2          6           0       -7.735919   -0.792430    0.734736
      3          6           0       -4.210102   -1.682842    0.640192
      4          7           0       -4.748843   -2.812367    0.041311
      5          6           0       -6.038451   -2.578963    0.031170
      6          1           0       -6.788723   -3.260474   -0.370804
      7          7           0       -2.694576   -0.117590    1.543583
      8          6           0       -3.759788    0.644810    1.811257
      9          1           0       -3.541041    1.596610    2.293426
     10          7           0       -5.048583    0.409116    1.573862
     11          6           0       -5.207301   -0.785219    0.979889
     12          6           0       -2.887502   -1.313524    0.945575
     13          7           0       -1.825440   -2.075996    0.677564
     14          1           0       -1.921244   -2.968674    0.235799
     15          1           0       -0.898317   -1.781079    0.909090
     16          1           0       -8.298427   -1.398300    1.297473
     17          1           0       -7.668608    0.102486    1.174868
     18          1           0       -8.158950   -0.688344   -0.165377
     19          7           0       -3.457411    2.201819   -1.417780
     20          6           0       -2.093026    2.137049   -1.268410
     21          6           0       -4.295305    3.377537   -1.107417
     22          7           0        0.907666    3.631465   -0.360492
     23          1           0        1.875156    3.382374   -0.326484
     24          1           0        0.666433    4.555843   -0.063740
     25          7           0       -1.295021    3.128592   -0.816655
     26          6           0       -0.025078    2.765521   -0.784805
     27          7           0        0.430604    1.526676   -1.165775
     28          1           0        1.419341    1.336866   -1.108107
     29          6           0       -0.372427    0.491279   -1.633690
     30          8           0        0.139265   -0.589393   -1.951615
     31          6           0       -1.739391    0.866373   -1.673538
     32          7           0       -2.859232    0.147874   -2.069287
     33          6           0       -3.852418    0.978177   -1.900801
     34          1           0       -4.896918    0.748355   -2.114053
     35          1           0       -4.964700    3.135980   -0.405728
     36          1           0       -3.715050    4.118464   -0.771868
     37          1           0       -4.771788    3.676738   -1.933396
     38          1           0        6.348868    0.808922    0.020534
     39          1           0        6.562706    1.119758   -1.700600
     40          1           0        5.216281    1.858082   -0.832625
     41          1           0        5.204398   -3.494517   -1.800769
     42          6           0        4.760832   -2.506458   -1.677440
     43          8           0        2.544965   -3.247808   -2.086627
     44          6           0        3.345987   -2.350731   -1.825100
     45          1           0        1.893895   -0.910794   -1.745465
     46          7           0        2.888385   -1.060454   -1.648934
     47          8           0        3.141436    1.154716   -1.217445
     48          6           0        3.638370    0.050730   -1.355074
     49          1           0        6.599001   -1.506607   -1.268483
     50          6           0        5.518674   -1.441468   -1.390944
     51          6           0        5.835981    0.977527   -0.914663
     52          7           0        4.994022   -0.180245   -1.228359
     53          1           0        4.366894    2.680124    3.777577
     54          1           0        3.167504    3.076174    2.744762
     55          1           0        4.718652    3.087873    2.236985
     56          1           0        1.584645   -3.448944    0.653612
     57          1           0        3.231180   -3.290936    1.070813
     58          7           0        2.329917   -2.866287    0.977998
     59          6           0        2.131781   -1.580068    1.273918
     60          6           0        2.786065    0.589869    1.998489
     61          7           0        1.564995    1.133352    1.864286
     62          1           0       -0.323633    0.584048    1.288133
     63          6           0        0.695584    0.225413    1.425340
     64          7           0        0.892083   -1.063301    1.128381
     65          1           0        5.942684    0.474659    2.687447
     66          6           0        4.916227    0.252187    2.394479
     67          7           0        4.494868   -0.920219    1.987539
     68          6           0        3.145824   -0.719978    1.733137
     69          6           0        4.056660    2.627253    2.828387
     70          7           0        3.934849    1.212732    2.425519
 ---------------------------------------------------------------------

 SCF Done:  E(RwB97XD) =  -2048.75251200     A.U. after   15 cycles

 The electronic state is 1-A.
 Alpha  occ. eigenvalues --  -19.25931 -19.22046 -19.20624 -14.52435 -14.51859
 Alpha  occ. eigenvalues --  -14.49089 -14.48617 -14.47876 -14.46960 -14.46855
 Alpha  occ. eigenvalues --  -14.46575 -14.44903 -14.43434 -14.43351 -14.42406
 Alpha  occ. eigenvalues --  -14.41967 -14.41652 -14.41305 -14.40750 -14.40470
 Alpha  occ. eigenvalues --  -10.45539 -10.41133 -10.40201 -10.39014 -10.38181
 Alpha  occ. eigenvalues --  -10.37771 -10.37423 -10.36472 -10.35667 -10.35455
 Alpha  occ. eigenvalues --  -10.35045 -10.34324 -10.34234 -10.33659 -10.33637
 Alpha  occ. eigenvalues --  -10.33404 -10.33219 -10.31841 -10.31350 -10.30998
 Alpha  occ. eigenvalues --  -10.30531 -10.28770 -10.28001  -1.19498  -1.14544
 Alpha  occ. eigenvalues --   -1.13165  -1.13107  -1.11640  -1.10483  -1.09321
 Alpha  occ. eigenvalues --   -1.08502  -1.08341  -1.05275  -1.03882  -1.02545
 Alpha  occ. eigenvalues --   -1.00692  -1.00325  -0.99664  -0.98479  -0.97234
 Alpha  occ. eigenvalues --   -0.96434  -0.95923  -0.92930  -0.91017  -0.86980
 Alpha  occ. eigenvalues --   -0.85406  -0.84244  -0.83963  -0.83760  -0.82615
 Alpha  occ. eigenvalues --   -0.82280  -0.78858  -0.76272  -0.74521  -0.74040
 Alpha  occ. eigenvalues --   -0.73593  -0.73382  -0.73161  -0.71337  -0.69640
 Alpha  occ. eigenvalues --   -0.67302  -0.66571  -0.66557  -0.65975  -0.64453
 Alpha  occ. eigenvalues --   -0.63690  -0.63489  -0.62949  -0.62625  -0.61658
 Alpha  occ. eigenvalues --   -0.60495  -0.60407  -0.59777  -0.59479  -0.58841
 Alpha  occ. eigenvalues --   -0.58721  -0.58283  -0.56860  -0.56797  -0.56365
 Alpha  occ. eigenvalues --   -0.55992  -0.55649  -0.54768  -0.54594  -0.54373
 Alpha  occ. eigenvalues --   -0.53646  -0.53566  -0.52902  -0.52842  -0.52785
 Alpha  occ. eigenvalues --   -0.52562  -0.52115  -0.52059  -0.51096  -0.50494
 Alpha  occ. eigenvalues --   -0.50083  -0.49512  -0.49472  -0.49083  -0.48872
 Alpha  occ. eigenvalues --   -0.48774  -0.48275  -0.47931  -0.47506  -0.47379
 Alpha  occ. eigenvalues --   -0.47234  -0.45483  -0.45204  -0.43969  -0.43867
 Alpha  occ. eigenvalues --   -0.41473  -0.40061  -0.39487  -0.37468  -0.37224
 Alpha  occ. eigenvalues --   -0.37200  -0.36995  -0.36789  -0.35910  -0.34201
 Alpha  occ. eigenvalues --   -0.34038  -0.33734  -0.33663  -0.33418  -0.33259
 Alpha  occ. eigenvalues --   -0.32645  -0.32246  -0.31980  -0.31813  -0.31247
 Alpha  occ. eigenvalues --   -0.30691  -0.29077  -0.26010  -0.25310
 Alpha virt. eigenvalues --    0.02991   0.04823   0.07597   0.07790   0.08609
 Alpha virt. eigenvalues --    0.09105   0.09798   0.10705   0.10835   0.11457
 Alpha virt. eigenvalues --    0.13076   0.13911   0.14562   0.14651   0.15246

 Mulliken charges:
               1
     1  N   -0.311548
     2  C    0.180203
     3  C    0.055615
     4  N   -0.255858
     5  C    0.131449
     6  H    0.026942
     7  N   -0.286458
     8  C    0.132865
     9  H    0.013233
    10  N   -0.291146
    11  C    0.229419
    12  C    0.105637
    13  N   -0.046068
    14  H    0.110420
    15  H    0.090479
    16  H    0.027047
    17  H    0.033178
    18  H    0.024207
    19  N   -0.304558
    20  C    0.254295
    21  C    0.179927
    22  N   -0.112217
    23  H    0.112108
    24  H    0.115813
    25  N   -0.306544
    26  C    0.234982
    27  N   -0.140064
    28  H    0.119349
    29  C    0.166955
    30  O   -0.323462
    31  C   -0.001014
    32  N   -0.223873
    33  C    0.127260
    34  H    0.022918
    35  H    0.029907
    36  H    0.027213
    37  H    0.022038
    38  H    0.052164
    39  H    0.062270
    40  H    0.071872
    41  H    0.027678
    42  C   -0.114168
    43  O   -0.274382
    44  C    0.165202
    45  H    0.135533
    46  N   -0.125398
    47  O   -0.345393
    48  C    0.348928
    49  H    0.046734
    50  C    0.186294
    51  C    0.040910
    52  N   -0.282907
    53  H    0.033715
    54  H    0.039048
    55  H    0.021881
    56  H    0.126114
    57  H    0.116747
    58  N   -0.051158
    59  C    0.106304
    60  C    0.247774
    61  N   -0.275475
    62  H    0.036582
    63  C    0.164248
    64  N   -0.302342
    65  H    0.034226
    66  C    0.117709
    67  N   -0.254197
    68  C    0.000385
    69  C    0.179743
    70  N   -0.307291
 Sum of Mulliken charges =  -0.00000

 Dipole moment (field-independent basis, Debye):
    X=              6.6967    Y=              6.2487    Z=              3.0277  Tot=              9.6467
 Quadrupole moment (field-independent basis, Debye-Ang):
   XX=           -144.7126   YY=           -224.4395   ZZ=           -255.8470
   XY=              8.7880   XZ=              9.6353   YZ=             -5.2452

 Normal termination of Gaussian 16 at Sun Jan 21 19:55:00 2018.
