 Gaussian 16, Revision A.03,
 Gaussian 16:  EM64L-G16RevA.03 25-Dec-2016

 ---------------------------------------
 #p wb97xd/cc-pvdz sp scf=(maxcycles=20)
 ---------------------------------------

 ------------------
 Base pair stacking
 ------------------
 Symbolic Z-matrix:
 Charge =  0 Multiplicity = 1

                         Standard orientation:
 ---------------------------------------------------------------------
 Center     Atomic      Atomic             Coordinates (Angstroms)
 Number     Number       Type             X           Y           Z
 ---------------------------------------------------------------------
      1          7           0       -5.799627   -1.499399    0.994141
      2          6           0       -7.154291   -0.940827    1.169913
      3          6           0       -3.615903   -1.759742    0.964099
      4          7           0       -4.154454   -2.942328    0.478098
      5          6           0       -5.448508   -2.738146    0.515655
      6          1           0       -6.199997   -3.463862    0.203345
      7          7           0       -2.098230   -0.098906    1.672067
      8          6           0       -3.168055    0.658322    1.935981
      9          1           0       -2.950215    1.648090    2.334942
     10          7           0       -4.460514    0.377805    1.781776
     11          6           0       -4.617735   -0.860845    1.286340
     12          6           0       -2.289769   -1.340180    1.174455
     13          7           0       -1.223091   -2.097566    0.910371
     14          1           0       -1.317702   -3.022725    0.541096
     15          1           0       -0.293546   -1.766245    1.072554
     16          1           0       -7.673346   -1.514760    1.803431
     17          1           0       -7.088265   -0.014185    1.538827
     18          1           0       -7.623038   -0.913661    0.286996
     19          7           0       -4.113677    2.014555   -1.257870
     20          6           0       -2.742091    1.992628   -1.178353
     21          6           0       -4.971699    3.159993   -0.893876
     22          7           0        0.251819    3.575581   -0.408587
     23          1           0        1.227228    3.357583   -0.426037
     24          1           0       -0.003297    4.489198   -0.090871
     25          7           0       -1.954104    3.005653   -0.757722
     26          6           0       -0.673263    2.683514   -0.793742
     27          7           0       -0.198366    1.463236   -1.209552
     28          1           0        0.797567    1.304972   -1.203846
     29          6           0       -0.990802    0.406361   -1.646488
     30          8           0       -0.461818   -0.654561   -2.000588
     31          6           0       -2.369270    0.737442   -1.613425
     32          7           0       -3.484355   -0.013539   -1.959137
     33          6           0       -4.493603    0.782847   -1.732401
     34          1           0       -5.539762    0.521202   -1.894819
     35          1           0       -5.596502    2.891143   -0.161662
     36          1           0       -4.398999    3.916468   -0.580777
     37          1           0       -5.498856    3.450494   -1.691701
     38          1           0        5.792424    0.927114   -0.331279
     39          1           0        5.908426    1.258947   -2.057860
     40          1           0        4.585095    1.946199   -1.115616
     41          1           0        4.694318   -3.395791   -2.134936
     42          6           0        4.226384   -2.423618   -1.979536
     43          8           0        2.017285   -3.232711   -2.283460
     44          6           0        2.801621   -2.312434   -2.053899
     45          1           0        1.310374   -0.920838   -1.886642
     46          7           0        2.312744   -1.039109   -1.842025
     47          8           0        2.516792    1.179420   -1.401943
     48          6           0        3.040957    0.093238   -1.575481
     49          1           0        6.050225   -1.368373   -1.654193
     50          6           0        4.963536   -1.337130   -1.721198
     51          6           0        5.227519    1.086827   -1.237611
     52          7           0        4.407966   -0.094893   -1.519786
     53          1           0        4.990641    3.009774    3.335311
     54          1           0        3.732902    3.301350    2.337738
     55          1           0        5.256780    3.308322    1.753084
     56          1           0        2.215336   -3.394744    0.816314
     57          1           0        3.875679   -3.170504    1.137349
     58          7           0        2.960556   -2.773502    1.058889
     59          6           0        2.744664   -1.473278    1.268640
     60          6           0        3.378468    0.758455    1.797193
     61          7           0        2.138999    1.263944    1.684837
     62          1           0        0.239060    0.632468    1.246556
     63          6           0        1.272466    0.307141    1.358419
     64          7           0        1.486730   -0.995681    1.147905
     65          1           0        6.566722    0.763197    2.333090
     66          6           0        5.533178    0.497340    2.109366
     67          7           0        5.122238   -0.711075    1.811798
     68          6           0        3.757808   -0.559549    1.611510
     69          6           0        4.636103    2.879205    2.409434
     70          7           0        4.530566    1.436167    2.118736
 ---------------------------------------------------------------------

 SCF Done:  E(RwB97XD) =  -2048.75422755     A.U. after   15 cycles

 The electronic state is 1-A.
 Alpha  occ. eigenvalues --  -19.25661 -19.21867 -19.20537 -14.52412 -14.52152
 Alpha  occ. eigenvalues --  -14.48870 -14.48545 -14.47814 -14.47594 -14.46797
 Alpha  occ. eigenvalues --  -14.46455 -14.45469 -14.44115 -14.44081 -14.42433
 Alpha  occ. eigenvalues --  -14.41879 -14.41383 -14.41191 -14.40778 -14.40404
 Alpha  occ. eigenvalues --  -10.45227 -10.41092 -10.39982 -10.39723 -10.38133
 Alpha  occ. eigenvalues --  -10.37977 -10.37487 -10.37085 -10.35568 -10.35567
 Alpha  occ. eigenvalues --  -10.35025 -10.34158 -10.34096 -10.34008 -10.33448
 Alpha  occ. eigenvalues --  -10.33256 -10.33222 -10.32559 -10.31283 -10.30821
 Alpha  occ. eigenvalues --  -10.30553 -10.28562 -10.27945  -1.19243  -1.15159
 Alpha  occ. eigenvalues --   -1.13079  -1.12889  -1.11405  -1.10422  -1.09088
 Alpha  occ. eigenvalues --   -1.09046  -1.08425  -1.05183  -1.04567  -1.02283
 Alpha  occ. eigenvalues --   -1.00918  -1.00605  -0.99560  -0.98416  -0.97072
 Alpha  occ. eigenvalues --   -0.96586  -0.96403  -0.92859  -0.90787  -0.87564
 Alpha  occ. eigenvalues --   -0.85906  -0.84078  -0.83914  -0.83466  -0.82481
 Alpha  occ. eigenvalues --   -0.82257  -0.78601  -0.76910  -0.74710  -0.74439
 Alpha  occ. eigenvalues --   -0.73493  -0.73148  -0.73025  -0.71191  -0.70266
 Alpha  occ. eigenvalues --   -0.67222  -0.66621  -0.66446  -0.66302  -0.64272
 Alpha  occ. eigenvalues --   -0.64097  -0.63584  -0.62870  -0.62530  -0.61607
 Alpha  occ. eigenvalues --   -0.60887  -0.60528  -0.60338  -0.59382  -0.59226
 Alpha  occ. eigenvalues --   -0.58713  -0.58182  -0.56863  -0.56717  -0.56209
 Alpha  occ. eigenvalues --   -0.55790  -0.55646  -0.55231  -0.54325  -0.54122
 Alpha  occ. eigenvalues --   -0.53788  -0.53481  -0.53398  -0.53212  -0.52775
 Alpha  occ. eigenvalues --   -0.52665  -0.52310  -0.51974  -0.50926  -0.50393
 Alpha  occ. eigenvalues --   -0.49998  -0.49820  -0.49280  -0.49000  -0.48738
 Alpha  occ. eigenvalues --   -0.48656  -0.48335  -0.48215  -0.47354  -0.47248
 Alpha  occ. eigenvalues --   -0.47083  -0.45742  -0.44946  -0.44667  -0.43494
 Alpha  occ. eigenvalues --   -0.41217  -0.40625  -0.39271  -0.37702  -0.37422
 Alpha  occ. eigenvalues --   -0.37332  -0.37157  -0.37129  -0.36060  -0.34576
 Alpha  occ. eigenvalues --   -0.34224  -0.33948  -0.33555  -0.33431  -0.33075
 Alpha  occ. eigenvalues --   -0.32552  -0.32276  -0.31963  -0.31783  -0.31026
 Alpha  occ. eigenvalues --   -0.30633  -0.29488  -0.25799  -0.25252
 Alpha virt. eigenvalues --    0.03310   0.04040   0.07243   0.07641   0.08503
 Alpha virt. eigenvalues --    0.09152   0.09916   0.10566   0.11033   0.11914
 Alpha virt. eigenvalues --    0.13070   0.14119   0.14223   0.14497   0.14975

 Mulliken charges:
               1
     1  N   -0.311204
     2  C    0.178739
     3  C    0.068863
     4  N   -0.256161
     5  C    0.134809
     6  H    0.026437
     7  N   -0.290855
     8  C    0.135419
     9  H    0.012620
    10  N   -0.288326
    11  C    0.233357
    12  C    0.097913
    13  N   -0.049202
    14  H    0.111364
    15  H    0.085612
    16  H    0.027054
    17  H    0.031925
    18  H    0.023517
    19  N   -0.298288
    20  C    0.249014
    21  C    0.181829
    22  N   -0.114043
    23  H    0.114282
    24  H    0.116179
    25  N   -0.306191
    26  C    0.231839
    27  N   -0.144926
    28  H    0.123537
    29  C    0.182010
    30  O   -0.324072
    31  C   -0.012808
    32  N   -0.221657
    33  C    0.125957
    34  H    0.017636
    35  H    0.026915
    36  H    0.027691
    37  H    0.021444
    38  H    0.054535
    39  H    0.060617
    40  H    0.072882
    41  H    0.024253
    42  C   -0.111265
    43  O   -0.270329
    44  C    0.164195
    45  H    0.131912
    46  N   -0.115598
    47  O   -0.339368
    48  C    0.334170
    49  H    0.046230
    50  C    0.175003
    51  C    0.039246
    52  N   -0.278336
    53  H    0.034905
    54  H    0.039113
    55  H    0.023873
    56  H    0.126972
    57  H    0.117314
    58  N   -0.055332
    59  C    0.091839
    60  C    0.235194
    61  N   -0.268053
    62  H    0.039836
    63  C    0.151336
    64  N   -0.299256
    65  H    0.037141
    66  C    0.113094
    67  N   -0.255307
    68  C    0.030223
    69  C    0.182345
    70  N   -0.301615
 Sum of Mulliken charges =  -0.00000

 Dipole moment (field-independent basis, Debye):
    X=              6.7157    Y=              6.5352    Z=              3.1231  Tot=              9.8774
 Quadrupole moment (field-independent basis, Debye-Ang):
   XX=           -147.8598   YY=           -224.2582   ZZ=           -257.4568
   XY=              7.3363   XZ=              2.2478   YZ=             -7.2237

 Normal termination of Gaussian 16 at Sun Jan 21 03:04:49 2018.
