 Gaussian 16, Revision A.03,
 Gaussian 16:  EM64L-G16RevA.03 25-Dec-2016

 ---------------------------------------
 #p wb97xd/cc-pvdz sp scf=(maxcycles=20)
 ---------------------------------------

 ------------------
 Base pair stacking
 ------------------
 Symbolic Z-matrix:
 Charge =  0 Multiplicity = 1

                         Standard orientation:
 ---------------------------------------------------------------------
 Center     Atomic      Atomic             Coordinates (Angstroms)
 Number     Number       Type             X           Y           Z
 ---------------------------------------------------------------------
      1          7           0       -7.179169   -1.112599    0.134051
      2          6           0       -8.514182   -0.484358    0.166476
      3          6           0       -5.022148   -1.488276    0.342555
      4          7           0       -5.563774   -2.636511   -0.216841
      5          6           0       -6.841620   -2.364228   -0.320064
      6          1           0       -7.590234   -3.046390   -0.724000
      7          7           0       -3.508766    0.083674    1.237855
      8          6           0       -4.560627    0.894430    1.392246
      9          1           0       -4.337574    1.867876    1.826892
     10          7           0       -5.840641    0.684239    1.091774
     11          6           0       -6.005688   -0.540154    0.564474
     12          6           0       -3.707749   -1.141499    0.704530
     13          7           0       -2.659005   -1.952243    0.549607
     14          1           0       -2.759722   -2.867956    0.159052
     15          1           0       -1.737404   -1.672102    0.818512
     16          1           0       -9.129665   -1.035163    0.730370
     17          1           0       -8.441726    0.434378    0.553528
     18          1           0       -8.879585   -0.424997   -0.762472
     19          7           0       -2.544361    2.194261   -1.613251
     20          6           0       -1.194236    2.096762   -1.377221
     21          6           0       -3.357534    3.412937   -1.428092
     22          7           0        1.798090    3.552147   -0.382450
     23          1           0        2.752612    3.275760   -0.274115
     24          1           0        1.572215    4.500676   -0.158880
     25          7           0       -0.390112    3.089886   -0.940022
     26          6           0        0.862316    2.690257   -0.808308
     27          7           0        1.296116    1.415988   -1.083203
     28          1           0        2.272518    1.199578   -0.953679
     29          6           0        0.486399    0.378243   -1.534087
     30          8           0        0.977891   -0.735956   -1.752561
     31          6           0       -0.861919    0.792369   -1.680419
     32          7           0       -1.980899    0.085204   -2.098391
     33          6           0       -2.952699    0.955091   -2.042622
     34          1           0       -3.990216    0.744709   -2.304510
     35          1           0       -4.075119    3.237744   -0.754912
     36          1           0       -2.772550    4.155419   -1.104401
     37          1           0       -3.773803    3.673328   -2.298569
     38          1           0        7.105565    0.591843    0.504068
     39          1           0        7.431135    0.785045   -1.216782
     40          1           0        6.062507    1.618966   -0.480014
     41          1           0        5.920862   -3.781672   -1.113161
     42          6           0        5.505551   -2.774416   -1.078636
     43          8           0        3.293118   -3.471136   -1.575430
     44          6           0        4.108165   -2.584518   -1.321684
     45          1           0        2.705057   -1.097943   -1.420244
     46          7           0        3.686297   -1.271997   -1.254146
     47          8           0        3.990654    0.957303   -0.946269
     48          6           0        4.455990   -0.168148   -0.984594
     49          1           0        7.350225   -1.808124   -0.621163
     50          6           0        6.281912   -1.717366   -0.813085
     51          6           0        6.654851    0.716110   -0.469322
     52          7           0        5.792942   -0.432616   -0.761354
     53          1           0        3.502199    2.797593    3.720468
     54          1           0        2.380279    3.163825    2.593860
     55          1           0        3.958113    3.094729    2.181874
     56          1           0        0.696568   -3.429352    0.818886
     57          1           0        2.320179   -3.296272    1.325129
     58          7           0        1.441321   -2.850597    1.151348
     59          6           0        1.271111   -1.542531    1.354282
     60          6           0        1.956919    0.647928    1.981395
     61          7           0        0.765582    1.219445    1.739507
     62          1           0       -1.103849    0.693418    1.084434
     63          6           0       -0.107617    0.312753    1.305537
     64          7           0        0.060932   -0.997818    1.101634
     65          1           0        5.061529    0.478892    2.867399
     66          6           0        4.046972    0.270169    2.526744
     67          7           0        3.609652   -0.912202    2.168369
     68          6           0        2.285746   -0.686779    1.820246
     69          6           0        3.246754    2.693728    2.759244
     70          7           0        3.099589    1.260810    2.438217
 ---------------------------------------------------------------------

 SCF Done:  E(RwB97XD) =  -2048.74645844     A.U. after   15 cycles

 The electronic state is 1-A.
 Alpha  occ. eigenvalues --  -19.26035 -19.22113 -19.20686 -14.52507 -14.51204
 Alpha  occ. eigenvalues --  -14.49533 -14.48662 -14.47893 -14.47043 -14.46831
 Alpha  occ. eigenvalues --  -14.46145 -14.44199 -14.42676 -14.42555 -14.42534
 Alpha  occ. eigenvalues --  -14.42207 -14.42098 -14.41695 -14.40865 -14.40777
 Alpha  occ. eigenvalues --  -10.45606 -10.41315 -10.40192 -10.38308 -10.38175
 Alpha  occ. eigenvalues --  -10.37752 -10.36795 -10.36092 -10.35688 -10.35681
 Alpha  occ. eigenvalues --  -10.34852 -10.34367 -10.34170 -10.34144 -10.33833
 Alpha  occ. eigenvalues --  -10.33232 -10.33204 -10.31579 -10.31141 -10.31044
 Alpha  occ. eigenvalues --  -10.30592 -10.29344 -10.28162  -1.19553  -1.13872
 Alpha  occ. eigenvalues --   -1.13274  -1.13120  -1.12137  -1.10570  -1.09406
 Alpha  occ. eigenvalues --   -1.08688  -1.07496  -1.05708  -1.03060  -1.02548
 Alpha  occ. eigenvalues --   -1.01097  -0.99998  -0.99617  -0.98557  -0.97675
 Alpha  occ. eigenvalues --   -0.96505  -0.95119  -0.93330  -0.91052  -0.86314
 Alpha  occ. eigenvalues --   -0.84805  -0.84671  -0.84101  -0.83890  -0.83015
 Alpha  occ. eigenvalues --   -0.82374  -0.78911  -0.75536  -0.74635  -0.73790
 Alpha  occ. eigenvalues --   -0.73602  -0.73421  -0.73228  -0.71796  -0.68922
 Alpha  occ. eigenvalues --   -0.67492  -0.66983  -0.66608  -0.65240  -0.64511
 Alpha  occ. eigenvalues --   -0.63787  -0.63410  -0.62792  -0.62669  -0.61869
 Alpha  occ. eigenvalues --   -0.60810  -0.59909  -0.59558  -0.59113  -0.58850
 Alpha  occ. eigenvalues --   -0.58473  -0.58198  -0.57101  -0.57092  -0.56604
 Alpha  occ. eigenvalues --   -0.56089  -0.55953  -0.54632  -0.54454  -0.54129
 Alpha  occ. eigenvalues --   -0.53661  -0.53539  -0.52943  -0.52702  -0.52641
 Alpha  occ. eigenvalues --   -0.52309  -0.52090  -0.51514  -0.51468  -0.50846
 Alpha  occ. eigenvalues --   -0.50168  -0.49722  -0.49522  -0.48874  -0.48668
 Alpha  occ. eigenvalues --   -0.48571  -0.48280  -0.47783  -0.47696  -0.47574
 Alpha  occ. eigenvalues --   -0.47398  -0.45750  -0.45168  -0.44062  -0.43052
 Alpha  occ. eigenvalues --   -0.41923  -0.39588  -0.39335  -0.37916  -0.37354
 Alpha  occ. eigenvalues --   -0.37282  -0.36560  -0.36077  -0.35590  -0.34698
 Alpha  occ. eigenvalues --   -0.34261  -0.34224  -0.33304  -0.32965  -0.32851
 Alpha  occ. eigenvalues --   -0.32573  -0.32169  -0.32010  -0.31899  -0.31676
 Alpha  occ. eigenvalues --   -0.31031  -0.28291  -0.26487  -0.25493
 Alpha virt. eigenvalues --    0.03135   0.05263   0.07226   0.08379   0.08437
 Alpha virt. eigenvalues --    0.09227   0.09673   0.10158   0.10959   0.12091
 Alpha virt. eigenvalues --    0.12714   0.13380   0.14460   0.14632   0.15512

 Mulliken charges:
               1
     1  N   -0.310850
     2  C    0.180652
     3  C    0.033182
     4  N   -0.256868
     5  C    0.132953
     6  H    0.028879
     7  N   -0.281926
     8  C    0.124297
     9  H    0.016787
    10  N   -0.289003
    11  C    0.234516
    12  C    0.107590
    13  N   -0.043443
    14  H    0.107751
    15  H    0.089004
    16  H    0.027483
    17  H    0.035543
    18  H    0.026082
    19  N   -0.303699
    20  C    0.236840
    21  C    0.181042
    22  N   -0.116856
    23  H    0.111564
    24  H    0.117641
    25  N   -0.297199
    26  C    0.234401
    27  N   -0.122110
    28  H    0.119683
    29  C    0.149290
    30  O   -0.322362
    31  C   -0.000446
    32  N   -0.223545
    33  C    0.128826
    34  H    0.029306
    35  H    0.030583
    36  H    0.027205
    37  H    0.023298
    38  H    0.056391
    39  H    0.062977
    40  H    0.071267
    41  H    0.030720
    42  C   -0.104586
    43  O   -0.274628
    44  C    0.176230
    45  H    0.135691
    46  N   -0.132459
    47  O   -0.353773
    48  C    0.360994
    49  H    0.047157
    50  C    0.177038
    51  C    0.039085
    52  N   -0.293285
    53  H    0.032420
    54  H    0.037381
    55  H    0.018623
    56  H    0.119814
    57  H    0.119228
    58  N   -0.050161
    59  C    0.120647
    60  C    0.233329
    61  N   -0.261247
    62  H    0.048219
    63  C    0.146865
    64  N   -0.300610
    65  H    0.025360
    66  C    0.124133
    67  N   -0.259560
    68  C    0.012569
    69  C    0.173547
    70  N   -0.305472
 Sum of Mulliken charges =  -0.00000

 Dipole moment (field-independent basis, Debye):
    X=              6.3534    Y=              6.0034    Z=              2.8824  Tot=              9.2041
 Quadrupole moment (field-independent basis, Debye-Ang):
   XX=           -138.8477   YY=           -225.9275   ZZ=           -252.9500
   XY=             12.7822   XZ=             17.9569   YZ=             -6.0292

 Normal termination of Gaussian 16 at Sun Jan 21 22:16:12 2018.
