 Gaussian 16, Revision A.03,
 Gaussian 16:  EM64L-G16RevA.03 25-Dec-2016

 ---------------------------------------
 #p wb97xd/cc-pvdz sp scf=(maxcycles=20)
 ---------------------------------------

 ------------------
 Base pair stacking
 ------------------
 Symbolic Z-matrix:
 Charge =  0 Multiplicity = 1

                         Standard orientation:
 ---------------------------------------------------------------------
 Center     Atomic      Atomic             Coordinates (Angstroms)
 Number     Number       Type             X           Y           Z
 ---------------------------------------------------------------------
      1          7           0       -6.878600   -1.149834    0.321771
      2          6           0       -8.205171   -0.509584    0.230786
      3          6           0       -4.725908   -1.506023    0.598147
      4          7           0       -5.284533   -2.734741    0.277318
      5          6           0       -6.559093   -2.470965    0.123653
      6          1           0       -7.318036   -3.209324   -0.136687
      7          7           0       -3.188831    0.191253    1.163465
      8          6           0       -4.229448    1.030678    1.155677
      9          1           0       -3.992101    2.067711    1.389090
     10          7           0       -5.513204    0.782566    0.904029
     11          6           0       -5.696164   -0.519535    0.629313
     12          6           0       -3.405765   -1.112360    0.883053
     13          7           0       -2.368273   -1.951834    0.890334
     14          1           0       -2.482367   -2.925231    0.688588
     15          1           0       -1.442091   -1.636566    1.097579
     16          1           0       -8.825696   -0.929718    0.893070
     17          1           0       -8.119303    0.466457    0.428532
     18          1           0       -8.573207   -0.630044   -0.691183
     19          7           0       -2.916510    1.990094   -1.568227
     20          6           0       -1.563833    1.923399   -1.336164
     21          6           0       -3.767414    3.171945   -1.323472
     22          7           0        1.382026    3.420760   -0.267721
     23          1           0        2.344832    3.169423   -0.172420
     24          1           0        1.126646    4.349463    0.002491
     25          7           0       -0.790971    2.918324   -0.849473
     26          6           0        0.473468    2.552148   -0.736687
     27          7           0        0.946877    1.307354   -1.074167
     28          1           0        1.929672    1.115521   -0.954709
     29          6           0        0.169804    0.268384   -1.576752
     30          8           0        0.695879   -0.817612   -1.849860
     31          6           0       -1.190950    0.646759   -1.703494
     32          7           0       -2.287467   -0.073542   -2.157052
     33          6           0       -3.286053    0.761570   -2.058980
     34          1           0       -4.316632    0.532003   -2.331889
     35          1           0       -4.478679    2.941083   -0.660440
     36          1           0       -3.205795    3.915407   -0.962785
     37          1           0       -4.192247    3.462062   -2.180302
     38          1           0        6.780413    0.588094    0.475253
     39          1           0        7.098562    0.876666   -1.233592
     40          1           0        5.704960    1.629595   -0.457493
     41          1           0        5.732448   -3.734701   -1.358255
     42          6           0        5.285757   -2.743934   -1.274106
     43          8           0        3.095934   -3.484209   -1.806814
     44          6           0        3.882931   -2.586147   -1.508630
     45          1           0        2.433781   -1.141283   -1.534443
     46          7           0        3.420119   -1.292487   -1.376333
     47          8           0        3.654568    0.927220   -0.957844
     48          6           0        4.154974   -0.179783   -1.051626
     49          1           0        7.099498   -1.744146   -0.767590
     50          6           0        6.028743   -1.677545   -0.955692
     51          6           0        6.325354    0.746360   -0.491151
     52          7           0        5.499714   -0.412922   -0.840635
     53          1           0        3.866094    3.247217    3.053281
     54          1           0        2.744878    3.398717    1.877689
     55          1           0        4.320148    3.228235    1.485828
     56          1           0        0.968729   -3.391823    1.442727
     57          1           0        2.595800   -3.183289    1.910961
     58          7           0        1.722195   -2.768906    1.653454
     59          6           0        1.569818   -1.444352    1.593999
     60          6           0        2.286468    0.817355    1.775047
     61          7           0        1.101796    1.345852    1.426233
     62          1           0       -0.776752    0.726059    0.890026
     63          6           0        0.215241    0.383168    1.180951
     64          7           0        0.365914   -0.944002    1.239944
     65          1           0        5.391866    0.784796    2.673713
     66          6           0        4.373415    0.526604    2.382107
     67          7           0        3.919379   -0.697247    2.264979
     68          6           0        2.597244   -0.527187    1.880549
     69          6           0        3.605757    2.958907    2.131812
     70          7           0        3.438722    1.492920    2.100518
 ---------------------------------------------------------------------

 SCF Done:  E(RwB97XD) =  -2048.72251879     A.U. after   15 cycles

 The electronic state is 1-A.
 Alpha  occ. eigenvalues --  -19.26014 -19.21925 -19.20523 -14.52460 -14.51594
 Alpha  occ. eigenvalues --  -14.49638 -14.48451 -14.47874 -14.46923 -14.46404
 Alpha  occ. eigenvalues --  -14.46290 -14.44627 -14.43194 -14.42943 -14.42511
 Alpha  occ. eigenvalues --  -14.42275 -14.42027 -14.41957 -14.40976 -14.40640
 Alpha  occ. eigenvalues --  -10.45572 -10.40956 -10.40045 -10.38766 -10.38078
 Alpha  occ. eigenvalues --  -10.37691 -10.37238 -10.36272 -10.36144 -10.35729
 Alpha  occ. eigenvalues --  -10.34920 -10.34687 -10.34297 -10.34192 -10.34023
 Alpha  occ. eigenvalues --  -10.33853 -10.33062 -10.31689 -10.31552 -10.30985
 Alpha  occ. eigenvalues --  -10.30248 -10.29443 -10.27996  -1.19562  -1.14340
 Alpha  occ. eigenvalues --   -1.13169  -1.12968  -1.12236  -1.10399  -1.09354
 Alpha  occ. eigenvalues --   -1.08535  -1.08056  -1.05867  -1.03689  -1.02500
 Alpha  occ. eigenvalues --   -1.01308  -1.00232  -0.99584  -0.98436  -0.97793
 Alpha  occ. eigenvalues --   -0.96355  -0.95702  -0.93514  -0.91010  -0.86884
 Alpha  occ. eigenvalues --   -0.85426  -0.84812  -0.83955  -0.83849  -0.83133
 Alpha  occ. eigenvalues --   -0.82150  -0.78854  -0.76140  -0.74571  -0.73861
 Alpha  occ. eigenvalues --   -0.73752  -0.73504  -0.73364  -0.71980  -0.69572
 Alpha  occ. eigenvalues --   -0.67295  -0.67153  -0.66556  -0.65915  -0.64435
 Alpha  occ. eigenvalues --   -0.63661  -0.63626  -0.63334  -0.62686  -0.61625
 Alpha  occ. eigenvalues --   -0.61021  -0.60403  -0.59738  -0.59495  -0.59045
 Alpha  occ. eigenvalues --   -0.58773  -0.58163  -0.57434  -0.57221  -0.56748
 Alpha  occ. eigenvalues --   -0.56099  -0.55949  -0.55214  -0.54680  -0.54362
 Alpha  occ. eigenvalues --   -0.53841  -0.53486  -0.53002  -0.52737  -0.52657
 Alpha  occ. eigenvalues --   -0.52524  -0.52306  -0.51877  -0.51558  -0.50963
 Alpha  occ. eigenvalues --   -0.49974  -0.49884  -0.49434  -0.49076  -0.48617
 Alpha  occ. eigenvalues --   -0.48573  -0.48136  -0.48047  -0.47689  -0.47611
 Alpha  occ. eigenvalues --   -0.47307  -0.45725  -0.45573  -0.43960  -0.43110
 Alpha  occ. eigenvalues --   -0.42071  -0.40040  -0.39571  -0.38107  -0.37355
 Alpha  occ. eigenvalues --   -0.37182  -0.36946  -0.36225  -0.35635  -0.34507
 Alpha  occ. eigenvalues --   -0.34409  -0.34310  -0.33332  -0.33125  -0.32710
 Alpha  occ. eigenvalues --   -0.32538  -0.32178  -0.31908  -0.31766  -0.31611
 Alpha  occ. eigenvalues --   -0.31218  -0.28303  -0.26681  -0.25335
 Alpha virt. eigenvalues --    0.03211   0.04659   0.07110   0.07991   0.08742
 Alpha virt. eigenvalues --    0.09096   0.09580   0.10008   0.11088   0.11727
 Alpha virt. eigenvalues --    0.12983   0.13381   0.14374   0.14635   0.14707

 Mulliken charges:
               1
     1  N   -0.311909
     2  C    0.180376
     3  C    0.045682
     4  N   -0.257515
     5  C    0.133722
     6  H    0.029312
     7  N   -0.273830
     8  C    0.122239
     9  H    0.019563
    10  N   -0.289867
    11  C    0.231246
    12  C    0.106931
    13  N   -0.048305
    14  H    0.107931
    15  H    0.088065
    16  H    0.027781
    17  H    0.034382
    18  H    0.026851
    19  N   -0.295721
    20  C    0.234245
    21  C    0.177901
    22  N   -0.084246
    23  H    0.102064
    24  H    0.115413
    25  N   -0.287632
    26  C    0.205515
    27  N   -0.112761
    28  H    0.120272
    29  C    0.130846
    30  O   -0.319975
    31  C    0.018537
    32  N   -0.221486
    33  C    0.118055
    34  H    0.026869
    35  H    0.024472
    36  H    0.025968
    37  H    0.022071
    38  H    0.053994
    39  H    0.065251
    40  H    0.071974
    41  H    0.030710
    42  C   -0.109892
    43  O   -0.267914
    44  C    0.178808
    45  H    0.136141
    46  N   -0.133886
    47  O   -0.349827
    48  C    0.355960
    49  H    0.046800
    50  C    0.178381
    51  C    0.035119
    52  N   -0.288749
    53  H    0.035573
    54  H    0.024421
    55  H    0.025424
    56  H    0.120811
    57  H    0.118691
    58  N   -0.064232
    59  C    0.123801
    60  C    0.230960
    61  N   -0.274118
    62  H    0.055735
    63  C    0.160584
    64  N   -0.301396
    65  H    0.028641
    66  C    0.116017
    67  N   -0.254775
    68  C    0.007253
    69  C    0.170452
    70  N   -0.299779
 Sum of Mulliken charges =  -0.00000

 Dipole moment (field-independent basis, Debye):
    X=              6.0052    Y=              5.9017    Z=              3.6870  Tot=              9.1917
 Quadrupole moment (field-independent basis, Debye-Ang):
   XX=           -140.9099   YY=           -227.2499   ZZ=           -256.0345
   XY=             13.1025   XZ=             13.8598   YZ=             -9.4428

 Normal termination of Gaussian 16 at Sun Jan 21 08:02:26 2018.
