 Gaussian 16, Revision A.03,
 Gaussian 16:  EM64L-G16RevA.03 25-Dec-2016

 ---------------------------------------
 #p wb97xd/cc-pvdz sp scf=(maxcycles=20)
 ---------------------------------------

 ------------------
 Base pair stacking
 ------------------
 Symbolic Z-matrix:
 Charge =  0 Multiplicity = 1

                         Standard orientation:
 ---------------------------------------------------------------------
 Center     Atomic      Atomic             Coordinates (Angstroms)
 Number     Number       Type             X           Y           Z
 ---------------------------------------------------------------------
      1          7           0       -6.130509   -1.656529    0.506013
      2          6           0       -7.486510   -1.229696    0.902347
      3          6           0       -3.946112   -1.872660    0.368236
      4          7           0       -4.481962   -2.738614   -0.573942
      5          6           0       -5.776541   -2.573743   -0.453225
      6          1           0       -6.526389   -3.100497   -1.044155
      7          7           0       -2.432185   -0.664924    1.714481
      8          6           0       -3.503797   -0.094782    2.274985
      9          1           0       -3.288220    0.632564    3.056497
     10          7           0       -4.795656   -0.287294    2.016252
     11          6           0       -4.950042   -1.198810    1.041717
     12          6           0       -2.620885   -1.578000    0.736846
     13          7           0       -1.552429   -2.148238    0.176134
     14          1           0       -1.644915   -2.829303   -0.551063
     15          1           0       -0.623601   -1.914239    0.463656
     16          1           0       -8.003112   -2.019955    1.232190
     17          1           0       -7.422617   -0.547212    1.629850
     18          1           0       -7.956510   -0.831634    0.114541
     19          7           0       -3.728392    2.537301   -0.974587
     20          6           0       -2.358277    2.466761   -0.898012
     21          6           0       -4.553364    3.664049   -0.494427
     22          7           0        0.678713    3.872869    0.030050
     23          1           0        1.647319    3.629081   -0.009928
     24          1           0        0.449692    4.756067    0.440204
     25          7           0       -1.542023    3.407367   -0.375469
     26          6           0       -0.271127    3.052922   -0.444727
     27          7           0        0.168850    1.868412   -0.984054
     28          1           0        1.159673    1.681026   -0.994875
     29          6           0       -0.653105    0.886009   -1.527343
     30          8           0       -0.154563   -0.147987   -1.988891
     31          6           0       -2.021319    1.252546   -1.460092
     32          7           0       -3.157031    0.574436   -1.881065
     33          6           0       -4.143050    1.372740   -1.573345
     34          1           0       -5.195981    1.160244   -1.761632
     35          1           0       -5.187897    3.339860    0.206340
     36          1           0       -3.959555    4.367016   -0.105207
     37          1           0       -5.069479    4.050582   -1.257994
     38          1           0        6.138730    1.067868   -0.166812
     39          1           0        6.269378    1.572061   -1.850073
     40          1           0        4.964155    2.197509   -0.841828
     41          1           0        4.919032   -3.012072   -2.405782
     42          6           0        4.479468   -2.047654   -2.151018
     43          8           0        2.248388   -2.755498   -2.536197
     44          6           0        3.058817   -1.887336   -2.213255
     45          1           0        1.608697   -0.476864   -1.903318
     46          7           0        2.607020   -0.628685   -1.871308
     47          8           0        2.875017    1.525763   -1.205175
     48          6           0        3.367479    0.448184   -1.489733
     49          1           0        6.332636   -1.085884   -1.719098
     50          6           0        5.247541   -1.015791   -1.782326
     51          6           0        5.581358    1.336633   -1.051782
     52          7           0        4.728192    0.214993   -1.453973
     53          1           0        4.650088    1.465335    4.540379
     54          1           0        3.390204    2.149017    3.761048
     55          1           0        4.913268    2.408354    3.234678
     56          1           0        1.889515   -3.271963   -0.459898
     57          1           0        3.549651   -3.200089   -0.074033
     58          7           0        2.633307   -2.810204    0.023529
     59          6           0        2.414032   -1.722793    0.765573
     60          6           0        3.042235    0.075238    2.191819
     61          7           0        1.801191    0.576732    2.304759
     62          1           0       -0.097540    0.185209    1.639806
     63          6           0        0.936924   -0.153600    1.602931
     64          7           0        1.154594   -1.243053    0.859086
     65          1           0        6.231170   -0.138099    2.678991
     66          6           0        5.198084   -0.287009    2.363543
     67          7           0        4.790155   -1.255963    1.580986
     68          6           0        3.425042   -1.037985    1.464006
     69          6           0        4.294684    1.739199    3.646686
     70          7           0        4.192830    0.555860    2.770708
 ---------------------------------------------------------------------

 SCF Done:  E(RwB97XD) =  -2048.73770703     A.U. after   15 cycles

 The electronic state is 1-A.
 Alpha  occ. eigenvalues --  -19.26119 -19.22132 -19.20848 -14.52581 -14.51815
 Alpha  occ. eigenvalues --  -14.48876 -14.48662 -14.48022 -14.47162 -14.46892
 Alpha  occ. eigenvalues --  -14.46339 -14.44917 -14.43406 -14.43287 -14.42198
 Alpha  occ. eigenvalues --  -14.41895 -14.41175 -14.40980 -14.40795 -14.40047
 Alpha  occ. eigenvalues --  -10.45727 -10.41432 -10.40686 -10.38828 -10.38436
 Alpha  occ. eigenvalues --  -10.38007 -10.37406 -10.36436 -10.35423 -10.35182
 Alpha  occ. eigenvalues --  -10.34961 -10.34479 -10.33883 -10.33452 -10.33438
 Alpha  occ. eigenvalues --  -10.33172 -10.32954 -10.31857 -10.31169 -10.31052
 Alpha  occ. eigenvalues --  -10.30904 -10.28293 -10.28248  -1.19679  -1.14526
 Alpha  occ. eigenvalues --   -1.13676  -1.13398  -1.11192  -1.10725  -1.09515
 Alpha  occ. eigenvalues --   -1.08771  -1.08249  -1.04824  -1.03801  -1.02814
 Alpha  occ. eigenvalues --   -1.00276  -1.00200  -0.99960  -0.98720  -0.96793
 Alpha  occ. eigenvalues --   -0.96699  -0.95864  -0.92470  -0.91254  -0.86910
 Alpha  occ. eigenvalues --   -0.85286  -0.84232  -0.83852  -0.83825  -0.82582
 Alpha  occ. eigenvalues --   -0.82214  -0.79111  -0.76201  -0.74780  -0.73976
 Alpha  occ. eigenvalues --   -0.73851  -0.73637  -0.72720  -0.70882  -0.69568
 Alpha  occ. eigenvalues --   -0.67574  -0.66797  -0.66111  -0.65911  -0.64690
 Alpha  occ. eigenvalues --   -0.63957  -0.63368  -0.62844  -0.62509  -0.61930
 Alpha  occ. eigenvalues --   -0.60446  -0.60102  -0.59658  -0.59624  -0.58815
 Alpha  occ. eigenvalues --   -0.58687  -0.58575  -0.56727  -0.56398  -0.56349
 Alpha  occ. eigenvalues --   -0.56210  -0.55206  -0.54963  -0.54668  -0.54537
 Alpha  occ. eigenvalues --   -0.53852  -0.53638  -0.53123  -0.52907  -0.52826
 Alpha  occ. eigenvalues --   -0.52688  -0.52063  -0.51689  -0.50700  -0.50369
 Alpha  occ. eigenvalues --   -0.50097  -0.49788  -0.49733  -0.49311  -0.49121
 Alpha  occ. eigenvalues --   -0.48603  -0.48523  -0.47818  -0.47648  -0.47483
 Alpha  occ. eigenvalues --   -0.46815  -0.45743  -0.44855  -0.44115  -0.43324
 Alpha  occ. eigenvalues --   -0.40973  -0.39971  -0.39669  -0.37434  -0.37420
 Alpha  occ. eigenvalues --   -0.36986  -0.36886  -0.36712  -0.36129  -0.34387
 Alpha  occ. eigenvalues --   -0.34069  -0.33743  -0.33500  -0.33317  -0.33189
 Alpha  occ. eigenvalues --   -0.32730  -0.32526  -0.32243  -0.32039  -0.30775
 Alpha  occ. eigenvalues --   -0.30256  -0.28843  -0.25608  -0.25477
 Alpha virt. eigenvalues --    0.02651   0.04939   0.07442   0.08164   0.08502
 Alpha virt. eigenvalues --    0.08935   0.09608   0.10809   0.11224   0.12098
 Alpha virt. eigenvalues --    0.13245   0.14082   0.14476   0.14637   0.15405

 Mulliken charges:
               1
     1  N   -0.311625
     2  C    0.180464
     3  C    0.056953
     4  N   -0.252995
     5  C    0.129351
     6  H    0.025094
     7  N   -0.293436
     8  C    0.133466
     9  H    0.011456
    10  N   -0.292006
    11  C    0.232069
    12  C    0.101987
    13  N   -0.044309
    14  H    0.112994
    15  H    0.092310
    16  H    0.026246
    17  H    0.033186
    18  H    0.021847
    19  N   -0.310161
    20  C    0.256070
    21  C    0.180364
    22  N   -0.122088
    23  H    0.114810
    24  H    0.118343
    25  N   -0.310514
    26  C    0.246533
    27  N   -0.148769
    28  H    0.120397
    29  C    0.188701
    30  O   -0.325781
    31  C   -0.013519
    32  N   -0.222847
    33  C    0.132380
    34  H    0.022912
    35  H    0.031432
    36  H    0.028869
    37  H    0.023476
    38  H    0.056225
    39  H    0.060816
    40  H    0.072915
    41  H    0.027908
    42  C   -0.115569
    43  O   -0.289115
    44  C    0.135841
    45  H    0.136868
    46  N   -0.108461
    47  O   -0.344843
    48  C    0.344398
    49  H    0.047828
    50  C    0.196866
    51  C    0.041982
    52  N   -0.282216
    53  H    0.032896
    54  H    0.041806
    55  H    0.023431
    56  H    0.130684
    57  H    0.112297
    58  N   -0.038612
    59  C    0.094095
    60  C    0.251406
    61  N   -0.275434
    62  H    0.035518
    63  C    0.163709
    64  N   -0.302590
    65  H    0.033091
    66  C    0.123972
    67  N   -0.260998
    68  C    0.009187
    69  C    0.180872
    70  N   -0.310429
 Sum of Mulliken charges =  -0.00000

 Dipole moment (field-independent basis, Debye):
    X=              7.0844    Y=              6.4825    Z=              3.0916  Tot=             10.0881
 Quadrupole moment (field-independent basis, Debye-Ang):
   XX=           -146.0439   YY=           -224.3876   ZZ=           -253.5218
   XY=              5.3311   XZ=              8.2075   YZ=              1.7672

 Normal termination of Gaussian 16 at Sun Jan 21 14:46:21 2018.
