 Gaussian 16, Revision A.03,
 Gaussian 16:  EM64L-G16RevA.03 25-Dec-2016

 ---------------------------------------
 #p wb97xd/cc-pvdz sp scf=(maxcycles=20)
 ---------------------------------------

 ------------------
 Base pair stacking
 ------------------
 Symbolic Z-matrix:
 Charge =  0 Multiplicity = 1

                         Standard orientation:
 ---------------------------------------------------------------------
 Center     Atomic      Atomic             Coordinates (Angstroms)
 Number     Number       Type             X           Y           Z
 ---------------------------------------------------------------------
      1          7           0       -6.923058   -1.187222    0.270071
      2          6           0       -8.262966   -0.572343    0.337657
      3          6           0       -4.759613   -1.547065    0.435423
      4          7           0       -5.299981   -2.688107   -0.139688
      5          6           0       -6.581744   -2.425647   -0.216294
      6          1           0       -7.330719   -3.106010   -0.622608
      7          7           0       -3.245954    0.019505    1.339659
      8          6           0       -4.302403    0.816894    1.528511
      9          1           0       -4.081024    1.782878    1.980315
     10          7           0       -5.585232    0.601197    1.244391
     11          6           0       -5.747874   -0.613143    0.693617
     12          6           0       -3.442619   -1.195804    0.783407
     13          7           0       -2.389297   -1.993199    0.594084
     14          1           0       -2.488163   -2.901269    0.185602
     15          1           0       -1.465967   -1.710252    0.853969
     16          1           0       -8.864125   -1.140814    0.899478
     17          1           0       -8.192453    0.338545    0.743157
     18          1           0       -8.644092   -0.496572   -0.583750
     19          7           0       -2.839179    2.209298   -1.568865
     20          6           0       -1.484544    2.119415   -1.356922
     21          6           0       -3.660158    3.416069   -1.344374
     22          7           0        1.510481    3.581171   -0.379739
     23          1           0        2.469105    3.311481   -0.292874
     24          1           0        1.279769    4.522553   -0.132189
     25          7           0       -0.682333    3.110457   -0.911559
     26          6           0        0.575640    2.719849   -0.808818
     27          7           0        1.016341    1.455867   -1.118064
     28          1           0        1.996649    1.245890   -1.009082
     29          6           0        0.208708    0.420450   -1.577977
     30          8           0        0.706567   -0.684178   -1.828307
     31          6           0       -1.145507    0.824968   -1.693474
     32          7           0       -2.264783    0.116448   -2.108346
     33          6           0       -3.243336    0.975809   -2.018119
     34          1           0       -4.283067    0.761373   -2.267605
     35          1           0       -4.364987    3.219822   -0.663557
     36          1           0       -3.076654    4.156908   -1.014306
     37          1           0       -4.092993    3.691089   -2.202180
     38          1           0        6.858252    0.652413    0.356667
     39          1           0        7.153769    0.885376   -1.364683
     40          1           0        5.789978    1.690518   -0.588047
     41          1           0        5.686616   -3.696451   -1.334852
     42          6           0        5.262875   -2.694086   -1.271940
     43          8           0        3.048945   -3.400724   -1.747645
     44          6           0        3.860026   -2.512137   -1.488147
     45          1           0        2.442148   -1.036997   -1.531917
     46          7           0        3.427519   -1.205359   -1.385539
     47          8           0        3.716789    1.019607   -1.034759
     48          6           0        4.191547   -0.100371   -1.104824
     49          1           0        7.106021   -1.720570   -0.823759
     50          6           0        6.033934   -1.635745   -0.996329
     51          6           0        6.390515    0.793224   -0.606385
     52          7           0        5.534314   -0.357020   -0.909043
     53          1           0        3.780091    2.745272    3.766038
     54          1           0        2.636563    3.124978    2.665919
     55          1           0        4.207978    3.079474    2.227000
     56          1           0        0.983420   -3.444246    0.777052
     57          1           0        2.613859   -3.306818    1.259636
     58          7           0        1.728286   -2.865779    1.109764
     59          6           0        1.549644   -1.564004    1.343516
     60          6           0        2.225894    0.618887    2.006415
     61          7           0        1.025637    1.184257    1.796235
     62          1           0       -0.849482    0.654867    1.160408
     63          6           0        0.153636    0.278909    1.357081
     64          7           0        0.330618   -1.025371    1.122321
     65          1           0        5.346031    0.460034    2.838088
     66          6           0        4.327939    0.249147    2.509533
     67          7           0        3.895459   -0.929347    2.132943
     68          6           0        2.564046   -0.708935    1.811275
     69          6           0        3.509839    2.659589    2.807063
     70          7           0        3.370334    1.232533    2.457719
 ---------------------------------------------------------------------

 SCF Done:  E(RwB97XD) =  -2048.74816915     A.U. after   15 cycles

 The electronic state is 1-A.
 Alpha  occ. eigenvalues --  -19.26033 -19.22121 -19.20646 -14.52480 -14.51395
 Alpha  occ. eigenvalues --  -14.49399 -14.48629 -14.47941 -14.46834 -14.46830
 Alpha  occ. eigenvalues --  -14.46388 -14.44423 -14.42799 -14.42776 -14.42549
 Alpha  occ. eigenvalues --  -14.42075 -14.42040 -14.41572 -14.40752 -14.40700
 Alpha  occ. eigenvalues --  -10.45601 -10.41236 -10.40206 -10.38403 -10.38254
 Alpha  occ. eigenvalues --  -10.37748 -10.37013 -10.35937 -10.35916 -10.35649
 Alpha  occ. eigenvalues --  -10.34690 -10.34413 -10.34339 -10.34008 -10.33688
 Alpha  occ. eigenvalues --  -10.33370 -10.33190 -10.31505 -10.31348 -10.31029
 Alpha  occ. eigenvalues --  -10.30550 -10.29162 -10.28112  -1.19555  -1.14066
 Alpha  occ. eigenvalues --   -1.13239  -1.13140  -1.11987  -1.10525  -1.09380
 Alpha  occ. eigenvalues --   -1.08600  -1.07744  -1.05547  -1.03301  -1.02579
 Alpha  occ. eigenvalues --   -1.00951  -0.99904  -0.99792  -0.98532  -0.97534
 Alpha  occ. eigenvalues --   -0.96466  -0.95356  -0.93178  -0.91041  -0.86515
 Alpha  occ. eigenvalues --   -0.84995  -0.84541  -0.84047  -0.83866  -0.82887
 Alpha  occ. eigenvalues --   -0.82326  -0.78902  -0.75765  -0.74587  -0.73710
 Alpha  occ. eigenvalues --   -0.73487  -0.73445  -0.73422  -0.71642  -0.69142
 Alpha  occ. eigenvalues --   -0.67411  -0.66843  -0.66606  -0.65473  -0.64502
 Alpha  occ. eigenvalues --   -0.63750  -0.63300  -0.62915  -0.62689  -0.61768
 Alpha  occ. eigenvalues --   -0.60692  -0.60043  -0.59553  -0.59313  -0.58755
 Alpha  occ. eigenvalues --   -0.58430  -0.58385  -0.57020  -0.57001  -0.56523
 Alpha  occ. eigenvalues --   -0.56072  -0.55834  -0.54637  -0.54439  -0.54318
 Alpha  occ. eigenvalues --   -0.53627  -0.53552  -0.52903  -0.52741  -0.52683
 Alpha  occ. eigenvalues --   -0.52320  -0.52221  -0.51683  -0.51357  -0.50726
 Alpha  occ. eigenvalues --   -0.50137  -0.49618  -0.49514  -0.48925  -0.48760
 Alpha  occ. eigenvalues --   -0.48613  -0.48252  -0.47800  -0.47654  -0.47518
 Alpha  occ. eigenvalues --   -0.47419  -0.45555  -0.45326  -0.44030  -0.43281
 Alpha  occ. eigenvalues --   -0.41777  -0.39607  -0.39563  -0.37770  -0.37298
 Alpha  occ. eigenvalues --   -0.37225  -0.36685  -0.36290  -0.35700  -0.34453
 Alpha  occ. eigenvalues --   -0.34121  -0.34078  -0.33312  -0.33209  -0.32844
 Alpha  occ. eigenvalues --   -0.32668  -0.32260  -0.32026  -0.31857  -0.31541
 Alpha  occ. eigenvalues --   -0.30913  -0.28429  -0.26367  -0.25450
 Alpha virt. eigenvalues --    0.03106   0.05027   0.07411   0.08213   0.08595
 Alpha virt. eigenvalues --    0.09167   0.09646   0.10329   0.10868   0.11775
 Alpha virt. eigenvalues --    0.12826   0.13555   0.14454   0.14638   0.15414

 Mulliken charges:
               1
     1  N   -0.311102
     2  C    0.180536
     3  C    0.039476
     4  N   -0.256352
     5  C    0.132117
     6  H    0.028263
     7  N   -0.281669
     8  C    0.127232
     9  H    0.015283
    10  N   -0.290574
    11  C    0.231315
    12  C    0.109535
    13  N   -0.045380
    14  H    0.108541
    15  H    0.088758
    16  H    0.027344
    17  H    0.034803
    18  H    0.025579
    19  N   -0.304589
    20  C    0.242900
    21  C    0.180429
    22  N   -0.113854
    23  H    0.111069
    24  H    0.116689
    25  N   -0.300558
    26  C    0.234148
    27  N   -0.124557
    28  H    0.118344
    29  C    0.148181
    30  O   -0.321417
    31  C    0.005856
    32  N   -0.223911
    33  C    0.125636
    34  H    0.028027
    35  H    0.030662
    36  H    0.027000
    37  H    0.022864
    38  H    0.054595
    39  H    0.063365
    40  H    0.071739
    41  H    0.029906
    42  C   -0.105000
    43  O   -0.274824
    44  C    0.170236
    45  H    0.137706
    46  N   -0.131452
    47  O   -0.351432
    48  C    0.355458
    49  H    0.047038
    50  C    0.180669
    51  C    0.038731
    52  N   -0.289272
    53  H    0.033179
    54  H    0.036930
    55  H    0.020329
    56  H    0.122305
    57  H    0.118673
    58  N   -0.049484
    59  C    0.114263
    60  C    0.236289
    61  N   -0.266875
    62  H    0.046526
    63  C    0.156004
    64  N   -0.300649
    65  H    0.027911
    66  C    0.121858
    67  N   -0.257560
    68  C    0.007119
    69  C    0.176392
    70  N   -0.307296
 Sum of Mulliken charges =  -0.00000

 Dipole moment (field-independent basis, Debye):
    X=              6.4913    Y=              6.0522    Z=              2.9423  Tot=              9.3500
 Quadrupole moment (field-independent basis, Debye-Ang):
   XX=           -140.9266   YY=           -225.3660   ZZ=           -254.0162
   XY=             11.3033   XZ=             15.4914   YZ=             -5.8039

 Normal termination of Gaussian 16 at Sun Jan 21 21:29:43 2018.
