 Gaussian 16, Revision A.03,
 Gaussian 16:  EM64L-G16RevA.03 25-Dec-2016

 ---------------------------------------
 #p wb97xd/cc-pvdz sp scf=(maxcycles=20)
 ---------------------------------------

 ------------------
 Base pair stacking
 ------------------
 Symbolic Z-matrix:
 Charge =  0 Multiplicity = 1

                         Standard orientation:
 ---------------------------------------------------------------------
 Center     Atomic      Atomic             Coordinates (Angstroms)
 Number     Number       Type             X           Y           Z
 ---------------------------------------------------------------------
      1          7           0        6.046657   -1.261569   -0.856800
      2          6           0        7.387816   -0.653715   -0.757867
      3          6           0        3.875951   -1.554284   -1.056056
      4          7           0        4.428313   -2.820618   -0.929449
      5          6           0        5.713975   -2.593589   -0.814473
      6          1           0        6.472106   -3.368153   -0.695250
      7          7           0        2.342191    0.219556   -1.308972
      8          6           0        3.397040    1.038978   -1.250475
      9          1           0        3.166625    2.100236   -1.333459
     10          7           0        4.687716    0.745635   -1.105540
     11          6           0        4.861174   -0.583191   -1.013077
     12          6           0        2.549837   -1.111888   -1.212956
     13          7           0        1.498124   -1.931455   -1.271127
     14          1           0        1.604960   -2.924100   -1.204307
     15          1           0        0.568087   -1.581378   -1.383415
     16          1           0        7.963741   -0.990583   -1.502856
     17          1           0        7.309432    0.340710   -0.821954
     18          1           0        7.802891   -0.897855    0.118548
     19          7           0        3.859181    1.779465    1.378619
     20          6           0        2.493613    1.753547    1.228308
     21          6           0        4.733714    2.920409    1.040771
     22          7           0       -0.457953    3.317741    0.277876
     23          1           0       -1.432704    3.098156    0.248218
     24          1           0       -0.187665    4.226487   -0.041255
     25          7           0        1.727459    2.757950    0.750565
     26          6           0        0.446832    2.433952    0.725313
     27          7           0       -0.047716    1.219772    1.136039
     28          1           0       -1.041836    1.059492    1.081221
     29          6           0        0.722086    0.171791    1.631037
     30          8           0        0.176568   -0.884167    1.974684
     31          6           0        2.100045    0.504977    1.664165
     32          7           0        3.196472   -0.238015    2.079751
     33          6           0        4.215279    0.556485    1.892603
     34          1           0        5.251850    0.299598    2.113474
     35          1           0        5.396039    2.640743    0.346568
     36          1           0        4.177246    3.670497    0.685844
     37          1           0        5.218369    3.225063    1.859988
     38          1           0       -5.984142    0.657548   -0.043356
     39          1           0       -6.190124    1.017581    1.669126
     40          1           0       -4.820338    1.691784    0.785666
     41          1           0       -4.976576   -3.632867    1.886320
     42          6           0       -4.502254   -2.662484    1.739365
     43          8           0       -2.311063   -3.462139    2.171040
     44          6           0       -3.083414   -2.547310    1.885804
     45          1           0       -1.587013   -1.155754    1.773237
     46          7           0       -2.585576   -1.276694    1.678549
     47          8           0       -2.768892    0.933875    1.191763
     48          6           0       -3.300180   -0.150326    1.355801
     49          1           0       -6.307874   -1.616304    1.302229
     50          6           0       -5.226181   -1.581842    1.425090
     51          6           0       -5.467307    0.833283    0.888337
     52          7           0       -4.662243   -0.342015    1.232270
     53          1           0       -4.746945    3.575734   -2.387260
     54          1           0       -3.561171    3.559544   -1.266632
     55          1           0       -5.115815    3.357028   -0.812604
     56          1           0       -1.889907   -3.249146   -1.818107
     57          1           0       -3.535792   -2.962836   -2.163354
     58          7           0       -2.642020   -2.595565   -1.903532
     59          6           0       -2.462197   -1.291977   -1.681072
     60          6           0       -3.145673    0.981923   -1.526202
     61          7           0       -1.934305    1.446875   -1.178598
     62          1           0       -0.041276    0.741158   -0.833601
     63          6           0       -1.053717    0.450463   -1.110580
     64          7           0       -1.231872   -0.855817   -1.333016
     65          1           0       -6.295204    1.102168   -2.246030
     66          6           0       -5.267415    0.796598   -2.047986
     67          7           0       -4.830404   -0.437100   -2.116533
     68          6           0       -3.486503   -0.333686   -1.787968
     69          6           0       -4.442514    3.166474   -1.527127
     70          7           0       -4.301153    1.707196   -1.696020
 ---------------------------------------------------------------------

 SCF Done:  E(RwB97XD) =  -2048.71249086     A.U. after   15 cycles

 The electronic state is 1-A.
 Alpha  occ. eigenvalues --  -19.25481 -19.21638 -19.20392 -14.52482 -14.52159
 Alpha  occ. eigenvalues --  -14.49284 -14.48078 -14.47999 -14.47518 -14.46417
 Alpha  occ. eigenvalues --  -14.45605 -14.45578 -14.44169 -14.44044 -14.42986
 Alpha  occ. eigenvalues --  -14.41846 -14.41618 -14.41470 -14.40725 -14.40534
 Alpha  occ. eigenvalues --  -10.45088 -10.40699 -10.39894 -10.39762 -10.38102
 Alpha  occ. eigenvalues --  -10.37870 -10.37454 -10.37215 -10.36000 -10.35385
 Alpha  occ. eigenvalues --  -10.34941 -10.34535 -10.34482 -10.33849 -10.33709
 Alpha  occ. eigenvalues --  -10.33558 -10.32907 -10.32597 -10.31624 -10.30735
 Alpha  occ. eigenvalues --  -10.29746 -10.28923 -10.27568  -1.19296  -1.15345
 Alpha  occ. eigenvalues --   -1.12960  -1.12684  -1.11837  -1.10196  -1.09321
 Alpha  occ. eigenvalues --   -1.08969  -1.08159  -1.05617  -1.04764  -1.02190
 Alpha  occ. eigenvalues --   -1.01154  -1.01109  -0.99127  -0.98282  -0.97500
 Alpha  occ. eigenvalues --   -0.96760  -0.96087  -0.93321  -0.90743  -0.87866
 Alpha  occ. eigenvalues --   -0.86275  -0.84501  -0.83601  -0.83511  -0.82868
 Alpha  occ. eigenvalues --   -0.81771  -0.78567  -0.77164  -0.75097  -0.74188
 Alpha  occ. eigenvalues --   -0.73478  -0.73239  -0.73043  -0.71642  -0.70567
 Alpha  occ. eigenvalues --   -0.66997  -0.66924  -0.66819  -0.66241  -0.64462
 Alpha  occ. eigenvalues --   -0.64268  -0.63478  -0.63258  -0.62591  -0.61419
 Alpha  occ. eigenvalues --   -0.61276  -0.60915  -0.60782  -0.59672  -0.59280
 Alpha  occ. eigenvalues --   -0.58454  -0.57845  -0.57521  -0.57067  -0.56478
 Alpha  occ. eigenvalues --   -0.55986  -0.55921  -0.55518  -0.54688  -0.54327
 Alpha  occ. eigenvalues --   -0.54020  -0.53684  -0.53240  -0.53125  -0.52579
 Alpha  occ. eigenvalues --   -0.52470  -0.52317  -0.52254  -0.51357  -0.50615
 Alpha  occ. eigenvalues --   -0.49718  -0.49693  -0.49187  -0.49140  -0.48584
 Alpha  occ. eigenvalues --   -0.48504  -0.48303  -0.47967  -0.47511  -0.47066
 Alpha  occ. eigenvalues --   -0.46910  -0.45518  -0.45062  -0.44396  -0.43327
 Alpha  occ. eigenvalues --   -0.41457  -0.40961  -0.39375  -0.37935  -0.37799
 Alpha  occ. eigenvalues --   -0.37753  -0.37022  -0.36878  -0.35995  -0.34527
 Alpha  occ. eigenvalues --   -0.34295  -0.33974  -0.33879  -0.32866  -0.32848
 Alpha  occ. eigenvalues --   -0.32400  -0.32275  -0.31847  -0.31562  -0.31230
 Alpha  occ. eigenvalues --   -0.30928  -0.29480  -0.26017  -0.24677
 Alpha virt. eigenvalues --    0.03280   0.04005   0.06805   0.07216   0.08374
 Alpha virt. eigenvalues --    0.08862   0.09954   0.10816   0.11061   0.11964
 Alpha virt. eigenvalues --    0.13135   0.13851   0.13927   0.14575   0.14900

 Mulliken charges:
               1
     1  N   -0.313353
     2  C    0.177900
     3  C    0.069572
     4  N   -0.259101
     5  C    0.133806
     6  H    0.027449
     7  N   -0.278380
     8  C    0.145881
     9  H    0.013159
    10  N   -0.284206
    11  C    0.232044
    12  C    0.097320
    13  N   -0.053162
    14  H    0.108338
    15  H    0.086194
    16  H    0.028218
    17  H    0.032295
    18  H    0.026826
    19  N   -0.269325
    20  C    0.190081
    21  C    0.181329
    22  N   -0.085307
    23  H    0.113911
    24  H    0.108961
    25  N   -0.287961
    26  C    0.193982
    27  N   -0.148000
    28  H    0.132256
    29  C    0.162045
    30  O   -0.323199
    31  C    0.022227
    32  N   -0.219172
    33  C    0.122177
    34  H    0.014412
    35  H    0.019890
    36  H    0.025311
    37  H    0.019442
    38  H    0.052218
    39  H    0.057296
    40  H    0.065764
    41  H    0.028263
    42  C   -0.113579
    43  O   -0.266109
    44  C    0.177187
    45  H    0.131224
    46  N   -0.125536
    47  O   -0.332478
    48  C    0.337445
    49  H    0.045743
    50  C    0.175191
    51  C    0.047977
    52  N   -0.280621
    53  H    0.037276
    54  H    0.033651
    55  H    0.024046
    56  H    0.122969
    57  H    0.119358
    58  N   -0.064513
    59  C    0.110705
    60  C    0.231696
    61  N   -0.281456
    62  H    0.056063
    63  C    0.142121
    64  N   -0.300902
    65  H    0.040192
    66  C    0.097088
    67  N   -0.247944
    68  C    0.024933
    69  C    0.182356
    70  N   -0.291488
 Sum of Mulliken charges =  -0.00000

 Dipole moment (field-independent basis, Debye):
    X=             -6.4232    Y=              6.2714    Z=             -4.1332  Tot=              9.8829
 Quadrupole moment (field-independent basis, Debye-Ang):
   XX=           -146.7283   YY=           -228.2130   ZZ=           -258.6501
   XY=             -9.6267   XZ=              3.8057   YZ=             12.7801

 Normal termination of Gaussian 16 at Sun Jan 21 14:21:56 2018.
