 Gaussian 16, Revision A.03,
 Gaussian 16:  EM64L-G16RevA.03 25-Dec-2016

 ---------------------------------------
 #p wb97xd/cc-pvdz sp scf=(maxcycles=20)
 ---------------------------------------

 ------------------
 Base pair stacking
 ------------------
 Symbolic Z-matrix:
 Charge =  0 Multiplicity = 1

                         Standard orientation:
 ---------------------------------------------------------------------
 Center     Atomic      Atomic             Coordinates (Angstroms)
 Number     Number       Type             X           Y           Z
 ---------------------------------------------------------------------
      1          7           0       -5.502522   -1.649775    1.144386
      2          6           0       -6.857736   -1.138925    1.427979
      3          6           0       -3.317953   -1.860675    1.001211
      4          7           0       -3.856620   -3.001917    0.424904
      5          6           0       -5.151178   -2.829184    0.534232
      6          1           0       -5.902904   -3.536912    0.183543
      7          7           0       -1.799821   -0.244557    1.805200
      8          6           0       -2.870109    0.461413    2.184235
      9          1           0       -2.652253    1.412493    2.668223
     10          7           0       -4.163039    0.170291    2.055768
     11          6           0       -4.320225   -1.017922    1.449266
     12          6           0       -1.991338   -1.435895    1.197637
     13          7           0       -0.924205   -2.142073    0.818554
     14          1           0       -1.018789   -3.029150    0.365384
     15          1           0        0.005675   -1.808672    0.974507
     16          1           0       -7.339969   -1.781808    2.023251
     17          1           0       -6.791764   -0.250917    1.882080
     18          1           0       -7.363660   -1.036649    0.571492
     19          7           0       -4.423339    2.033770   -1.087533
     20          6           0       -3.049541    2.030144   -1.060703
     21          6           0       -5.282237    3.162323   -0.675992
     22          7           0       -0.050093    3.645188   -0.384927
     23          1           0        0.926795    3.441175   -0.442448
     24          1           0       -0.305217    4.551021   -0.045677
     25          7           0       -2.259835    3.048743   -0.657123
     26          6           0       -0.977065    2.745141   -0.746242
     27          7           0       -0.501933    1.537028   -1.195925
     28          1           0        0.495547    1.392730   -1.230311
     29          6           0       -1.296109    0.474724   -1.616219
     30          8           0       -0.766737   -0.574070   -2.004198
     31          6           0       -2.676661    0.785930   -1.526207
     32          7           0       -3.793886    0.023777   -1.838991
     33          6           0       -4.804420    0.802941   -1.563431
     34          1           0       -5.852388    0.528682   -1.689250
     35          1           0       -5.874814    2.875449    0.075921
     36          1           0       -4.708286    3.922756   -0.375018
     37          1           0       -5.843494    3.455452   -1.449209
     38          1           0        5.524848    1.074186   -0.554017
     39          1           0        5.570071    1.429448   -2.279239
     40          1           0        4.274608    2.086031   -1.278212
     41          1           0        4.417201   -3.240560   -2.371342
     42          6           0        3.942403   -2.277113   -2.185390
     43          8           0        1.734474   -3.113298   -2.415444
     44          6           0        2.514466   -2.185060   -2.203859
     45          1           0        1.011971   -0.816816   -1.961484
     46          7           0        2.016829   -0.921525   -1.956709
     47          8           0        2.207462    1.293909   -1.495507
     48          6           0        2.739284    0.217495   -1.703220
     49          1           0        5.762890   -1.200512   -1.915974
     50          6           0        4.674105   -1.183715   -1.941051
     51          6           0        4.923499    1.237390   -1.435957
     52          7           0        4.109856    0.047923   -1.702220
     53          1           0        5.299785    2.835992    3.474999
     54          1           0        3.996420    3.196064    2.561936
     55          1           0        5.493986    3.290868    1.919753
     56          1           0        2.528446   -3.352572    0.460555
     57          1           0        4.196856   -3.125876    0.734632
     58          7           0        3.272719   -2.742233    0.732009
     59          6           0        3.044110   -1.472994    1.075436
     60          6           0        3.662167    0.710186    1.792003
     61          7           0        2.410770    1.198321    1.779271
     62          1           0        0.504899    0.572684    1.358749
     63          6           0        1.547391    0.259611    1.396779
     64          7           0        1.774384   -1.012185    1.052411
     65          1           0        6.869635    0.729458    2.196860
     66          6           0        5.832177    0.464984    1.990245
     67          7           0        5.429359   -0.717448    1.593669
     68          6           0        4.055360   -0.575688    1.464195
     69          6           0        4.908783    2.787800    2.555876
     70          7           0        4.815269    1.377555    2.131050
 ---------------------------------------------------------------------

 SCF Done:  E(RwB97XD) =  -2048.75226647     A.U. after   15 cycles

 The electronic state is 1-A.
 Alpha  occ. eigenvalues --  -19.25649 -19.22016 -19.20610 -14.52448 -14.52147
 Alpha  occ. eigenvalues --  -14.48751 -14.48612 -14.47901 -14.47623 -14.46878
 Alpha  occ. eigenvalues --  -14.46621 -14.45501 -14.44204 -14.44179 -14.42248
 Alpha  occ. eigenvalues --  -14.41993 -14.41110 -14.40984 -14.40967 -14.40294
 Alpha  occ. eigenvalues --  -10.45211 -10.41224 -10.40066 -10.39795 -10.38233
 Alpha  occ. eigenvalues --  -10.37989 -10.37383 -10.37125 -10.35675 -10.35395
 Alpha  occ. eigenvalues --  -10.34970 -10.34347 -10.33940 -10.33858 -10.33416
 Alpha  occ. eigenvalues --  -10.33244 -10.33094 -10.32622 -10.31102 -10.30884
 Alpha  occ. eigenvalues --  -10.30821 -10.28368 -10.28119  -1.19226  -1.15196
 Alpha  occ. eigenvalues --   -1.13180  -1.13006  -1.11157  -1.10576  -1.09195
 Alpha  occ. eigenvalues --   -1.09057  -1.08541  -1.05015  -1.04665  -1.02313
 Alpha  occ. eigenvalues --   -1.00953  -1.00408  -0.99703  -0.98531  -0.96891
 Alpha  occ. eigenvalues --   -0.96643  -0.96580  -0.92693  -0.90799  -0.87587
 Alpha  occ. eigenvalues --   -0.85895  -0.84102  -0.83859  -0.83432  -0.82465
 Alpha  occ. eigenvalues --   -0.82280  -0.78616  -0.76962  -0.74757  -0.74603
 Alpha  occ. eigenvalues --   -0.73614  -0.73172  -0.72832  -0.70998  -0.70313
 Alpha  occ. eigenvalues --   -0.67367  -0.66707  -0.66317  -0.66233  -0.64366
 Alpha  occ. eigenvalues --   -0.64149  -0.63683  -0.62678  -0.62611  -0.61757
 Alpha  occ. eigenvalues --   -0.60825  -0.60457  -0.60314  -0.59394  -0.59222
 Alpha  occ. eigenvalues --   -0.58836  -0.58334  -0.56812  -0.56542  -0.56183
 Alpha  occ. eigenvalues --   -0.55837  -0.55498  -0.55196  -0.54241  -0.54053
 Alpha  occ. eigenvalues --   -0.53713  -0.53616  -0.53518  -0.53358  -0.52929
 Alpha  occ. eigenvalues --   -0.52739  -0.52279  -0.51778  -0.50715  -0.50247
 Alpha  occ. eigenvalues --   -0.50145  -0.49848  -0.49342  -0.48881  -0.48819
 Alpha  occ. eigenvalues --   -0.48793  -0.48379  -0.48367  -0.47560  -0.47318
 Alpha  occ. eigenvalues --   -0.46898  -0.45900  -0.44967  -0.44728  -0.43289
 Alpha  occ. eigenvalues --   -0.41006  -0.40663  -0.39261  -0.37842  -0.37488
 Alpha  occ. eigenvalues --   -0.37297  -0.37247  -0.37058  -0.36126  -0.34586
 Alpha  occ. eigenvalues --   -0.34271  -0.34010  -0.33393  -0.33277  -0.33199
 Alpha  occ. eigenvalues --   -0.32667  -0.32405  -0.32166  -0.31883  -0.30837
 Alpha  occ. eigenvalues --   -0.30448  -0.29342  -0.25734  -0.25369
 Alpha virt. eigenvalues --    0.03282   0.03998   0.07179   0.07855   0.08554
 Alpha virt. eigenvalues --    0.09218   0.09774   0.10478   0.11081   0.12217
 Alpha virt. eigenvalues --    0.12940   0.13902   0.14393   0.14585   0.14948

 Mulliken charges:
               1
     1  N   -0.310030
     2  C    0.178811
     3  C    0.066854
     4  N   -0.255224
     5  C    0.137754
     6  H    0.025837
     7  N   -0.294351
     8  C    0.135217
     9  H    0.011365
    10  N   -0.289107
    11  C    0.237133
    12  C    0.093281
    13  N   -0.048026
    14  H    0.112827
    15  H    0.083883
    16  H    0.026475
    17  H    0.031451
    18  H    0.022024
    19  N   -0.302923
    20  C    0.255863
    21  C    0.182390
    22  N   -0.120096
    23  H    0.116965
    24  H    0.117469
    25  N   -0.309502
    26  C    0.242218
    27  N   -0.145236
    28  H    0.119156
    29  C    0.188900
    30  O   -0.323371
    31  C   -0.017179
    32  N   -0.220755
    33  C    0.121869
    34  H    0.018518
    35  H    0.027673
    36  H    0.029132
    37  H    0.022504
    38  H    0.056165
    39  H    0.060732
    40  H    0.073892
    41  H    0.022417
    42  C   -0.104545
    43  O   -0.270767
    44  C    0.158443
    45  H    0.130602
    46  N   -0.110241
    47  O   -0.342251
    48  C    0.334233
    49  H    0.046160
    50  C    0.169345
    51  C    0.040607
    52  N   -0.277279
    53  H    0.034617
    54  H    0.040331
    55  H    0.025000
    56  H    0.127373
    57  H    0.115885
    58  N   -0.051636
    59  C    0.081237
    60  C    0.229848
    61  N   -0.267800
    62  H    0.032938
    63  C    0.161998
    64  N   -0.301102
    65  H    0.036272
    66  C    0.117575
    67  N   -0.256106
    68  C    0.036275
    69  C    0.182440
    70  N   -0.302423
 Sum of Mulliken charges =  -0.00000

 Dipole moment (field-independent basis, Debye):
    X=              6.7769    Y=              6.7643    Z=              2.7870  Tot=              9.9725
 Quadrupole moment (field-independent basis, Debye-Ang):
   XX=           -149.3335   YY=           -223.4178   ZZ=           -257.0717
   XY=              5.9424   XZ=             -1.1224   YZ=             -5.4318

 Normal termination of Gaussian 16 at Sun Jan 21 19:19:08 2018.
