 Gaussian 16, Revision A.03,
 Gaussian 16:  EM64L-G16RevA.03 25-Dec-2016

 ---------------------------------------
 #p wb97xd/cc-pvdz sp scf=(maxcycles=20)
 ---------------------------------------

 ------------------
 Base pair stacking
 ------------------
 Symbolic Z-matrix:
 Charge =  0 Multiplicity = 1

                         Standard orientation:
 ---------------------------------------------------------------------
 Center     Atomic      Atomic             Coordinates (Angstroms)
 Number     Number       Type             X           Y           Z
 ---------------------------------------------------------------------
      1          7           0       -7.091322   -1.084499    0.194372
      2          6           0       -8.400590   -0.438779   -0.022131
      3          6           0       -4.954823   -1.438410    0.578334
      4          7           0       -5.532297   -2.689325    0.415572
      5          6           0       -6.796348   -2.426036    0.190757
      6          1           0       -7.564650   -3.179318    0.014112
      7          7           0       -3.395261    0.292392    0.945747
      8          6           0       -4.416412    1.141627    0.792019
      9          1           0       -4.162082    2.196512    0.885781
     10          7           0       -5.698550    0.884631    0.541040
     11          6           0       -5.903374   -0.439456    0.444746
     12          6           0       -3.633925   -1.033343    0.843051
     13          7           0       -2.615882   -1.882630    0.996192
     14          1           0       -2.746439   -2.872375    0.928429
     15          1           0       -1.688497   -1.558730    1.183773
     16          1           0       -9.046952   -0.750936    0.674249
     17          1           0       -8.298085    0.553537    0.040501
     18          1           0       -8.747625   -0.679778   -0.928487
     19          7           0       -2.690326    1.886336   -1.549839
     20          6           0       -1.343622    1.822104   -1.284662
     21          6           0       -3.555565    3.055790   -1.295977
     22          7           0        1.563141    3.309176   -0.100993
     23          1           0        2.524928    3.061536    0.012522
     24          1           0        1.294344    4.228693    0.187028
     25          7           0       -0.590573    2.808600   -0.751929
     26          6           0        0.673103    2.447610   -0.616185
     27          7           0        1.163796    1.215305   -0.974153
     28          1           0        2.144528    1.026625   -0.834400
     29          6           0        0.407271    0.185179   -1.524037
     30          8           0        0.947845   -0.889774   -1.812124
     31          6           0       -0.952411    0.558114   -1.675913
     32          7           0       -2.031791   -0.156805   -2.176642
     33          6           0       -3.038435    0.669016   -2.082380
     34          1           0       -4.060013    0.440238   -2.387873
     35          1           0       -4.281996    2.802804   -0.657940
     36          1           0       -3.008671    3.792945   -0.901280
     37          1           0       -3.960260    3.365942   -2.155527
     38          1           0        6.960501    0.492169    0.706228
     39          1           0        7.320451    0.828240   -0.985558
     40          1           0        5.902065    1.551307   -0.226147
     41          1           0        5.990574   -3.786781   -1.267705
     42          6           0        5.534890   -2.801479   -1.168931
     43          8           0        3.364770   -3.541220   -1.777597
     44          6           0        4.137472   -2.646426   -1.435453
     45          1           0        2.679308   -1.210652   -1.460483
     46          7           0        3.662298   -1.359734   -1.280954
     47          8           0        3.870223    0.849476   -0.797857
     48          6           0        4.380676   -0.251426   -0.907945
     49          1           0        7.327897   -1.804010   -0.589297
     50          6           0        6.261887   -1.739241   -0.803237
     51          6           0        6.529328    0.673250   -0.267104
     52          7           0        5.721161   -0.481535   -0.668453
     53          1           0        3.675514    3.451058    2.591729
     54          1           0        2.588229    3.457879    1.375242
     55          1           0        4.168774    3.205340    1.055580
     56          1           0        0.673119   -3.292982    1.837394
     57          1           0        2.291994   -3.051314    2.317985
     58          7           0        1.434649   -2.660806    1.980807
     59          6           0        1.313328   -1.354894    1.733707
     60          6           0        2.075275    0.896340    1.619133
     61          7           0        0.911913    1.392848    1.166927
     62          1           0       -0.965711    0.739184    0.669047
     63          6           0        0.010693    0.421927    1.032719
     64          7           0        0.130267   -0.886622    1.279677
     65          1           0        5.155315    0.931986    2.601110
     66          6           0        4.139122    0.654532    2.319484
     67          7           0        3.661101   -0.565096    2.360641
     68          6           0        2.353287   -0.425877    1.919076
     69          6           0        3.432367    3.041961    1.712237
     70          7           0        3.233615    1.589266    1.880097
 ---------------------------------------------------------------------

 SCF Done:  E(RwB97XD) =  -2048.61696754     A.U. after   15 cycles

 The electronic state is 1-A.
 Alpha  occ. eigenvalues --  -19.26057 -19.21873 -19.20351 -14.52534 -14.51726
 Alpha  occ. eigenvalues --  -14.49902 -14.48352 -14.47844 -14.47019 -14.45608
 Alpha  occ. eigenvalues --  -14.45302 -14.44716 -14.43341 -14.43290 -14.42567
 Alpha  occ. eigenvalues --  -14.42309 -14.42307 -14.41806 -14.41295 -14.40587
 Alpha  occ. eigenvalues --  -10.45616 -10.41289 -10.39997 -10.38775 -10.37885
 Alpha  occ. eigenvalues --  -10.37719 -10.37321 -10.36611 -10.36211 -10.35869
 Alpha  occ. eigenvalues --  -10.35204 -10.34633 -10.34337 -10.34256 -10.34112
 Alpha  occ. eigenvalues --  -10.33365 -10.32972 -10.31861 -10.31732 -10.31020
 Alpha  occ. eigenvalues --  -10.29974 -10.29771 -10.27887  -1.19639  -1.14806
 Alpha  occ. eigenvalues --   -1.13300  -1.12926  -1.12525  -1.10365  -1.09422
 Alpha  occ. eigenvalues --   -1.09035  -1.08059  -1.06229  -1.03834  -1.02493
 Alpha  occ. eigenvalues --   -1.01668  -1.01086  -0.99503  -0.98453  -0.98077
 Alpha  occ. eigenvalues --   -0.96476  -0.95762  -0.93873  -0.91058  -0.87328
 Alpha  occ. eigenvalues --   -0.85979  -0.85159  -0.84027  -0.83871  -0.83410
 Alpha  occ. eigenvalues --   -0.82204  -0.78898  -0.76415  -0.75092  -0.74176
 Alpha  occ. eigenvalues --   -0.74070  -0.73513  -0.73351  -0.72419  -0.69813
 Alpha  occ. eigenvalues --   -0.67930  -0.67501  -0.66617  -0.66258  -0.64483
 Alpha  occ. eigenvalues --   -0.64001  -0.63848  -0.63482  -0.62880  -0.62211
 Alpha  occ. eigenvalues --   -0.61460  -0.60584  -0.59917  -0.59688  -0.59535
 Alpha  occ. eigenvalues --   -0.58953  -0.58436  -0.58085  -0.57427  -0.57352
 Alpha  occ. eigenvalues --   -0.56728  -0.55998  -0.55608  -0.54464  -0.54281
 Alpha  occ. eigenvalues --   -0.54007  -0.53493  -0.53226  -0.52827  -0.52764
 Alpha  occ. eigenvalues --   -0.52462  -0.52373  -0.51846  -0.51410  -0.51015
 Alpha  occ. eigenvalues --   -0.50176  -0.49870  -0.49662  -0.49418  -0.48796
 Alpha  occ. eigenvalues --   -0.48590  -0.48394  -0.48066  -0.47704  -0.47215
 Alpha  occ. eigenvalues --   -0.47030  -0.46039  -0.45582  -0.44008  -0.42581
 Alpha  occ. eigenvalues --   -0.42326  -0.39707  -0.39606  -0.38412  -0.37435
 Alpha  occ. eigenvalues --   -0.37186  -0.37047  -0.36052  -0.35655  -0.35192
 Alpha  occ. eigenvalues --   -0.34684  -0.34629  -0.33067  -0.32905  -0.32508
 Alpha  occ. eigenvalues --   -0.32425  -0.31950  -0.31846  -0.31683  -0.31602
 Alpha  occ. eigenvalues --   -0.30943  -0.27327  -0.26998  -0.25186
 Alpha virt. eigenvalues --    0.03208   0.04155   0.06779   0.07806   0.08436
 Alpha virt. eigenvalues --    0.08931   0.09546   0.09694   0.11540   0.12401
 Alpha virt. eigenvalues --    0.13110   0.13145   0.14384   0.14445   0.14776

 Mulliken charges:
               1
     1  N   -0.312425
     2  C    0.180474
     3  C    0.041447
     4  N   -0.258291
     5  C    0.134975
     6  H    0.030440
     7  N   -0.270007
     8  C    0.115327
     9  H    0.022785
    10  N   -0.289857
    11  C    0.236197
    12  C    0.105720
    13  N   -0.049184
    14  H    0.107189
    15  H    0.087767
    16  H    0.028097
    17  H    0.035055
    18  H    0.027990
    19  N   -0.290251
    20  C    0.213353
    21  C    0.179289
    22  N   -0.070416
    23  H    0.071498
    24  H    0.115924
    25  N   -0.268244
    26  C    0.200209
    27  N   -0.105160
    28  H    0.124247
    29  C    0.124236
    30  O   -0.320526
    31  C    0.014726
    32  N   -0.219182
    33  C    0.117050
    34  H    0.027217
    35  H    0.023122
    36  H    0.025125
    37  H    0.020799
    38  H    0.058154
    39  H    0.066001
    40  H    0.070990
    41  H    0.031776
    42  C   -0.108666
    43  O   -0.265207
    44  C    0.182934
    45  H    0.134313
    46  N   -0.135235
    47  O   -0.351783
    48  C    0.361743
    49  H    0.046881
    50  C    0.174490
    51  C    0.032237
    52  N   -0.292431
    53  H    0.030199
    54  H    0.000920
    55  H    0.028351
    56  H    0.118373
    57  H    0.118791
    58  N   -0.069622
    59  C    0.129179
    60  C    0.223856
    61  N   -0.276955
    62  H    0.081265
    63  C    0.149584
    64  N   -0.301102
    65  H    0.025225
    66  C    0.120246
    67  N   -0.255649
    68  C    0.018696
    69  C    0.193924
    70  N   -0.298193
 Sum of Mulliken charges =  -0.00000

 Dipole moment (field-independent basis, Debye):
    X=              5.5035    Y=              5.6638    Z=              4.4160  Tot=              9.0481
 Quadrupole moment (field-independent basis, Debye-Ang):
   XX=           -138.7192   YY=           -229.7238   ZZ=           -256.4654
   XY=             14.6371   XZ=             15.4981   YZ=            -11.0378

 Normal termination of Gaussian 16 at Sun Jan 21 17:32:59 2018.
