 Gaussian 16, Revision A.03,
 Gaussian 16:  EM64L-G16RevA.03 25-Dec-2016

 ---------------------------------------
 #p wb97xd/cc-pvdz sp scf=(maxcycles=20)
 ---------------------------------------

 ------------------
 Base pair stacking
 ------------------
 Symbolic Z-matrix:
 Charge =  0 Multiplicity = 1

                         Standard orientation:
 ---------------------------------------------------------------------
 Center     Atomic      Atomic             Coordinates (Angstroms)
 Number     Number       Type             X           Y           Z
 ---------------------------------------------------------------------
      1          7           0        4.235444   -1.965281   -1.773581
      2          6           0        5.555786   -1.586016   -2.312896
      3          6           0        2.090475   -2.006177   -1.289076
      4          7           0        2.651754   -3.107317   -0.658873
      5          6           0        3.921548   -3.038613   -0.975989
      6          1           0        4.680818   -3.751214   -0.652470
      7          7           0        0.552034   -0.393066   -2.059806
      8          6           0        1.586578    0.188194   -2.675802
      9          1           0        1.346297    1.089418   -3.238228
     10          7           0        2.867346   -0.174953   -2.701230
     11          6           0        3.054342   -1.292697   -1.980043
     12          6           0        0.772910   -1.516147   -1.342195
     13          7           0       -0.258515   -2.097823   -0.726573
     14          1           0       -0.141332   -2.930669   -0.184495
     15          1           0       -1.183026   -1.721154   -0.786201
     16          1           0        5.907932   -2.325561   -2.886708
     17          1           0        5.466739   -0.754338   -2.860181
     18          1           0        6.191137   -1.420265   -1.558680
     19          7           0        5.630134    1.761878    0.481236
     20          6           0        4.268341    1.841837    0.646069
     21          6           0        6.497832    2.856665    0.002450
     22          7           0        1.318583    3.666044    0.464549
     23          1           0        0.347308    3.518154    0.648957
     24          1           0        1.584573    4.571218    0.131969
     25          7           0        3.500308    2.925245    0.400330
     26          6           0        2.224398    2.694763    0.654397
     27          7           0        1.735941    1.495737    1.114012
     28          1           0        0.745132    1.409802    1.280957
     29          6           0        2.507786    0.367628    1.373806
     30          8           0        1.967877   -0.666173    1.786739
     31          6           0        3.880727    0.599884    1.105557
     32          7           0        4.977120   -0.242808    1.226738
     33          6           0        5.990065    0.487627    0.846454
     34          1           0        7.024857    0.145048    0.813122
     35          1           0        6.961929    2.573877   -0.836271
     36          1           0        5.939919    3.664531   -0.182872
     37          1           0        7.177538    3.075570    0.701658
     38          1           0       -4.339362    1.427917    1.299491
     39          1           0       -4.125098    1.696115    3.027726
     40          1           0       -2.937646    2.324584    1.884769
     41          1           0       -3.282904   -3.033051    2.759028
     42          6           0       -2.775045   -2.091461    2.549944
     43          8           0       -0.616761   -3.068969    2.434067
     44          6           0       -1.355005   -2.086079    2.373055
     45          1           0        0.187820   -0.799535    1.982122
     46          7           0       -0.812999   -0.843548    2.113033
     47          8           0       -0.917341    1.400087    1.777769
     48          6           0       -1.486095    0.348168    2.011532
     49          1           0       -4.539763   -0.895437    2.583111
     50          6           0       -3.459058   -0.945133    2.456838
     51          6           0       -3.613814    1.509307    2.095129
     52          7           0       -2.852181    0.261185    2.194399
     53          1           0       -6.552328    2.957359   -3.052251
     54          1           0       -5.108124    3.329843   -2.390721
     55          1           0       -6.483213    3.602179   -1.554634
     56          1           0       -3.673333   -3.016276    0.278294
     57          1           0       -5.350221   -2.707849    0.223466
     58          7           0       -4.418122   -2.391484    0.043644
     59          6           0       -4.180039   -1.189645   -0.485573
     60          6           0       -4.787791    0.933074   -1.372371
     61          7           0       -3.525821    1.331458   -1.602933
     62          1           0       -1.612607    0.628297   -1.388951
     63          6           0       -2.663322    0.385951   -1.235508
     64          7           0       -2.899799   -0.818420   -0.705276
     65          1           0       -8.014237    1.127481   -1.305829
     66          6           0       -6.972301    0.817522   -1.220761
     67          7           0       -6.574643   -0.335898   -0.742040
     68          6           0       -5.191564   -0.275646   -0.832463
     69          6           0       -6.028533    2.989277   -2.201007
     70          7           0       -5.943488    1.634866   -1.621063
 ---------------------------------------------------------------------

 SCF Done:  E(RwB97XD) =  -2048.74557660     A.U. after   15 cycles

 The electronic state is 1-A.
 Alpha  occ. eigenvalues --  -19.25527 -19.21767 -19.20831 -14.52548 -14.52068
 Alpha  occ. eigenvalues --  -14.49436 -14.48387 -14.47952 -14.47449 -14.47124
 Alpha  occ. eigenvalues --  -14.46945 -14.45470 -14.44768 -14.44667 -14.42343
 Alpha  occ. eigenvalues --  -14.42336 -14.41726 -14.40770 -14.40425 -14.40317
 Alpha  occ. eigenvalues --  -10.45094 -10.41568 -10.40254 -10.39875 -10.38531
 Alpha  occ. eigenvalues --  -10.38065 -10.37531 -10.37459 -10.36137 -10.35339
 Alpha  occ. eigenvalues --  -10.34885 -10.34717 -10.34087 -10.33869 -10.33247
 Alpha  occ. eigenvalues --  -10.32998 -10.32935 -10.32897 -10.31484 -10.30707
 Alpha  occ. eigenvalues --  -10.30255 -10.28645 -10.28100  -1.19060  -1.15341
 Alpha  occ. eigenvalues --   -1.13541  -1.12796  -1.11125  -1.10611  -1.09724
 Alpha  occ. eigenvalues --   -1.08940  -1.08813  -1.05157  -1.04910  -1.02108
 Alpha  occ. eigenvalues --   -1.01075  -1.00316  -1.00044  -0.98954  -0.97226
 Alpha  occ. eigenvalues --   -0.97174  -0.96245  -0.92616  -0.90760  -0.87834
 Alpha  occ. eigenvalues --   -0.85973  -0.84673  -0.83378  -0.83251  -0.83011
 Alpha  occ. eigenvalues --   -0.81744  -0.78590  -0.77254  -0.75098  -0.75094
 Alpha  occ. eigenvalues --   -0.73972  -0.73040  -0.72530  -0.70769  -0.70597
 Alpha  occ. eigenvalues --   -0.67769  -0.67055  -0.66263  -0.65952  -0.64722
 Alpha  occ. eigenvalues --   -0.64441  -0.63750  -0.62949  -0.62403  -0.62160
 Alpha  occ. eigenvalues --   -0.60740  -0.60466  -0.60141  -0.59484  -0.59276
 Alpha  occ. eigenvalues --   -0.59092  -0.58672  -0.57248  -0.56232  -0.55951
 Alpha  occ. eigenvalues --   -0.55614  -0.55456  -0.55224  -0.54655  -0.54346
 Alpha  occ. eigenvalues --   -0.53837  -0.53764  -0.53676  -0.53331  -0.53007
 Alpha  occ. eigenvalues --   -0.52736  -0.52081  -0.51227  -0.50551  -0.50363
 Alpha  occ. eigenvalues --   -0.50134  -0.49770  -0.49615  -0.49422  -0.49132
 Alpha  occ. eigenvalues --   -0.48581  -0.48453  -0.48303  -0.47963  -0.47398
 Alpha  occ. eigenvalues --   -0.46550  -0.45831  -0.45707  -0.44734  -0.42941
 Alpha  occ. eigenvalues --   -0.40976  -0.40860  -0.39254  -0.38126  -0.37785
 Alpha  occ. eigenvalues --   -0.37758  -0.37621  -0.36694  -0.35599  -0.35083
 Alpha  occ. eigenvalues --   -0.34651  -0.34312  -0.33378  -0.33181  -0.33080
 Alpha  occ. eigenvalues --   -0.32928  -0.32694  -0.32162  -0.31686  -0.30453
 Alpha  occ. eigenvalues --   -0.30224  -0.30114  -0.26011  -0.25511
 Alpha virt. eigenvalues --    0.02688   0.04180   0.06628   0.08254   0.08606
 Alpha virt. eigenvalues --    0.08868   0.09437   0.10361   0.11231   0.11817
 Alpha virt. eigenvalues --    0.13391   0.13712   0.14173   0.14878   0.15073

 Mulliken charges:
               1
     1  N   -0.305354
     2  C    0.183658
     3  C    0.051230
     4  N   -0.249851
     5  C    0.153643
     6  H    0.027355
     7  N   -0.298410
     8  C    0.128401
     9  H    0.008941
    10  N   -0.283208
    11  C    0.240899
    12  C    0.083235
    13  N   -0.066542
    14  H    0.118367
    15  H    0.086611
    16  H    0.022471
    17  H    0.029288
    18  H    0.020675
    19  N   -0.310553
    20  C    0.260349
    21  C    0.182022
    22  N   -0.123770
    23  H    0.119222
    24  H    0.119438
    25  N   -0.312807
    26  C    0.251443
    27  N   -0.147521
    28  H    0.120781
    29  C    0.197611
    30  O   -0.317580
    31  C   -0.018147
    32  N   -0.228191
    33  C    0.115150
    34  H    0.025644
    35  H    0.025592
    36  H    0.031959
    37  H    0.026074
    38  H    0.063081
    39  H    0.058027
    40  H    0.075347
    41  H    0.020470
    42  C   -0.126745
    43  O   -0.270477
    44  C    0.168339
    45  H    0.132895
    46  N   -0.122918
    47  O   -0.352876
    48  C    0.351495
    49  H    0.043208
    50  C    0.182116
    51  C    0.041410
    52  N   -0.277719
    53  H    0.034375
    54  H    0.042469
    55  H    0.029402
    56  H    0.124126
    57  H    0.116549
    58  N   -0.053892
    59  C    0.078954
    60  C    0.229270
    61  N   -0.263252
    62  H    0.034108
    63  C    0.168938
    64  N   -0.309924
    65  H    0.039678
    66  C    0.140156
    67  N   -0.259776
    68  C    0.024917
    69  C    0.179802
    70  N   -0.309679
 Sum of Mulliken charges =  -0.00000

 Dipole moment (field-independent basis, Debye):
    X=             -6.7322    Y=              7.8690    Z=             -1.2424  Tot=             10.4301
 Quadrupole moment (field-independent basis, Debye-Ang):
   XX=           -154.4118   YY=           -223.9053   ZZ=           -252.5032
   XY=             -1.7179   XZ=            -15.0148   YZ=              4.9065

 Normal termination of Gaussian 16 at Sun Jan 21 13:45:15 2018.
