 Gaussian 16, Revision A.03,
 Gaussian 16:  EM64L-G16RevA.03 25-Dec-2016

 ---------------------------------------
 #p wb97xd/cc-pvdz sp scf=(maxcycles=20)
 ---------------------------------------

 ------------------
 Base pair stacking
 ------------------
 Symbolic Z-matrix:
 Charge =  0 Multiplicity = 1

                         Standard orientation:
 ---------------------------------------------------------------------
 Center     Atomic      Atomic             Coordinates (Angstroms)
 Number     Number       Type             X           Y           Z
 ---------------------------------------------------------------------
      1          7           0        4.585611   -1.374552   -1.780226
      2          6           0        5.941834   -0.818533   -1.951955
      3          6           0        2.404902   -1.587953   -1.589756
      4          7           0        2.931917   -2.865560   -1.468544
      5          6           0        4.224625   -2.685858   -1.588151
      6          1           0        4.968025   -3.482304   -1.543713
      7          7           0        0.905247    0.228774   -1.705820
      8          6           0        1.979045    1.005149   -1.884082
      9          1           0        1.770288    2.067582   -2.002090
     10          7           0        3.265953    0.667763   -1.938186
     11          6           0        3.412095   -0.658425   -1.782286
     12          6           0        1.085579   -1.101223   -1.552003
     13          7           0        0.014929   -1.877860   -1.373946
     14          1           0        0.101309   -2.867718   -1.255877
     15          1           0       -0.909514   -1.496952   -1.352517
     16          1           0        6.371416   -1.226819   -2.757515
     17          1           0        5.883993    0.172076   -2.072253
     18          1           0        6.492967   -1.022727   -1.142897
     19          7           0        5.330984    1.565240    0.856971
     20          6           0        3.959029    1.591665    0.928356
     21          6           0        6.189145    2.710804    0.493711
     22          7           0        0.964189    3.323918    0.625066
     23          1           0       -0.011458    3.134878    0.732810
     24          1           0        1.219297    4.252950    0.355728
     25          7           0        3.170747    2.659984    0.680631
     26          6           0        1.889589    2.374910    0.832220
     27          7           0        1.414664    1.138823    1.198342
     28          1           0        0.418474    1.011845    1.290252
     29          6           0        2.207399    0.025312    1.458203
     30          8           0        1.678359   -1.045196    1.782037
     31          6           0        3.586203    0.316097    1.299449
     32          7           0        4.701655   -0.494814    1.457855
     33          6           0        5.711113    0.286925    1.185672
     34          1           0        6.757570   -0.019063    1.209586
     35          1           0        6.720246    2.485939   -0.322484
     36          1           0        5.616234    3.508014    0.307970
     37          1           0        6.810322    2.916801    1.249030
     38          1           0       -4.652341    0.860493    0.948685
     39          1           0       -4.568266    1.048719    2.698594
     40          1           0       -3.328284    1.772676    1.674051
     41          1           0       -3.537077   -3.630536    2.265265
     42          6           0       -3.050735   -2.663337    2.137862
     43          8           0       -0.855304   -3.561745    2.129016
     44          6           0       -1.623000   -2.602036    2.062675
     45          1           0       -0.104887   -1.247102    1.843995
     46          7           0       -1.110095   -1.330761    1.901289
     47          8           0       -1.272952    0.922166    1.666786
     48          6           0       -1.817685   -0.158422    1.809186
     49          1           0       -4.856074   -1.529626    2.102653
     50          6           0       -3.768120   -1.537079    2.051190
     51          6           0       -3.987125    0.925920    1.796783
     52          7           0       -3.189060   -0.299684    1.890269
     53          1           0       -6.158265    3.803469   -1.809814
     54          1           0       -4.799457    3.809924   -0.906649
     55          1           0       -6.259068    3.702783   -0.184049
     56          1           0       -3.455292   -3.084458   -1.247640
     57          1           0       -5.126471   -2.752087   -1.330142
     58          7           0       -4.190668   -2.406701   -1.251272
     59          6           0       -3.935837   -1.100175   -1.155271
     60          6           0       -4.513178    1.205718   -1.049085
     61          7           0       -3.246617    1.640798   -0.944334
     62          1           0       -1.344887    0.879853   -0.873978
     63          6           0       -2.398146    0.614707   -0.955156
     64          7           0       -2.651416   -0.694570   -1.051233
     65          1           0       -7.734240    1.411550   -1.234824
     66          6           0       -6.697530    1.076464   -1.191571
     67          7           0       -6.316458   -0.176380   -1.245110
     68          6           0       -4.933654   -0.108562   -1.155776
     69          6           0       -5.723916    3.438261   -0.986428
     70          7           0       -5.658038    1.966448   -1.072841
 ---------------------------------------------------------------------

 SCF Done:  E(RwB97XD) =  -2048.73934989     A.U. after   15 cycles

 The electronic state is 1-A.
 Alpha  occ. eigenvalues --  -19.25173 -19.21338 -19.20533 -14.52932 -14.51605
 Alpha  occ. eigenvalues --  -14.49085 -14.48726 -14.48530 -14.47165 -14.46634
 Alpha  occ. eigenvalues --  -14.46612 -14.45819 -14.44879 -14.44734 -14.42988
 Alpha  occ. eigenvalues --  -14.41891 -14.41376 -14.41239 -14.41126 -14.40749
 Alpha  occ. eigenvalues --  -10.44746 -10.41101 -10.40569 -10.39450 -10.38353
 Alpha  occ. eigenvalues --  -10.38175 -10.37666 -10.37109 -10.36349 -10.35878
 Alpha  occ. eigenvalues --  -10.34449 -10.34228 -10.33876 -10.33780 -10.33669
 Alpha  occ. eigenvalues --  -10.33398 -10.33338 -10.33165 -10.31229 -10.30807
 Alpha  occ. eigenvalues --  -10.30431 -10.28625 -10.28227  -1.18788  -1.15745
 Alpha  occ. eigenvalues --   -1.13177  -1.12362  -1.11173  -1.10772  -1.09918
 Alpha  occ. eigenvalues --   -1.08583  -1.08452  -1.05450  -1.05380  -1.01762
 Alpha  occ. eigenvalues --   -1.01398  -1.00873  -0.99658  -0.98548  -0.97488
 Alpha  occ. eigenvalues --   -0.96853  -0.96796  -0.93137  -0.90323  -0.88213
 Alpha  occ. eigenvalues --   -0.86313  -0.84342  -0.83913  -0.82822  -0.82635
 Alpha  occ. eigenvalues --   -0.82318  -0.78187  -0.77534  -0.75383  -0.74731
 Alpha  occ. eigenvalues --   -0.73592  -0.73092  -0.72664  -0.71290  -0.70924
 Alpha  occ. eigenvalues --   -0.67404  -0.67287  -0.66505  -0.65903  -0.64736
 Alpha  occ. eigenvalues --   -0.64348  -0.63458  -0.62974  -0.62575  -0.61824
 Alpha  occ. eigenvalues --   -0.61358  -0.60917  -0.60736  -0.59913  -0.58980
 Alpha  occ. eigenvalues --   -0.58779  -0.58330  -0.57428  -0.56776  -0.55994
 Alpha  occ. eigenvalues --   -0.55841  -0.55686  -0.55576  -0.54802  -0.54140
 Alpha  occ. eigenvalues --   -0.53974  -0.53972  -0.53341  -0.53163  -0.52944
 Alpha  occ. eigenvalues --   -0.52013  -0.51777  -0.51552  -0.50612  -0.50542
 Alpha  occ. eigenvalues --   -0.50189  -0.50106  -0.49587  -0.49151  -0.48983
 Alpha  occ. eigenvalues --   -0.48710  -0.48118  -0.48059  -0.47711  -0.47060
 Alpha  occ. eigenvalues --   -0.47041  -0.45737  -0.45542  -0.44922  -0.42491
 Alpha  occ. eigenvalues --   -0.41457  -0.41129  -0.38920  -0.38280  -0.38094
 Alpha  occ. eigenvalues --   -0.37718  -0.37239  -0.36910  -0.35506  -0.35156
 Alpha  occ. eigenvalues --   -0.34787  -0.34268  -0.33664  -0.33503  -0.32946
 Alpha  occ. eigenvalues --   -0.32556  -0.32450  -0.31878  -0.31083  -0.30809
 Alpha  occ. eigenvalues --   -0.30608  -0.30525  -0.26080  -0.25563
 Alpha virt. eigenvalues --    0.03061   0.04135   0.06222   0.07495   0.08836
 Alpha virt. eigenvalues --    0.09161   0.09765   0.10091   0.10800   0.12303
 Alpha virt. eigenvalues --    0.13082   0.13926   0.14245   0.14459   0.14531

 Mulliken charges:
               1
     1  N   -0.304215
     2  C    0.185172
     3  C    0.065036
     4  N   -0.258376
     5  C    0.149704
     6  H    0.028156
     7  N   -0.286375
     8  C    0.125623
     9  H    0.009567
    10  N   -0.272132
    11  C    0.238185
    12  C    0.077840
    13  N   -0.060964
    14  H    0.113583
    15  H    0.083727
    16  H    0.025951
    17  H    0.026873
    18  H    0.021030
    19  N   -0.303412
    20  C    0.268649
    21  C    0.184358
    22  N   -0.111786
    23  H    0.122266
    24  H    0.117803
    25  N   -0.292474
    26  C    0.198311
    27  N   -0.115462
    28  H    0.118783
    29  C    0.172490
    30  O   -0.320160
    31  C   -0.014798
    32  N   -0.220444
    33  C    0.097902
    34  H    0.025383
    35  H    0.020888
    36  H    0.032203
    37  H    0.024693
    38  H    0.060018
    39  H    0.050333
    40  H    0.078243
    41  H    0.022690
    42  C   -0.107243
    43  O   -0.267788
    44  C    0.172875
    45  H    0.131737
    46  N   -0.123183
    47  O   -0.345901
    48  C    0.337515
    49  H    0.044847
    50  C    0.161671
    51  C    0.052710
    52  N   -0.275404
    53  H    0.035826
    54  H    0.041075
    55  H    0.029758
    56  H    0.121735
    57  H    0.119446
    58  N   -0.057630
    59  C    0.094626
    60  C    0.191384
    61  N   -0.253866
    62  H    0.021131
    63  C    0.175013
    64  N   -0.308045
    65  H    0.039339
    66  C    0.131933
    67  N   -0.249783
    68  C    0.019722
    69  C    0.180742
    70  N   -0.299108
 Sum of Mulliken charges =  -0.00000

 Dipole moment (field-independent basis, Debye):
    X=             -6.8309    Y=              7.3484    Z=             -2.1459  Tot=             10.2599
 Quadrupole moment (field-independent basis, Debye-Ang):
   XX=           -153.5344   YY=           -227.5750   ZZ=           -254.7988
   XY=              0.4440   XZ=            -13.4321   YZ=             13.9256

 Normal termination of Gaussian 16 at Sun Jan 21 08:14:33 2018.
