 Gaussian 16, Revision A.03,
 Gaussian 16:  EM64L-G16RevA.03 25-Dec-2016

 ---------------------------------------
 #p wb97xd/cc-pvdz sp scf=(maxcycles=20)
 ---------------------------------------

 ------------------
 Base pair stacking
 ------------------
 Symbolic Z-matrix:
 Charge =  0 Multiplicity = 1

                         Standard orientation:
 ---------------------------------------------------------------------
 Center     Atomic      Atomic             Coordinates (Angstroms)
 Number     Number       Type             X           Y           Z
 ---------------------------------------------------------------------
      1          7           0       -6.859959   -1.139041    0.331358
      2          6           0       -8.181705   -0.497992    0.189799
      3          6           0       -4.711181   -1.489390    0.643353
      4          7           0       -5.276373   -2.733419    0.403170
      5          6           0       -6.548310   -2.472547    0.224820
      6          1           0       -7.310831   -3.221995    0.010710
      7          7           0       -3.165698    0.232444    1.101319
      8          6           0       -4.200594    1.076012    1.030907
      9          1           0       -3.957520    2.124931    1.195016
     10          7           0       -5.484662    0.819612    0.789356
     11          6           0       -5.674933   -0.496908    0.602267
     12          6           0       -3.389929   -1.085736    0.908449
     13          7           0       -2.358143   -1.929373    0.978335
     14          1           0       -2.477733   -2.913441    0.842214
     15          1           0       -1.430971   -1.606695    1.169026
     16          1           0       -8.808482   -0.868414    0.875454
     17          1           0       -8.090319    0.488618    0.321579
     18          1           0       -8.545732   -0.678207   -0.723990
     19          7           0       -2.945009    1.929564   -1.551663
     20          6           0       -1.593035    1.868363   -1.314032
     21          6           0       -3.805119    3.101658   -1.292594
     22          7           0        1.337371    3.368587   -0.207782
     23          1           0        2.301395    3.122287   -0.111708
     24          1           0        1.074366    4.291184    0.075700
     25          7           0       -0.829330    2.860706   -0.808009
     26          6           0        0.437022    2.501344   -0.694773
     27          7           0        0.920518    1.265229   -1.049391
     28          1           0        1.904018    1.078180   -0.928127
     29          6           0        0.152981    0.229067   -1.572016
     30          8           0        0.687760   -0.848929   -1.859536
     31          6           0       -1.209691    0.600189   -1.699497
     32          7           0       -2.299077   -0.120265   -2.169677
     33          6           0       -3.303798    0.706448   -2.063426
     34          1           0       -4.331459    0.474248   -2.344970
     35          1           0       -4.517974    2.855619   -0.636767
     36          1           0       -3.250328    3.843145   -0.917534
     37          1           0       -4.227810    3.402334   -2.146843
     38          1           0        6.751321    0.561083    0.517197
     39          1           0        7.075706    0.878606   -1.185327
     40          1           0        5.673283    1.609836   -0.404382
     41          1           0        5.741691   -3.739346   -1.388995
     42          6           0        5.287853   -2.753051   -1.291516
     43          8           0        3.105716   -3.499621   -1.846515
     44          6           0        3.885127   -2.601068   -1.530430
     45          1           0        2.426297   -1.165784   -1.540692
     46          7           0        3.412875   -1.312796   -1.380143
     47          8           0        3.630155    0.901588   -0.925751
     48          6           0        4.138548   -0.200411   -1.034407
     49          1           0        7.092276   -1.749140   -0.760477
     50          6           0        6.022003   -1.686815   -0.952770
     51          6           0        6.299838    0.731432   -0.448823
     52          7           0        5.483821   -0.427756   -0.820492
     53          1           0        3.899658    3.364374    2.820067
     54          1           0        2.785625    3.443124    1.630601
     55          1           0        4.361725    3.236526    1.260078
     56          1           0        0.966177   -3.349872    1.645678
     57          1           0        2.592150   -3.120480    2.107934
     58          7           0        1.722696   -2.718920    1.818057
     59          6           0        1.579541   -1.400491    1.668342
     60          6           0        2.310421    0.863695    1.700121
     61          7           0        1.131159    1.374899    1.309672
     62          1           0       -0.748695    0.732205    0.805981
     63          6           0        0.239437    0.403481    1.125036
     64          7           0        0.380891   -0.917590    1.274462
     65          1           0        5.410800    0.872272    2.616470
     66          6           0        4.392172    0.601420    2.337241
     67          7           0        3.930544   -0.624640    2.300542
     68          6           0        2.611607   -0.472584    1.898041
     69          6           0        3.642187    3.016060    1.918746
     70          7           0        3.465472    1.552396    1.985674
 ---------------------------------------------------------------------

 SCF Done:  E(RwB97XD) =  -2048.69652116     A.U. after   15 cycles

 The electronic state is 1-A.
 Alpha  occ. eigenvalues --  -19.26023 -19.21898 -19.20501 -14.52480 -14.51621
 Alpha  occ. eigenvalues --  -14.49704 -14.48400 -14.47879 -14.47047 -14.46257
 Alpha  occ. eigenvalues --  -14.45907 -14.44669 -14.43306 -14.43055 -14.42339
 Alpha  occ. eigenvalues --  -14.42232 -14.42067 -14.42060 -14.41028 -14.40631
 Alpha  occ. eigenvalues --  -10.45584 -10.40867 -10.40023 -10.38842 -10.38031
 Alpha  occ. eigenvalues --  -10.37695 -10.37290 -10.36362 -10.36191 -10.35776
 Alpha  occ. eigenvalues --  -10.34978 -10.34787 -10.34386 -10.34155 -10.34099
 Alpha  occ. eigenvalues --  -10.34015 -10.33038 -10.31743 -10.31565 -10.30990
 Alpha  occ. eigenvalues --  -10.30108 -10.29514 -10.27982  -1.19598  -1.14439
 Alpha  occ. eigenvalues --   -1.13222  -1.12949  -1.12305  -1.10393  -1.09374
 Alpha  occ. eigenvalues --   -1.08662  -1.08065  -1.05958  -1.03790  -1.02503
 Alpha  occ. eigenvalues --   -1.01418  -1.00367  -0.99510  -0.98465  -0.97866
 Alpha  occ. eigenvalues --   -0.96383  -0.95760  -0.93611  -0.91023  -0.87020
 Alpha  occ. eigenvalues --   -0.85600  -0.84904  -0.83974  -0.83845  -0.83207
 Alpha  occ. eigenvalues --   -0.82118  -0.78865  -0.76267  -0.74682  -0.73981
 Alpha  occ. eigenvalues --   -0.73838  -0.73465  -0.73370  -0.72100  -0.69720
 Alpha  occ. eigenvalues --   -0.67336  -0.67252  -0.66574  -0.66081  -0.64446
 Alpha  occ. eigenvalues --   -0.63779  -0.63663  -0.63430  -0.62772  -0.61647
 Alpha  occ. eigenvalues --   -0.61143  -0.60571  -0.59862  -0.59520  -0.59180
 Alpha  occ. eigenvalues --   -0.58874  -0.58144  -0.57661  -0.57281  -0.56889
 Alpha  occ. eigenvalues --   -0.56166  -0.55938  -0.55419  -0.54741  -0.54373
 Alpha  occ. eigenvalues --   -0.54038  -0.53464  -0.53071  -0.52749  -0.52615
 Alpha  occ. eigenvalues --   -0.52586  -0.52316  -0.51840  -0.51613  -0.50971
 Alpha  occ. eigenvalues --   -0.49978  -0.49925  -0.49442  -0.49199  -0.48584
 Alpha  occ. eigenvalues --   -0.48511  -0.48235  -0.48121  -0.47679  -0.47524
 Alpha  occ. eigenvalues --   -0.47281  -0.45811  -0.45673  -0.43965  -0.42966
 Alpha  occ. eigenvalues --   -0.42135  -0.40218  -0.39611  -0.38222  -0.37438
 Alpha  occ. eigenvalues --   -0.37200  -0.37048  -0.36139  -0.35588  -0.34609
 Alpha  occ. eigenvalues --   -0.34490  -0.34398  -0.33377  -0.33099  -0.32594
 Alpha  occ. eigenvalues --   -0.32461  -0.31993  -0.31879  -0.31751  -0.31526
 Alpha  occ. eigenvalues --   -0.31225  -0.28028  -0.26765  -0.25307
 Alpha virt. eigenvalues --    0.03217   0.04537   0.07026   0.07937   0.08780
 Alpha virt. eigenvalues --    0.09038   0.09538   0.09953   0.11224   0.11806
 Alpha virt. eigenvalues --    0.13073   0.13319   0.14381   0.14503   0.14679

 Mulliken charges:
               1
     1  N   -0.312267
     2  C    0.180320
     3  C    0.047601
     4  N   -0.257894
     5  C    0.134049
     6  H    0.029534
     7  N   -0.271605
     8  C    0.122906
     9  H    0.019721
    10  N   -0.290565
    11  C    0.231900
    12  C    0.106042
    13  N   -0.049365
    14  H    0.107660
    15  H    0.087765
    16  H    0.027901
    17  H    0.034169
    18  H    0.027267
    19  N   -0.292652
    20  C    0.231418
    21  C    0.173998
    22  N   -0.073013
    23  H    0.096611
    24  H    0.114490
    25  N   -0.282600
    26  C    0.197506
    27  N   -0.110960
    28  H    0.121173
    29  C    0.127644
    30  O   -0.319898
    31  C    0.023518
    32  N   -0.220336
    33  C    0.114741
    34  H    0.026543
    35  H    0.025830
    36  H    0.025978
    37  H    0.021217
    38  H    0.054185
    39  H    0.065778
    40  H    0.070888
    41  H    0.031053
    42  C   -0.110365
    43  O   -0.266434
    44  C    0.180814
    45  H    0.135449
    46  N   -0.134107
    47  O   -0.349333
    48  C    0.356727
    49  H    0.046825
    50  C    0.177723
    51  C    0.035277
    52  N   -0.288899
    53  H    0.035925
    54  H    0.018342
    55  H    0.026935
    56  H    0.120073
    57  H    0.118663
    58  N   -0.067312
    59  C    0.124505
    60  C    0.231181
    61  N   -0.284603
    62  H    0.057411
    63  C    0.168888
    64  N   -0.302932
    65  H    0.028618
    66  C    0.113462
    67  N   -0.253993
    68  C    0.007659
    69  C    0.172566
    70  N   -0.297311
 Sum of Mulliken charges =  -0.00000

 Dipole moment (field-independent basis, Debye):
    X=              5.8692    Y=              5.8533    Z=              3.9498  Tot=              9.1820
 Quadrupole moment (field-independent basis, Debye-Ang):
   XX=           -140.9371   YY=           -228.1696   ZZ=           -256.6176
   XY=             13.3740   XZ=             13.2516   YZ=            -10.4011

 Normal termination of Gaussian 16 at Sun Jan 21 12:23:27 2018.
