 Gaussian 16, Revision A.03,
 Gaussian 16:  EM64L-G16RevA.03 25-Dec-2016

 ---------------------------------------
 #p wb97xd/cc-pvdz sp scf=(maxcycles=20)
 ---------------------------------------

 ------------------
 Base pair stacking
 ------------------
 Symbolic Z-matrix:
 Charge =  0 Multiplicity = 1

                         Standard orientation:
 ---------------------------------------------------------------------
 Center     Atomic      Atomic             Coordinates (Angstroms)
 Number     Number       Type             X           Y           Z
 ---------------------------------------------------------------------
      1          7           0        5.681042   -1.194745   -0.873020
      2          6           0        6.931427   -0.620923   -1.407099
      3          6           0        3.560913   -1.645506   -0.499933
      4          7           0        4.287315   -2.458150    0.358371
      5          6           0        5.535546   -2.154059    0.099251
      6          1           0        6.398250   -2.603044    0.592289
      7          7           0        1.786750   -0.594121   -1.644443
      8          6           0        2.722626    0.093263   -2.307169
      9          1           0        2.345307    0.800909   -3.044148
     10          7           0        4.048400    0.038035   -2.196721
     11          6           0        4.406315   -0.861177   -1.265199
     12          6           0        2.179081   -1.491229   -0.713665
     13          7           0        1.246362   -2.178375   -0.051061
     14          1           0        1.491089   -2.852685    0.646523
     15          1           0        0.271701   -2.042637   -0.229256
     16          1           0        7.488398   -1.347862   -1.808993
     17          1           0        6.714768    0.057880   -2.108110
     18          1           0        7.441997   -0.182461   -0.667460
     19          7           0        4.558851    1.263288    1.021791
     20          6           0        3.241971    1.514437    0.720444
     21          6           0        5.720872    1.873064    0.344606
     22          7           0        0.854867    3.167768   -1.184799
     23          1           0       -0.142119    3.209212   -1.244283
     24          1           0        1.371633    3.737395   -1.824494
     25          7           0        2.791930    2.353723   -0.237208
     26          6           0        1.472035    2.383843   -0.287868
     27          7           0        0.653649    1.649039    0.535428
     28          1           0       -0.345097    1.734951    0.425493
     29          6           0        1.094837    0.779172    1.527666
     30          8           0        0.272417    0.162842    2.216511
     31          6           0        2.510677    0.736178    1.594121
     32          7           0        3.351530    0.011012    2.427199
     33          6           0        4.553703    0.354936    2.052099
     34          1           0        5.474934   -0.025260    2.494879
     35          1           0        6.281100    1.156608   -0.069680
     36          1           0        5.399829    2.496757   -0.366880
     37          1           0        6.267618    2.380777    1.009518
     38          1           0       -5.195049    2.119225   -1.052002
     39          1           0       -5.299827    3.247128    0.297626
     40          1           0       -3.791282    3.088151   -0.602593
     41          1           0       -5.445622   -0.950414    2.644092
     42          6           0       -4.716580   -0.301632    2.158487
     43          8           0       -2.841292   -1.341401    3.173015
     44          6           0       -3.323439   -0.491190    2.425049
     45          1           0       -1.495278    0.279502    1.922888
     46          7           0       -2.487022    0.382431    1.759884
     47          8           0       -2.038199    2.107620    0.352942
     48          6           0       -2.854030    1.383006    0.895195
     49          1           0       -6.152470    0.851100    1.083659
     50          6           0       -5.105444    0.665818    1.319774
     51          6           0       -4.654261    2.558646   -0.227067
     52          7           0       -4.214338    1.502983    0.689328
     53          1           0       -5.752492    0.791104   -3.625134
     54          1           0       -4.492559    1.598411   -2.974809
     55          1           0       -5.965934    1.687537   -2.278181
     56          1           0       -1.964693   -3.671342    0.936071
     57          1           0       -3.655841   -3.774342    0.737282
     58          7           0       -2.802502   -3.287378    0.547761
     59          6           0       -2.783757   -2.175470   -0.190120
     60          6           0       -3.754042   -0.441351   -1.498973
     61          7           0       -2.593395    0.191572   -1.737153
     62          1           0       -0.601499   -0.000344   -1.294310
     63          6           0       -1.583727   -0.448600   -1.150953
     64          7           0       -1.600457   -1.562388   -0.411508
     65          1           0       -6.937001   -0.991035   -1.636033
     66          6           0       -5.865179   -1.031261   -1.439748
     67          7           0       -5.272175   -1.958464   -0.728197
     68          6           0       -3.933247   -1.596336   -0.757754
     69          6           0       -5.330188    1.092750   -2.770344
     70          7           0       -5.006509   -0.081372   -1.936865
 ---------------------------------------------------------------------

 SCF Done:  E(RwB97XD) =  -2048.73344818     A.U. after   15 cycles

 The electronic state is 1-A.
 Alpha  occ. eigenvalues --  -19.24990 -19.21491 -19.20468 -14.52350 -14.51864
 Alpha  occ. eigenvalues --  -14.49698 -14.48786 -14.47264 -14.47204 -14.46658
 Alpha  occ. eigenvalues --  -14.46513 -14.44997 -14.43903 -14.43796 -14.43030
 Alpha  occ. eigenvalues --  -14.42174 -14.41757 -14.41553 -14.41002 -14.40766
 Alpha  occ. eigenvalues --  -10.44753 -10.40977 -10.39564 -10.39296 -10.38105
 Alpha  occ. eigenvalues --  -10.37692 -10.37078 -10.36916 -10.36270 -10.35476
 Alpha  occ. eigenvalues --  -10.34836 -10.34536 -10.34324 -10.34214 -10.34190
 Alpha  occ. eigenvalues --  -10.33867 -10.33328 -10.32220 -10.32179 -10.30858
 Alpha  occ. eigenvalues --  -10.30397 -10.29283 -10.28012  -1.18758  -1.15015
 Alpha  occ. eigenvalues --   -1.13067  -1.12480  -1.12243  -1.10506  -1.08809
 Alpha  occ. eigenvalues --   -1.08658  -1.08386  -1.05832  -1.04228  -1.01978
 Alpha  occ. eigenvalues --   -1.01219  -1.00771  -0.99558  -0.98358  -0.97910
 Alpha  occ. eigenvalues --   -0.96497  -0.96377  -0.93474  -0.90422  -0.87644
 Alpha  occ. eigenvalues --   -0.86247  -0.85006  -0.83987  -0.83446  -0.83146
 Alpha  occ. eigenvalues --   -0.82385  -0.78299  -0.76647  -0.74565  -0.74410
 Alpha  occ. eigenvalues --   -0.73755  -0.73439  -0.72830  -0.71852  -0.70074
 Alpha  occ. eigenvalues --   -0.67298  -0.67108  -0.66480  -0.66024  -0.64288
 Alpha  occ. eigenvalues --   -0.64034  -0.63621  -0.63512  -0.62465  -0.62417
 Alpha  occ. eigenvalues --   -0.61600  -0.61121  -0.60215  -0.59395  -0.59192
 Alpha  occ. eigenvalues --   -0.59025  -0.58225  -0.58106  -0.57401  -0.56280
 Alpha  occ. eigenvalues --   -0.55572  -0.55439  -0.55362  -0.55048  -0.53959
 Alpha  occ. eigenvalues --   -0.53784  -0.53528  -0.53373  -0.52795  -0.52756
 Alpha  occ. eigenvalues --   -0.52631  -0.52137  -0.51492  -0.51052  -0.50687
 Alpha  occ. eigenvalues --   -0.50059  -0.49924  -0.49480  -0.49263  -0.48947
 Alpha  occ. eigenvalues --   -0.48562  -0.48346  -0.48097  -0.47821  -0.47381
 Alpha  occ. eigenvalues --   -0.47095  -0.46121  -0.45378  -0.43691  -0.42598
 Alpha  occ. eigenvalues --   -0.41819  -0.40376  -0.38801  -0.37869  -0.37638
 Alpha  occ. eigenvalues --   -0.37151  -0.37010  -0.36723  -0.35870  -0.34671
 Alpha  occ. eigenvalues --   -0.34489  -0.34266  -0.33758  -0.33619  -0.32808
 Alpha  occ. eigenvalues --   -0.32442  -0.32211  -0.31834  -0.31700  -0.31106
 Alpha  occ. eigenvalues --   -0.31015  -0.29303  -0.27090  -0.24778
 Alpha virt. eigenvalues --    0.03540   0.04344   0.06997   0.07538   0.08894
 Alpha virt. eigenvalues --    0.09280   0.09902   0.10252   0.10599   0.12367
 Alpha virt. eigenvalues --    0.12946   0.13870   0.14529   0.14693   0.14873

 Mulliken charges:
               1
     1  N   -0.306625
     2  C    0.191364
     3  C    0.056618
     4  N   -0.238026
     5  C    0.115873
     6  H    0.026063
     7  N   -0.284227
     8  C    0.142537
     9  H    0.007934
    10  N   -0.273888
    11  C    0.220437
    12  C    0.076176
    13  N   -0.040871
    14  H    0.112214
    15  H    0.088848
    16  H    0.024768
    17  H    0.035027
    18  H    0.031567
    19  N   -0.292676
    20  C    0.232815
    21  C    0.214708
    22  N   -0.117029
    23  H    0.117451
    24  H    0.117817
    25  N   -0.292320
    26  C    0.227220
    27  N   -0.133439
    28  H    0.115111
    29  C    0.176598
    30  O   -0.324550
    31  C   -0.008138
    32  N   -0.215905
    33  C    0.125692
    34  H    0.018269
    35  H   -0.046896
    36  H    0.038694
    37  H    0.025703
    38  H   -0.002168
    39  H    0.056220
    40  H    0.080795
    41  H    0.023828
    42  C   -0.076994
    43  O   -0.271711
    44  C    0.158044
    45  H    0.131875
    46  N   -0.111730
    47  O   -0.342287
    48  C    0.331585
    49  H    0.037625
    50  C    0.156708
    51  C    0.056726
    52  N   -0.268502
    53  H    0.025471
    54  H    0.036672
    55  H    0.028047
    56  H    0.122462
    57  H    0.119497
    58  N   -0.045485
    59  C    0.100898
    60  C    0.214372
    61  N   -0.260300
    62  H    0.023958
    63  C    0.156562
    64  N   -0.294841
    65  H    0.034716
    66  C    0.117253
    67  N   -0.245120
    68  C    0.037256
    69  C    0.216458
    70  N   -0.312805
 Sum of Mulliken charges =  -0.00000

 Dipole moment (field-independent basis, Debye):
    X=             -4.1027    Y=              4.4800    Z=             -6.3978  Tot=              8.8224
 Quadrupole moment (field-independent basis, Debye-Ang):
   XX=           -145.8306   YY=           -225.0472   ZZ=           -262.8690
   XY=            -11.3734   XZ=             12.0929   YZ=             -6.2958

 Normal termination of Gaussian 16 at Thu Jan 25 19:40:20 2018.
