 Gaussian 16, Revision A.03,
 Gaussian 16:  EM64L-G16RevA.03 25-Dec-2016

 ---------------------------------------
 #p wb97xd/cc-pvdz sp scf=(maxcycles=20)
 ---------------------------------------

 ------------------
 Base pair stacking
 ------------------
 Symbolic Z-matrix:
 Charge =  0 Multiplicity = 1

                         Standard orientation:
 ---------------------------------------------------------------------
 Center     Atomic      Atomic             Coordinates (Angstroms)
 Number     Number       Type             X           Y           Z
 ---------------------------------------------------------------------
      1          7           0       -7.050048   -0.502852    0.339460
      2          6           0       -8.274347    0.249059    0.676704
      3          6           0       -4.963257   -1.187873    0.223878
      4          7           0       -5.698445   -2.045593   -0.581435
      5          6           0       -6.926239   -1.598569   -0.479569
      6          1           0       -7.788592   -2.034201   -0.985049
      7          7           0       -3.187140   -0.147347    1.375264
      8          6           0       -4.098103    0.706761    1.853006
      9          1           0       -3.710253    1.474832    2.520761
     10          7           0       -5.410068    0.754317    1.630764
     11          6           0       -5.782739   -0.231757    0.798181
     12          6           0       -3.593792   -1.128197    0.540011
     13          7           0       -2.685945   -1.981757    0.062073
     14          1           0       -2.942008   -2.723182   -0.559169
     15          1           0       -1.719444   -1.909264    0.308568
     16          1           0       -8.931045   -0.361775    1.119199
     17          1           0       -8.045943    0.997877    1.298187
     18          1           0       -8.679169    0.622559   -0.157935
     19          7           0       -3.047415    1.493079   -1.467397
     20          6           0       -1.736349    1.677633   -1.099827
     21          6           0       -4.178064    2.349096   -1.055609
     22          7           0        0.678029    3.480355    0.627229
     23          1           0        1.665921    3.437860    0.773852
     24          1           0        0.184633    4.226773    1.074595
     25          7           0       -1.264516    2.664046   -0.307096
     26          6           0        0.042559    2.577438   -0.134897
     27          7           0        0.829222    1.600368   -0.695271
     28          1           0        1.820257    1.612188   -0.509081
     29          6           0        0.365185    0.575645   -1.514095
     30          8           0        1.159579   -0.256607   -1.969122
     31          6           0       -1.037248    0.655455   -1.708269
     32          7           0       -1.892202   -0.154520   -2.443039
     33          6           0       -3.070986    0.379445   -2.271076
     34          1           0       -3.994595   -0.000269   -2.709276
     35          1           0       -4.846690    1.802091   -0.553094
     36          1           0       -3.840689    3.083370   -0.467997
     37          1           0       -4.611462    2.743885   -1.865009
     38          1           0        6.558888    1.850713    1.318801
     39          1           0        6.893482    2.629344   -0.226008
     40          1           0        5.314028    2.823862    0.534810
     41          1           0        6.726114   -1.983536   -1.582428
     42          6           0        6.043061   -1.174700   -1.322691
     43          8           0        4.140541   -2.230911   -2.267123
     44          6           0        4.661008   -1.284334   -1.677293
     45          1           0        2.902166   -0.247635   -1.535705
     46          7           0        3.884296   -0.206666   -1.302336
     47          8           0        3.535027    1.826623   -0.353139
     48          6           0        4.299469    0.923129   -0.642967
     49          1           0        7.518957    0.046979   -0.387263
     50          6           0        6.477967   -0.085005   -0.679252
     51          6           0        6.135377    2.142593    0.369325
     52          7           0        5.645443    0.954763   -0.335493
     53          1           0        4.275713    0.828816    3.831912
     54          1           0        3.157642    1.645048    2.968331
     55          1           0        4.682296    1.504189    2.402939
     56          1           0        0.426199   -3.877666   -0.422001
     57          1           0        2.077828   -4.101216   -0.058332
     58          7           0        1.265506   -3.518690   -0.013528
     59          6           0        1.300979   -2.316728    0.565450
     60          6           0        2.335431   -0.508561    1.715301
     61          7           0        1.229129    0.252003    1.760816
     62          1           0       -0.731390    0.177068    1.168071
     63          6           0        0.209070   -0.372235    1.175411
     64          7           0        0.171531   -1.576085    0.594953
     65          1           0        5.426781   -1.313558    2.213007
     66          6           0        4.374894   -1.285806    1.927147
     67          7           0        3.749100   -2.247677    1.294007
     68          6           0        2.455045   -1.767694    1.153352
     69          6           0        3.953679    1.043365    2.909821
     70          7           0        3.579749   -0.203024    2.213618
 ---------------------------------------------------------------------

 SCF Done:  E(RwB97XD) =  -2048.74801342     A.U. after   15 cycles

 The electronic state is 1-A.
 Alpha  occ. eigenvalues --  -19.26121 -19.21909 -19.20587 -14.52769 -14.51035
 Alpha  occ. eigenvalues --  -14.50271 -14.48341 -14.47892 -14.46561 -14.46457
 Alpha  occ. eigenvalues --  -14.46103 -14.43757 -14.43286 -14.42993 -14.42619
 Alpha  occ. eigenvalues --  -14.42602 -14.42246 -14.41853 -14.41417 -14.40596
 Alpha  occ. eigenvalues --  -10.45721 -10.40965 -10.40031 -10.38130 -10.38092
 Alpha  occ. eigenvalues --  -10.37786 -10.36751 -10.36445 -10.36127 -10.35610
 Alpha  occ. eigenvalues --  -10.35580 -10.34864 -10.34320 -10.34316 -10.34124
 Alpha  occ. eigenvalues --  -10.33087 -10.33003 -10.32168 -10.31166 -10.30872
 Alpha  occ. eigenvalues --  -10.30103 -10.29945 -10.27945  -1.19721  -1.13669
 Alpha  occ. eigenvalues --   -1.13088  -1.12919  -1.12886  -1.10359  -1.09608
 Alpha  occ. eigenvalues --   -1.08410  -1.07460  -1.06346  -1.03002  -1.02571
 Alpha  occ. eigenvalues --   -1.01778  -0.99552  -0.99389  -0.98405  -0.98315
 Alpha  occ. eigenvalues --   -0.96223  -0.95128  -0.93938  -0.91198  -0.86177
 Alpha  occ. eigenvalues --   -0.85363  -0.84760  -0.84137  -0.83797  -0.83659
 Alpha  occ. eigenvalues --   -0.81971  -0.79034  -0.75455  -0.74409  -0.74190
 Alpha  occ. eigenvalues --   -0.73535  -0.73382  -0.73192  -0.72426  -0.68820
 Alpha  occ. eigenvalues --   -0.67649  -0.67184  -0.66672  -0.65150  -0.64546
 Alpha  occ. eigenvalues --   -0.64031  -0.63567  -0.62678  -0.62515  -0.61514
 Alpha  occ. eigenvalues --   -0.61404  -0.61116  -0.59648  -0.59077  -0.58362
 Alpha  occ. eigenvalues --   -0.58152  -0.57962  -0.57659  -0.57529  -0.56568
 Alpha  occ. eigenvalues --   -0.56377  -0.56064  -0.54924  -0.54495  -0.53964
 Alpha  occ. eigenvalues --   -0.53941  -0.53430  -0.53106  -0.53017  -0.52625
 Alpha  occ. eigenvalues --   -0.52164  -0.51955  -0.51561  -0.51469  -0.51291
 Alpha  occ. eigenvalues --   -0.50327  -0.49939  -0.49492  -0.48576  -0.48524
 Alpha  occ. eigenvalues --   -0.48379  -0.48187  -0.48042  -0.47884  -0.47751
 Alpha  occ. eigenvalues --   -0.47321  -0.46211  -0.45155  -0.44275  -0.42974
 Alpha  occ. eigenvalues --   -0.42157  -0.39648  -0.39279  -0.38552  -0.37150
 Alpha  occ. eigenvalues --   -0.37090  -0.36202  -0.35870  -0.35667  -0.34923
 Alpha  occ. eigenvalues --   -0.34843  -0.34282  -0.33194  -0.33038  -0.32934
 Alpha  occ. eigenvalues --   -0.32618  -0.32454  -0.32009  -0.31846  -0.31786
 Alpha  occ. eigenvalues --   -0.31551  -0.28000  -0.27048  -0.25294
 Alpha virt. eigenvalues --    0.03001   0.05473   0.06467   0.08203   0.08808
 Alpha virt. eigenvalues --    0.08865   0.09991   0.10052   0.11162   0.12231
 Alpha virt. eigenvalues --    0.12628   0.13223   0.14747   0.14847   0.15282

 Mulliken charges:
               1
     1  N   -0.309482
     2  C    0.179915
     3  C    0.035806
     4  N   -0.255095
     5  C    0.131421
     6  H    0.030942
     7  N   -0.267974
     8  C    0.120534
     9  H    0.019871
    10  N   -0.281723
    11  C    0.225786
    12  C    0.079113
    13  N   -0.031486
    14  H    0.107340
    15  H    0.091093
    16  H    0.029484
    17  H    0.036890
    18  H    0.026457
    19  N   -0.297221
    20  C    0.242813
    21  C    0.193178
    22  N   -0.113566
    23  H    0.111774
    24  H    0.116443
    25  N   -0.296957
    26  C    0.224905
    27  N   -0.116180
    28  H    0.119597
    29  C    0.142451
    30  O   -0.324864
    31  C    0.005055
    32  N   -0.226804
    33  C    0.115946
    34  H    0.027443
    35  H    0.018978
    36  H    0.028304
    37  H    0.021346
    38  H    0.059287
    39  H    0.066011
    40  H    0.079803
    41  H    0.031698
    42  C   -0.085040
    43  O   -0.264339
    44  C    0.185614
    45  H    0.133447
    46  N   -0.125223
    47  O   -0.347649
    48  C    0.338512
    49  H    0.044962
    50  C    0.150129
    51  C    0.036978
    52  N   -0.287921
    53  H    0.031320
    54  H    0.036303
    55  H   -0.021677
    56  H    0.115883
    57  H    0.122658
    58  N   -0.062656
    59  C    0.144168
    60  C    0.221856
    61  N   -0.276137
    62  H    0.039743
    63  C    0.156208
    64  N   -0.306212
    65  H    0.023064
    66  C    0.111740
    67  N   -0.245751
    68  C    0.027003
    69  C    0.199482
    70  N   -0.294799
 Sum of Mulliken charges =  -0.00000

 Dipole moment (field-independent basis, Debye):
    X=              3.6943    Y=              5.3633    Z=              4.9423  Tot=              8.1755
 Quadrupole moment (field-independent basis, Debye-Ang):
   XX=           -140.1631   YY=           -226.4119   ZZ=           -257.2731
   XY=             16.9923   XZ=             25.8120   YZ=              0.5608

 Normal termination of Gaussian 16 at Thu Jan 25 00:45:08 2018.
