 Gaussian 16, Revision A.03,
 Gaussian 16:  EM64L-G16RevA.03 25-Dec-2016

 ---------------------------------------
 #p wb97xd/cc-pvdz sp scf=(maxcycles=20)
 ---------------------------------------

 ------------------
 Base pair stacking
 ------------------
 Symbolic Z-matrix:
 Charge =  0 Multiplicity = 1

                         Standard orientation:
 ---------------------------------------------------------------------
 Center     Atomic      Atomic             Coordinates (Angstroms)
 Number     Number       Type             X           Y           Z
 ---------------------------------------------------------------------
      1          7           0       -6.545592   -0.945000    0.451299
      2          6           0       -7.791253   -0.432385    1.054254
      3          6           0       -4.434822   -1.429978    0.068195
      4          7           0       -5.155534   -1.975291   -0.984381
      5          6           0       -6.398351   -1.661282   -0.711456
      6          1           0       -7.255622   -1.929192   -1.329715
      7          7           0       -2.672166   -0.784814    1.496405
      8          6           0       -3.605167   -0.211399    2.263397
      9          1           0       -3.231531    0.281915    3.159672
     10          7           0       -4.924210   -0.156132    2.090302
     11          6           0       -5.278047   -0.791793    0.961070
     12          6           0       -3.060241   -1.416432    0.367008
     13          7           0       -2.130384   -1.989426   -0.399935
     14          1           0       -2.372165   -2.467819   -1.244869
     15          1           0       -1.160901   -1.960071   -0.156235
     16          1           0       -8.405885   -1.195922    1.252786
     17          1           0       -7.577413    0.051334    1.902439
     18          1           0       -8.238116    0.196147    0.417646
     19          7           0       -3.615010    1.836326   -1.086987
     20          6           0       -2.297574    1.973343   -0.721406
     21          6           0       -4.748168    2.568444   -0.486467
     22          7           0        0.132831    3.450947    1.271470
     23          1           0        1.124986    3.402121    1.383156
     24          1           0       -0.360571    4.082746    1.869892
     25          7           0       -1.820746    2.793227    0.240093
     26          6           0       -0.508107    2.703190    0.360456
     27          7           0        0.279177    1.874268   -0.401516
     28          1           0        1.274659    1.870900   -0.240350
     29          6           0       -0.189928    1.022193   -1.396381
     30          8           0        0.605552    0.314477   -2.026527
     31          6           0       -1.598361    1.107816   -1.537352
     32          7           0       -2.459490    0.440843   -2.397872
     33          6           0       -3.641940    0.903875   -2.095184
     34          1           0       -4.570783    0.598196   -2.577978
     35          1           0       -5.393208    1.918008   -0.086915
     36          1           0       -4.407141    3.178948    0.227156
     37          1           0       -5.210503    3.106160   -1.190695
     38          1           0        6.057442    1.847233    1.485064
     39          1           0        6.335775    2.923881    0.118311
     40          1           0        4.774954    2.928673    0.940014
     41          1           0        6.209198   -1.331092   -2.123506
     42          6           0        5.519983   -0.605128   -1.691995
     43          8           0        3.610202   -1.495028   -2.781917
     44          6           0        4.130687   -0.672891   -2.028281
     45          1           0        2.359094    0.275945   -1.641620
     46          7           0        3.346483    0.291592   -1.428224
     47          8           0        2.989200    2.088098   -0.085797
     48          6           0        3.760535    1.277149   -0.567538
     49          1           0        7.000308    0.439250   -0.567840
     50          6           0        5.954003    0.344743   -0.855346
     51          6           0        5.602855    2.312099    0.622907
     52          7           0        5.113802    1.277017   -0.292068
     53          1           0        4.812212   -0.371145    4.044985
     54          1           0        3.632440    0.642049    3.551355
     55          1           0        5.143575    0.796628    2.954152
     56          1           0        1.046980   -3.413338   -1.579392
     57          1           0        2.717458   -3.665617   -1.342819
     58          7           0        1.881650   -3.182824   -1.079061
     59          6           0        1.881251   -2.272267   -0.103340
     60          6           0        2.868935   -0.951515    1.611839
     61          7           0        1.731653   -0.318886    1.944686
     62          1           0       -0.241011   -0.277736    1.390157
     63          6           0        0.722873   -0.741705    1.185424
     64          7           0        0.721243   -1.653601    0.207653
     65          1           0        6.007190   -1.717131    1.743686
     66          6           0        4.946749   -1.643466    1.500827
     67          7           0        4.345265   -2.342268    0.569396
     68          6           0        3.027283   -1.913230    0.629216
     69          6           0        4.452415    0.145538    3.268073
     70          7           0        4.113210   -0.781830    2.171292
 ---------------------------------------------------------------------

 SCF Done:  E(RwB97XD) =  -2048.74991381     A.U. after   15 cycles

 The electronic state is 1-A.
 Alpha  occ. eigenvalues --  -19.25790 -19.22071 -19.20659 -14.52406 -14.51265
 Alpha  occ. eigenvalues --  -14.49927 -14.48600 -14.47712 -14.46900 -14.46610
 Alpha  occ. eigenvalues --  -14.45799 -14.43936 -14.42830 -14.42756 -14.42611
 Alpha  occ. eigenvalues --  -14.42580 -14.41941 -14.41801 -14.40979 -14.40762
 Alpha  occ. eigenvalues --  -10.45415 -10.41163 -10.40030 -10.38215 -10.38027
 Alpha  occ. eigenvalues --  -10.37357 -10.36606 -10.36230 -10.35791 -10.35672
 Alpha  occ. eigenvalues --  -10.35217 -10.34410 -10.34375 -10.34276 -10.33888
 Alpha  occ. eigenvalues --  -10.33304 -10.33183 -10.31992 -10.31023 -10.30797
 Alpha  occ. eigenvalues --  -10.30561 -10.29584 -10.28034  -1.19390  -1.13869
 Alpha  occ. eigenvalues --   -1.13193  -1.13005  -1.12496  -1.10514  -1.09307
 Alpha  occ. eigenvalues --   -1.08549  -1.07455  -1.05848  -1.02950  -1.02479
 Alpha  occ. eigenvalues --   -1.01259  -0.99700  -0.99556  -0.98477  -0.98003
 Alpha  occ. eigenvalues --   -0.96448  -0.95124  -0.93444  -0.90844  -0.86326
 Alpha  occ. eigenvalues --   -0.84985  -0.84848  -0.83994  -0.83863  -0.83325
 Alpha  occ. eigenvalues --   -0.82298  -0.78765  -0.75487  -0.74513  -0.73821
 Alpha  occ. eigenvalues --   -0.73609  -0.73322  -0.73208  -0.71968  -0.68851
 Alpha  occ. eigenvalues --   -0.67304  -0.67206  -0.66484  -0.65153  -0.64389
 Alpha  occ. eigenvalues --   -0.63704  -0.63590  -0.62667  -0.62570  -0.61651
 Alpha  occ. eigenvalues --   -0.61034  -0.60977  -0.59455  -0.59062  -0.58297
 Alpha  occ. eigenvalues --   -0.58176  -0.57763  -0.57661  -0.57273  -0.56363
 Alpha  occ. eigenvalues --   -0.56061  -0.55890  -0.55173  -0.54343  -0.54104
 Alpha  occ. eigenvalues --   -0.53584  -0.53532  -0.52846  -0.52792  -0.52668
 Alpha  occ. eigenvalues --   -0.52253  -0.51703  -0.51660  -0.51417  -0.51069
 Alpha  occ. eigenvalues --   -0.50094  -0.49943  -0.49398  -0.48836  -0.48742
 Alpha  occ. eigenvalues --   -0.48374  -0.48269  -0.47989  -0.47852  -0.47780
 Alpha  occ. eigenvalues --   -0.47404  -0.45883  -0.45317  -0.43759  -0.42889
 Alpha  occ. eigenvalues --   -0.41961  -0.39390  -0.39316  -0.38104  -0.37227
 Alpha  occ. eigenvalues --   -0.37166  -0.36511  -0.36188  -0.35951  -0.34662
 Alpha  occ. eigenvalues --   -0.34448  -0.34165  -0.33236  -0.33200  -0.32772
 Alpha  occ. eigenvalues --   -0.32656  -0.32186  -0.31889  -0.31850  -0.31401
 Alpha  occ. eigenvalues --   -0.31161  -0.27989  -0.26612  -0.25374
 Alpha virt. eigenvalues --    0.02706   0.05998   0.06998   0.07620   0.09089
 Alpha virt. eigenvalues --    0.09575   0.09823   0.10210   0.11113   0.12291
 Alpha virt. eigenvalues --    0.13009   0.13564   0.14123   0.14829   0.14981

 Mulliken charges:
               1
     1  N   -0.309712
     2  C    0.179313
     3  C    0.037725
     4  N   -0.248914
     5  C    0.122999
     6  H    0.028538
     7  N   -0.282652
     8  C    0.137494
     9  H    0.015983
    10  N   -0.287833
    11  C    0.228970
    12  C    0.093019
    13  N   -0.036002
    14  H    0.110122
    15  H    0.089986
    16  H    0.029755
    17  H    0.036660
    18  H    0.023917
    19  N   -0.303160
    20  C    0.255278
    21  C    0.187438
    22  N   -0.121299
    23  H    0.115765
    24  H    0.118354
    25  N   -0.305994
    26  C    0.239381
    27  N   -0.141497
    28  H    0.121532
    29  C    0.172661
    30  O   -0.326200
    31  C   -0.008454
    32  N   -0.230792
    33  C    0.129220
    34  H    0.025059
    35  H    0.019744
    36  H    0.030313
    37  H    0.021300
    38  H    0.052762
    39  H    0.064152
    40  H    0.076177
    41  H    0.026253
    42  C   -0.058839
    43  O   -0.271000
    44  C    0.168870
    45  H    0.134746
    46  N   -0.125802
    47  O   -0.345818
    48  C    0.342862
    49  H    0.040311
    50  C    0.146149
    51  C    0.037916
    52  N   -0.283050
    53  H    0.033976
    54  H    0.041335
    55  H   -0.003354
    56  H    0.117118
    57  H    0.119710
    58  N   -0.040175
    59  C    0.118634
    60  C    0.222928
    61  N   -0.272997
    62  H    0.030291
    63  C    0.155195
    64  N   -0.305840
    65  H    0.025724
    66  C    0.125382
    67  N   -0.242707
    68  C    0.010891
    69  C    0.189586
    70  N   -0.299401
 Sum of Mulliken charges =  -0.00000

 Dipole moment (field-independent basis, Debye):
    X=              4.0046    Y=              4.6254    Z=              5.5459  Tot=              8.2576
 Quadrupole moment (field-independent basis, Debye-Ang):
   XX=           -143.5018   YY=           -227.7778   ZZ=           -254.9256
   XY=              8.6765   XZ=             23.0997   YZ=              8.4649

 Normal termination of Gaussian 16 at Thu Jan 25 07:51:31 2018.
