 Gaussian 16, Revision A.03,
 Gaussian 16:  EM64L-G16RevA.03 25-Dec-2016

 ---------------------------------------
 #p wb97xd/cc-pvdz sp scf=(maxcycles=20)
 ---------------------------------------

 ------------------
 Base pair stacking
 ------------------
 Symbolic Z-matrix:
 Charge =  0 Multiplicity = 1

                         Standard orientation:
 ---------------------------------------------------------------------
 Center     Atomic      Atomic             Coordinates (Angstroms)
 Number     Number       Type             X           Y           Z
 ---------------------------------------------------------------------
      1          7           0        5.683357   -1.335038   -0.766667
      2          6           0        6.934223   -0.859582   -1.388971
      3          6           0        3.562682   -1.709730   -0.319858
      4          7           0        4.288780   -2.380391    0.653658
      5          6           0        5.537353   -2.127812    0.345504
      6          1           0        6.399956   -2.497857    0.900398
      7          7           0        1.788789   -0.842923   -1.610167
      8          6           0        2.725164   -0.273975   -2.376386
      9          1           0        2.348139    0.310308   -3.214676
     10          7           0        4.051102   -0.318196   -2.263089
     11          6           0        4.408607   -1.060782   -1.202337
     12          6           0        2.180723   -1.583736   -0.550608
     13          7           0        1.247506   -2.152465    0.215428
     14          1           0        1.491932   -2.709357    1.010003
     15          1           0        0.272768   -2.041355    0.021313
     16          1           0        7.486017   -1.643898   -1.672776
     17          1           0        6.717882   -0.298958   -2.187738
     18          1           0        7.449980   -0.312478   -0.729670
     19          7           0        4.556049    1.419622    0.902753
     20          6           0        3.238644    1.642808    0.582345
     21          6           0        5.716647    1.983637    0.184697
     22          7           0        0.847829    3.143944   -1.440622
     23          1           0       -0.149222    3.176819   -1.504205
     24          1           0        1.363276    3.667932   -2.119199
     25          7           0        2.786697    2.408705   -0.434123
     26          6           0        1.466761    2.429573   -0.488518
     27          7           0        0.650083    1.752870    0.384762
     28          1           0       -0.348828    1.826423    0.267631
     29          6           0        1.093246    0.958925    1.437921
     30          8           0        0.272254    0.390650    2.168519
     31          6           0        2.509141    0.926764    1.509121
     32          7           0        3.351616    0.267317    2.393574
     33          6           0        4.552975    0.588202    1.996093
     34          1           0        5.475049    0.244894    2.466405
     35          1           0        6.280441    1.241425   -0.175933
     36          1           0        5.394190    2.552858   -0.570470
     37          1           0        6.260275    2.540416    0.811813
     38          1           0       -5.197979    2.082527   -1.239987
     39          1           0       -5.309458    3.304710    0.024327
     40          1           0       -3.798868    3.087289   -0.860097
     41          1           0       -5.441874   -0.712597    2.668255
     42          6           0       -4.714721   -0.097622    2.137896
     43          8           0       -2.836808   -1.053406    3.227411
     44          6           0       -3.321232   -0.261574    2.419261
     45          1           0       -1.495437    0.478376    1.864961
     46          7           0       -2.487334    0.565095    1.693671
     47          8           0       -2.043314    2.185799    0.166138
     48          6           0       -2.857045    1.498935    0.758365
     49          1           0       -6.153591    0.968306    0.980624
     50          6           0       -5.106186    0.804968    1.230870
     51          6           0       -4.660274    2.582751   -0.448334
     52          7           0       -4.217506    1.598016    0.542619
     53          1           0       -5.751976    0.252414   -3.759430
     54          1           0       -4.485488    1.145556   -3.249167
     55          1           0       -5.955490    1.351608   -2.570413
     56          1           0       -1.966492   -3.453337    1.437005
     57          1           0       -3.658921   -3.577349    1.262715
     58          7           0       -2.804075   -3.131070    0.995722
     59          6           0       -2.783104   -2.149888    0.091289
     60          6           0       -3.750551   -0.639232   -1.471947
     61          7           0       -2.587904   -0.058172   -1.811110
     62          1           0       -0.595099   -0.188409   -1.350230
     63          6           0       -1.578857   -0.603081   -1.134496
     64          7           0       -1.597824   -1.585878   -0.228228
     65          1           0       -6.936652   -1.186523   -1.509623
     66          6           0       -5.864229   -1.200987   -1.313082
     67          7           0       -5.272683   -2.007251   -0.465909
     68          6           0       -3.932171   -1.661571   -0.556865
     69          6           0       -5.324660    0.683087   -2.964503
     70          7           0       -5.003110   -0.346262   -1.957004
 ---------------------------------------------------------------------

 SCF Done:  E(RwB97XD) =  -2048.74463705     A.U. after   15 cycles

 The electronic state is 1-A.
 Alpha  occ. eigenvalues --  -19.25158 -19.21571 -19.20518 -14.52206 -14.51992
 Alpha  occ. eigenvalues --  -14.49628 -14.48837 -14.47334 -14.46955 -14.46735
 Alpha  occ. eigenvalues --  -14.46535 -14.44862 -14.43814 -14.43632 -14.42900
 Alpha  occ. eigenvalues --  -14.42087 -14.41840 -14.41544 -14.40948 -14.40777
 Alpha  occ. eigenvalues --  -10.44887 -10.41053 -10.39636 -10.39120 -10.38155
 Alpha  occ. eigenvalues --  -10.37554 -10.37108 -10.36785 -10.36175 -10.35354
 Alpha  occ. eigenvalues --  -10.34942 -10.34764 -10.34272 -10.34153 -10.34133
 Alpha  occ. eigenvalues --  -10.33798 -10.33339 -10.32082 -10.32082 -10.31020
 Alpha  occ. eigenvalues --  -10.30431 -10.29231 -10.28041  -1.18864  -1.14850
 Alpha  occ. eigenvalues --   -1.13102  -1.12586  -1.12164  -1.10550  -1.08852
 Alpha  occ. eigenvalues --   -1.08553  -1.08431  -1.05750  -1.04054  -1.02058
 Alpha  occ. eigenvalues --   -1.01128  -1.00560  -0.99598  -0.98406  -0.97791
 Alpha  occ. eigenvalues --   -0.96547  -0.96206  -0.93387  -0.90476  -0.87359
 Alpha  occ. eigenvalues --   -0.85924  -0.84858  -0.84045  -0.83351  -0.83271
 Alpha  occ. eigenvalues --   -0.82482  -0.78373  -0.76482  -0.74572  -0.74287
 Alpha  occ. eigenvalues --   -0.73665  -0.73484  -0.72895  -0.71773  -0.69876
 Alpha  occ. eigenvalues --   -0.67292  -0.67052  -0.66272  -0.66043  -0.64297
 Alpha  occ. eigenvalues --   -0.63791  -0.63581  -0.63403  -0.62487  -0.61907
 Alpha  occ. eigenvalues --   -0.61634  -0.61002  -0.60021  -0.59108  -0.59047
 Alpha  occ. eigenvalues --   -0.58829  -0.58241  -0.58073  -0.57298  -0.56150
 Alpha  occ. eigenvalues --   -0.55676  -0.55506  -0.55244  -0.55075  -0.54041
 Alpha  occ. eigenvalues --   -0.53793  -0.53485  -0.53338  -0.52847  -0.52653
 Alpha  occ. eigenvalues --   -0.52488  -0.52206  -0.51464  -0.51206  -0.50992
 Alpha  occ. eigenvalues --   -0.50049  -0.49967  -0.49370  -0.49313  -0.49043
 Alpha  occ. eigenvalues --   -0.48656  -0.48258  -0.48128  -0.47733  -0.47465
 Alpha  occ. eigenvalues --   -0.47184  -0.46165  -0.45314  -0.43602  -0.42798
 Alpha  occ. eigenvalues --   -0.41756  -0.40234  -0.38915  -0.37804  -0.37561
 Alpha  occ. eigenvalues --   -0.37098  -0.37006  -0.36851  -0.35879  -0.34583
 Alpha  occ. eigenvalues --   -0.34365  -0.34124  -0.33685  -0.33616  -0.32880
 Alpha  occ. eigenvalues --   -0.32511  -0.32312  -0.31821  -0.31654  -0.31070
 Alpha  occ. eigenvalues --   -0.31042  -0.29159  -0.26947  -0.24890
 Alpha virt. eigenvalues --    0.03439   0.04445   0.07059   0.07663   0.08883
 Alpha virt. eigenvalues --    0.09310   0.09851   0.10288   0.10755   0.12263
 Alpha virt. eigenvalues --    0.13016   0.13933   0.14498   0.14653   0.14892

 Mulliken charges:
               1
     1  N   -0.305846
     2  C    0.182756
     3  C    0.051391
     4  N   -0.236883
     5  C    0.115233
     6  H    0.025794
     7  N   -0.286413
     8  C    0.140566
     9  H    0.010101
    10  N   -0.278896
    11  C    0.227675
    12  C    0.079845
    13  N   -0.040443
    14  H    0.112891
    15  H    0.089348
    16  H    0.026952
    17  H    0.035221
    18  H    0.030020
    19  N   -0.296037
    20  C    0.242713
    21  C    0.205145
    22  N   -0.120831
    23  H    0.117572
    24  H    0.118084
    25  N   -0.299631
    26  C    0.236844
    27  N   -0.137902
    28  H    0.116005
    29  C    0.180321
    30  O   -0.325505
    31  C   -0.015571
    32  N   -0.215333
    33  C    0.126510
    34  H    0.018532
    35  H   -0.027818
    36  H    0.037042
    37  H    0.025913
    38  H    0.009208
    39  H    0.058802
    40  H    0.080560
    41  H    0.023339
    42  C   -0.073441
    43  O   -0.273325
    44  C    0.154655
    45  H    0.132319
    46  N   -0.111419
    47  O   -0.344625
    48  C    0.334912
    49  H    0.038151
    50  C    0.158342
    51  C    0.054760
    52  N   -0.271183
    53  H    0.030014
    54  H    0.039101
    55  H    0.031742
    56  H    0.122455
    57  H    0.118223
    58  N   -0.037561
    59  C    0.091322
    60  C    0.220541
    61  N   -0.262583
    62  H    0.025462
    63  C    0.155628
    64  N   -0.294270
    65  H    0.033974
    66  C    0.116000
    67  N   -0.244808
    68  C    0.034072
    69  C    0.193066
    70  N   -0.308797
 Sum of Mulliken charges =  -0.00000

 Dipole moment (field-independent basis, Debye):
    X=             -4.1197    Y=              4.1220    Z=             -6.4557  Tot=              8.6970
 Quadrupole moment (field-independent basis, Debye-Ang):
   XX=           -145.8178   YY=           -226.6973   ZZ=           -260.0144
   XY=             -9.9819   XZ=             13.0685   YZ=             -9.9071

 Normal termination of Gaussian 16 at Wed Jan 24 08:43:21 2018.
