 Gaussian 16, Revision A.03,
 Gaussian 16:  EM64L-G16RevA.03 25-Dec-2016

 ---------------------------------------
 #p wb97xd/cc-pvdz sp scf=(maxcycles=20)
 ---------------------------------------

 ------------------
 Base pair stacking
 ------------------
 Symbolic Z-matrix:
 Charge =  0 Multiplicity = 1

                         Standard orientation:
 ---------------------------------------------------------------------
 Center     Atomic      Atomic             Coordinates (Angstroms)
 Number     Number       Type             X           Y           Z
 ---------------------------------------------------------------------
      1          7           0        6.517500   -0.733836   -0.559754
      2          6           0        7.752516   -0.017807   -0.933958
      3          6           0        4.416094   -1.358094   -0.381689
      4          7           0        5.149668   -2.236483    0.402538
      5          6           0        6.386332   -1.825229    0.263874
      6          1           0        7.250303   -2.285491    0.744143
      7          7           0        2.637527   -0.266957   -1.481275
      8          6           0        3.558277    0.560255   -1.986771
      9          1           0        3.173221    1.339011   -2.643673
     10          7           0        4.877069    0.569873   -1.803477
     11          6           0        5.245536   -0.426309   -0.981116
     12          6           0        3.040169   -1.258888   -0.657245
     13          7           0        2.122555   -2.085649   -0.151665
     14          1           0        2.375326   -2.833972    0.462622
     15          1           0        1.151672   -1.985284   -0.369544
     16          1           0        8.377884   -0.647546   -1.394958
     17          1           0        7.527586    0.737105   -1.549298
     18          1           0        8.192505    0.344088   -0.112107
     19          7           0        3.652875    1.395295    1.342415
     20          6           0        2.339722    1.606275    0.997221
     21          6           0        4.804955    2.161346    0.826089
     22          7           0       -0.050246    3.360829   -0.811469
     23          1           0       -1.043227    3.350252   -0.925992
     24          1           0        0.459710    4.043303   -1.335768
     25          7           0        1.884909    2.541295    0.135289
     26          6           0        0.570515    2.498946    0.008124
     27          7           0       -0.238426    1.609718    0.673255
     28          1           0       -1.233515    1.649959    0.514713
     29          6           0        0.207809    0.639142    1.564735
     30          8           0       -0.606098   -0.114617    2.112591
     31          6           0        1.617833    0.672341    1.711693
     32          7           0        2.460834   -0.109214    2.489779
     33          6           0        3.655022    0.354677    2.238934
     34          1           0        4.575291   -0.027127    2.682332
     35          1           0        5.433510    1.543878    0.354443
     36          1           0        4.480315    2.856966    0.186562
     37          1           0        5.280232    2.604188    1.585562
     38          1           0       -6.013748    1.943200   -1.192948
     39          1           0       -6.265712    2.865517    0.287081
     40          1           0       -4.704523    2.923152   -0.531908
     41          1           0       -6.250095   -1.617046    2.034338
     42          6           0       -5.542132   -0.864872    1.686121
     43          8           0       -3.656751   -1.920514    2.664936
     44          6           0       -4.155333   -1.005570    2.009883
     45          1           0       -2.359700   -0.064695    1.729236
     46          7           0       -3.346168    0.000115    1.520906
     47          8           0       -2.941803    1.926896    0.389018
     48          6           0       -3.734078    1.086727    0.777716
     49          1           0       -6.994216    0.337110    0.689870
     50          6           0       -5.950940    0.184094    0.962823
     51          6           0       -5.548212    2.296065   -0.284745
     52          7           0       -5.086647    1.152214    0.506648
     53          1           0       -4.863397    0.924097   -3.717274
     54          1           0       -3.697108    1.707895   -2.888100
     55          1           0       -5.207803    1.611438   -2.277696
     56          1           0       -1.027463   -3.890473    0.426511
     57          1           0       -2.694909   -4.066224    0.112121
     58          7           0       -1.867742   -3.507473    0.042612
     59          6           0       -1.885552   -2.305188   -0.536485
     60          6           0       -2.900826   -0.468206   -1.657391
     61          7           0       -1.774816    0.259985   -1.736510
     62          1           0        0.199398    0.128500   -1.201922
     63          6           0       -0.756374   -0.393335   -1.180786
     64          7           0       -0.736511   -1.597573   -0.600271
     65          1           0       -6.027551   -1.183513   -2.062484
     66          6           0       -4.967303   -1.186130   -1.807900
     67          7           0       -4.351136   -2.165512   -1.192402
     68          6           0       -3.040141   -1.723158   -1.090648
     69          6           0       -4.508142    1.129538   -2.805361
     70          7           0       -4.149995   -0.126929   -2.119038
 ---------------------------------------------------------------------

 SCF Done:  E(RwB97XD) =  -2048.72964347     A.U. after   15 cycles

 The electronic state is 1-A.
 Alpha  occ. eigenvalues --  -19.25782 -19.21975 -19.20574 -14.52538 -14.51498
 Alpha  occ. eigenvalues --  -14.50192 -14.48397 -14.47734 -14.46652 -14.46542
 Alpha  occ. eigenvalues --  -14.46423 -14.44227 -14.43146 -14.43137 -14.43025
 Alpha  occ. eigenvalues --  -14.42783 -14.42011 -14.41774 -14.41148 -14.40631
 Alpha  occ. eigenvalues --  -10.45429 -10.40974 -10.39995 -10.38535 -10.38080
 Alpha  occ. eigenvalues --  -10.37594 -10.36879 -10.36505 -10.35986 -10.35847
 Alpha  occ. eigenvalues --  -10.35415 -10.34667 -10.34587 -10.34095 -10.34067
 Alpha  occ. eigenvalues --  -10.33083 -10.33015 -10.32231 -10.31359 -10.30930
 Alpha  occ. eigenvalues --  -10.29983 -10.29819 -10.27885  -1.19462  -1.14138
 Alpha  occ. eigenvalues --   -1.13089  -1.12923  -1.12748  -1.10378  -1.09439
 Alpha  occ. eigenvalues --   -1.08400  -1.07909  -1.06100  -1.03452  -1.02508
 Alpha  occ. eigenvalues --   -1.01579  -0.99883  -0.99522  -0.98335  -0.98256
 Alpha  occ. eigenvalues --   -0.96250  -0.95574  -0.93729  -0.91066  -0.86860
 Alpha  occ. eigenvalues --   -0.85514  -0.85210  -0.83851  -0.83780  -0.83541
 Alpha  occ. eigenvalues --   -0.82001  -0.78893  -0.75882  -0.74377  -0.74065
 Alpha  occ. eigenvalues --   -0.73709  -0.73464  -0.73345  -0.72221  -0.69338
 Alpha  occ. eigenvalues --   -0.67485  -0.67159  -0.66657  -0.65642  -0.64598
 Alpha  occ. eigenvalues --   -0.63873  -0.63655  -0.63085  -0.62591  -0.62400
 Alpha  occ. eigenvalues --   -0.61504  -0.61292  -0.59708  -0.59413  -0.58650
 Alpha  occ. eigenvalues --   -0.58383  -0.58104  -0.57583  -0.56962  -0.56490
 Alpha  occ. eigenvalues --   -0.56168  -0.55999  -0.55806  -0.54498  -0.54278
 Alpha  occ. eigenvalues --   -0.53978  -0.53412  -0.53038  -0.53019  -0.52572
 Alpha  occ. eigenvalues --   -0.52282  -0.51806  -0.51403  -0.51280  -0.50665
 Alpha  occ. eigenvalues --   -0.50158  -0.49902  -0.49413  -0.48972  -0.48697
 Alpha  occ. eigenvalues --   -0.48520  -0.48278  -0.48042  -0.48026  -0.47744
 Alpha  occ. eigenvalues --   -0.47303  -0.46040  -0.45251  -0.43900  -0.42974
 Alpha  occ. eigenvalues --   -0.41924  -0.39652  -0.39387  -0.38348  -0.37159
 Alpha  occ. eigenvalues --   -0.37061  -0.36681  -0.36505  -0.35993  -0.34875
 Alpha  occ. eigenvalues --   -0.34665  -0.33960  -0.33504  -0.33170  -0.33109
 Alpha  occ. eigenvalues --   -0.32580  -0.32157  -0.31879  -0.31713  -0.31534
 Alpha  occ. eigenvalues --   -0.31375  -0.28391  -0.26894  -0.25269
 Alpha virt. eigenvalues --    0.02544   0.05679   0.06718   0.07390   0.09187
 Alpha virt. eigenvalues --    0.09299   0.09714   0.10223   0.11465   0.12001
 Alpha virt. eigenvalues --    0.12655   0.13298   0.14538   0.14934   0.15084

 Mulliken charges:
               1
     1  N   -0.307748
     2  C    0.178066
     3  C    0.053851
     4  N   -0.248824
     5  C    0.124078
     6  H    0.029362
     7  N   -0.272832
     8  C    0.136055
     9  H    0.014290
    10  N   -0.281101
    11  C    0.208380
    12  C    0.084020
    13  N   -0.036487
    14  H    0.108853
    15  H    0.088893
    16  H    0.031803
    17  H    0.037097
    18  H    0.025583
    19  N   -0.295017
    20  C    0.243992
    21  C    0.200126
    22  N   -0.113523
    23  H    0.114730
    24  H    0.116733
    25  N   -0.296865
    26  C    0.218344
    27  N   -0.138357
    28  H    0.129612
    29  C    0.159795
    30  O   -0.324876
    31  C    0.003055
    32  N   -0.226537
    33  C    0.124668
    34  H    0.023772
    35  H    0.006065
    36  H    0.030513
    37  H    0.018245
    38  H    0.056287
    39  H    0.060329
    40  H    0.074379
    41  H    0.028810
    42  C   -0.069363
    43  O   -0.264767
    44  C    0.171896
    45  H    0.133645
    46  N   -0.123563
    47  O   -0.337821
    48  C    0.332611
    49  H    0.042120
    50  C    0.146202
    51  C    0.051071
    52  N   -0.280794
    53  H    0.030881
    54  H    0.039833
    55  H   -0.026402
    56  H    0.118253
    57  H    0.121006
    58  N   -0.058831
    59  C    0.131290
    60  C    0.205988
    61  N   -0.270528
    62  H    0.031822
    63  C    0.157645
    64  N   -0.308137
    65  H    0.026796
    66  C    0.122248
    67  N   -0.244773
    68  C    0.026950
    69  C    0.200663
    70  N   -0.293560
 Sum of Mulliken charges =  -0.00000

 Dipole moment (field-independent basis, Debye):
    X=             -3.7944    Y=              5.0668    Z=             -5.4637  Tot=              8.3619
 Quadrupole moment (field-independent basis, Debye-Ang):
   XX=           -143.6402   YY=           -225.1047   ZZ=           -261.1629
   XY=            -14.9081   XZ=             20.0013   YZ=             -1.8792

 Normal termination of Gaussian 16 at Fri Jan 26 07:34:42 2018.
