 Gaussian 16, Revision A.03,
 Gaussian 16:  EM64L-G16RevA.03 25-Dec-2016

 ---------------------------------------
 #p wb97xd/cc-pvdz sp scf=(maxcycles=20)
 ---------------------------------------

 ------------------
 Base pair stacking
 ------------------
 Symbolic Z-matrix:
 Charge =  0 Multiplicity = 1

                         Standard orientation:
 ---------------------------------------------------------------------
 Center     Atomic      Atomic             Coordinates (Angstroms)
 Number     Number       Type             X           Y           Z
 ---------------------------------------------------------------------
      1          7           0       -5.947963    0.767171   -0.837405
      2          6           0       -7.187482    0.000615   -1.069751
      3          6           0       -3.838790    1.383162   -0.741252
      4          7           0       -4.575281    2.438339   -0.222690
      5          6           0       -5.816501    2.024991   -0.301379
      6          1           0       -6.683805    2.602361    0.020150
      7          7           0       -2.053351    0.028148   -1.475485
      8          6           0       -2.977395   -0.883269   -1.796454
      9          1           0       -2.590751   -1.805213   -2.228641
     10          7           0       -4.301140   -0.827087   -1.664338
     11          6           0       -4.671169    0.345922   -1.124377
     12          6           0       -2.457689    1.197984   -0.934112
     13          7           0       -1.536776    2.109032   -0.613045
     14          1           0       -1.790642    2.988955   -0.209918
     15          1           0       -0.562235    1.943172   -0.764415
     16          1           0       -7.782789    0.507804   -1.693078
     17          1           0       -6.961571   -0.885524   -1.473288
     18          1           0       -7.661572   -0.141849   -0.200873
     19          7           0       -4.277137   -0.962402    1.239272
     20          6           0       -2.962375   -1.240536    0.952780
     21          6           0       -5.443015   -1.659475    0.660028
     22          7           0       -0.587324   -3.102837   -0.765570
     23          1           0        0.409093   -3.144839   -0.833665
     24          1           0       -1.107848   -3.751161   -1.321848
     25          7           0       -2.518233   -2.189715    0.100808
     26          6           0       -1.198921   -2.217263    0.035442
     27          7           0       -0.375725   -1.380180    0.748990
     28          1           0        0.622148   -1.472571    0.636351
     29          6           0       -0.810806   -0.396273    1.631323
     30          8           0        0.015611    0.306509    2.226184
     31          6           0       -2.225945   -0.354621    1.712133
     32          7           0       -3.061552    0.463227    2.460307
     33          6           0       -4.265742    0.067340    2.148199
     34          1           0       -5.184095    0.493727    2.553287
     35          1           0       -6.014656   -1.003963    0.167758
     36          1           0       -5.126351   -2.364906    0.027271
     37          1           0       -5.976597   -2.083893    1.390758
     38          1           0        5.454929   -2.006273   -0.850944
     39          1           0        5.587081   -2.956376    0.627058
     40          1           0        4.065371   -2.920782   -0.264292
     41          1           0        5.729438    1.501864    2.429936
     42          6           0        4.999372    0.792824    2.039420
     43          8           0        3.129256    1.938671    2.943212
     44          6           0        3.608391    1.005003    2.300185
     45          1           0        1.780133    0.165738    1.924139
     46          7           0        2.770423    0.049799    1.761063
     47          8           0        2.317150   -1.840270    0.586598
     48          6           0        3.134125   -1.048364    1.022613
     49          1           0        6.430267   -0.475491    1.096169
     50          6           0        5.384985   -0.269088    1.322313
     51          6           0        4.928879   -2.342936    0.029966
     52          7           0        4.492502   -1.184147    0.813878
     53          1           0        5.483216   -1.791602   -3.078899
     54          1           0        4.273034   -2.329917   -2.126137
     55          1           0        5.765724   -2.110347   -1.503461
     56          1           0        1.635997    3.951142   -0.379782
     57          1           0        3.316209    4.018417   -0.666911
     58          7           0        2.478463    3.472656   -0.627666
     59          6           0        2.485539    2.164969   -0.894243
     60          6           0        3.491042    0.093636   -1.494462
     61          7           0        2.350908   -0.614069   -1.433949
     62          1           0        0.364631   -0.324756   -1.019692
     63          6           0        1.331520    0.171364   -1.092122
     64          7           0        1.322402    1.481329   -0.824724
     65          1           0        6.645200    0.638936   -1.948464
     66          6           0        5.577870    0.720432   -1.740859
     67          7           0        4.966398    1.830297   -1.406236
     68          6           0        3.642617    1.446901   -1.247047
     69          6           0        5.094726   -1.761644   -2.157939
     70          7           0        4.745513   -0.369840   -1.813059
 ---------------------------------------------------------------------

 SCF Done:  E(RwB97XD) =  -2048.49301511     A.U. after   15 cycles

 The electronic state is 1-A.
 Alpha  occ. eigenvalues --  -19.24365 -19.21158 -19.20703 -14.52956 -14.51379
 Alpha  occ. eigenvalues --  -14.49908 -14.48549 -14.47572 -14.47016 -14.46967
 Alpha  occ. eigenvalues --  -14.46807 -14.45511 -14.44160 -14.44106 -14.43212
 Alpha  occ. eigenvalues --  -14.42396 -14.41735 -14.41175 -14.40759 -14.40581
 Alpha  occ. eigenvalues --  -10.44141 -10.41147 -10.39577 -10.39272 -10.38269
 Alpha  occ. eigenvalues --  -10.38252 -10.37315 -10.36957 -10.36387 -10.35463
 Alpha  occ. eigenvalues --  -10.35080 -10.34960 -10.34281 -10.34098 -10.34064
 Alpha  occ. eigenvalues --  -10.33221 -10.32719 -10.32462 -10.31098 -10.30223
 Alpha  occ. eigenvalues --  -10.29587 -10.29186 -10.28121  -1.18598  -1.15792
 Alpha  occ. eigenvalues --   -1.13378  -1.12570  -1.12169  -1.10484  -1.09329
 Alpha  occ. eigenvalues --   -1.08716  -1.08315  -1.05951  -1.04704  -1.03149
 Alpha  occ. eigenvalues --   -1.01523  -1.01385  -0.99889  -0.98575  -0.98285
 Alpha  occ. eigenvalues --   -0.97103  -0.96451  -0.94058  -0.93543  -0.89739
 Alpha  occ. eigenvalues --   -0.87256  -0.85355  -0.83965  -0.83760  -0.82071
 Alpha  occ. eigenvalues --   -0.81903  -0.78137  -0.77126  -0.75069  -0.74552
 Alpha  occ. eigenvalues --   -0.74075  -0.73941  -0.73672  -0.72070  -0.71283
 Alpha  occ. eigenvalues --   -0.69339  -0.67521  -0.67345  -0.66673  -0.65232
 Alpha  occ. eigenvalues --   -0.64747  -0.64237  -0.63758  -0.62866  -0.62665
 Alpha  occ. eigenvalues --   -0.61804  -0.61471  -0.61140  -0.60373  -0.59793
 Alpha  occ. eigenvalues --   -0.59383  -0.58742  -0.58484  -0.57678  -0.56982
 Alpha  occ. eigenvalues --   -0.56777  -0.55905  -0.55223  -0.54954  -0.54345
 Alpha  occ. eigenvalues --   -0.53875  -0.53566  -0.53353  -0.53021  -0.52733
 Alpha  occ. eigenvalues --   -0.52505  -0.51344  -0.51147  -0.51078  -0.50206
 Alpha  occ. eigenvalues --   -0.49944  -0.49784  -0.49504  -0.48776  -0.48723
 Alpha  occ. eigenvalues --   -0.48369  -0.48096  -0.47885  -0.47320  -0.46847
 Alpha  occ. eigenvalues --   -0.46412  -0.45898  -0.45267  -0.42843  -0.42109
 Alpha  occ. eigenvalues --   -0.40740  -0.39135  -0.38635  -0.38020  -0.37653
 Alpha  occ. eigenvalues --   -0.37476  -0.37079  -0.36615  -0.35904  -0.35017
 Alpha  occ. eigenvalues --   -0.34553  -0.34261  -0.33710  -0.33355  -0.33038
 Alpha  occ. eigenvalues --   -0.32776  -0.32211  -0.31797  -0.31128  -0.30634
 Alpha  occ. eigenvalues --   -0.30459  -0.28536  -0.27110  -0.24899
 Alpha virt. eigenvalues --    0.03202   0.04570   0.06484   0.06955   0.08831
 Alpha virt. eigenvalues --    0.09127   0.09587   0.10282   0.11157   0.11735
 Alpha virt. eigenvalues --    0.13010   0.13127   0.14098   0.14472   0.14807

 Mulliken charges:
               1
     1  N   -0.313736
     2  C    0.227238
     3  C    0.074221
     4  N   -0.244183
     5  C    0.114952
     6  H    0.026156
     7  N   -0.276873
     8  C    0.169349
     9  H   -0.004737
    10  N   -0.279196
    11  C    0.192078
    12  C    0.059333
    13  N   -0.042834
    14  H    0.109122
    15  H    0.088733
    16  H    0.019381
    17  H    0.036645
    18  H    0.021731
    19  N   -0.284536
    20  C    0.203114
    21  C    0.266010
    22  N   -0.100803
    23  H    0.117644
    24  H    0.119355
    25  N   -0.292554
    26  C    0.217030
    27  N   -0.132429
    28  H    0.119784
    29  C    0.171059
    30  O   -0.319203
    31  C    0.011860
    32  N   -0.218658
    33  C    0.128769
    34  H    0.019777
    35  H   -0.097031
    36  H    0.042301
    37  H    0.016773
    38  H    0.149402
    39  H    0.032702
    40  H    0.060030
    41  H    0.024454
    42  C   -0.084824
    43  O   -0.270622
    44  C    0.170024
    45  H    0.130387
    46  N   -0.116953
    47  O   -0.324254
    48  C    0.310416
    49  H    0.036362
    50  C    0.153600
    51  C   -0.062245
    52  N   -0.257590
    53  H    0.011084
    54  H    0.037019
    55  H   -0.097630
    56  H    0.121232
    57  H    0.121473
    58  N   -0.064195
    59  C    0.129069
    60  C    0.195994
    61  N   -0.245477
    62  H    0.030893
    63  C    0.146690
    64  N   -0.299472
    65  H    0.036240
    66  C    0.120748
    67  N   -0.243117
    68  C    0.044876
    69  C    0.362206
    70  N   -0.324165
 Sum of Mulliken charges =  -0.00000

 Dipole moment (field-independent basis, Debye):
    X=              4.1170    Y=             -5.3277    Z=             -6.7590  Tot=              9.5403
 Quadrupole moment (field-independent basis, Debye-Ang):
   XX=           -146.8125   YY=           -224.9427   ZZ=           -267.0890
   XY=            -13.9247   XZ=            -14.8507   YZ=             -1.9961

 Normal termination of Gaussian 16 at Thu Jan 25 14:54:30 2018.
