 Gaussian 16, Revision A.03,
 Gaussian 16:  EM64L-G16RevA.03 25-Dec-2016

 ---------------------------------------
 #p wb97xd/cc-pvdz sp scf=(maxcycles=20)
 ---------------------------------------

 ------------------
 Base pair stacking
 ------------------
 Symbolic Z-matrix:
 Charge =  0 Multiplicity = 1

                         Standard orientation:
 ---------------------------------------------------------------------
 Center     Atomic      Atomic             Coordinates (Angstroms)
 Number     Number       Type             X           Y           Z
 ---------------------------------------------------------------------
      1          7           0        4.462667   -2.234899   -0.320423
      2          6           0        5.687671   -2.341818   -1.136487
      3          6           0        2.369154   -2.019546    0.318405
      4          7           0        3.116916   -2.156413    1.478948
      5          6           0        4.348260   -2.280681    1.047619
      6          1           0        5.220066   -2.409562    1.689707
      7          7           0        0.572243   -1.746146   -1.184691
      8          6           0        1.480976   -1.809351   -2.163349
      9          1           0        1.083568   -1.719634   -3.173438
     10          7           0        2.800733   -1.966007   -2.081997
     11          6           0        3.184897   -2.065981   -0.798695
     12          6           0        0.990543   -1.849955    0.095672
     13          7           0        0.084924   -1.787097    1.073977
     14          1           0        0.349479   -1.859340    2.036267
     15          1           0       -0.888307   -1.665724    0.878472
     16          1           0        6.128781   -3.222679   -0.964178
     17          1           0        5.450879   -2.272526   -2.105126
     18          1           0        6.316929   -1.603026   -0.895239
     19          7           0        5.736774    1.100295    0.116207
     20          6           0        4.426540    1.332807   -0.226261
     21          6           0        6.890398    1.207488   -0.799416
     22          7           0        2.047839    2.204415   -2.601934
     23          1           0        1.056330    2.324577   -2.643405
     24          1           0        2.559952    2.364211   -3.446279
     25          7           0        3.976482    1.695353   -1.446937
     26          6           0        2.663915    1.845139   -1.465588
     27          7           0        1.852377    1.654932   -0.373463
     28          1           0        0.858985    1.791986   -0.480026
     29          6           0        2.293720    1.281827    0.892188
     30          8           0        1.477814    1.136558    1.810836
     31          6           0        3.701730    1.117143    0.927830
     32          7           0        4.540057    0.756480    1.973791
     33          6           0        5.734418    0.759569    1.446827
     34          1           0        6.651626    0.520071    1.985947
     35          1           0        7.354259    0.324235   -0.858633
     36          1           0        6.569266    1.475487   -1.706790
     37          1           0        7.527927    1.896174   -0.455805
     38          1           0       -4.040691    2.003721   -1.822072
     39          1           0       -3.944945    3.622148   -1.132014
     40          1           0       -2.529409    2.909417   -1.906367
     41          1           0       -4.263708    0.974487    2.872339
     42          6           0       -3.522096    1.250307    2.122564
     43          8           0       -1.668755    0.578166    3.441832
     44          6           0       -2.133583    1.048290    2.403697
     45          1           0       -0.291045    1.303197    1.550223
     46          7           0       -1.280148    1.430674    1.388480
     47          8           0       -0.797017    2.276730   -0.662853
     48          6           0       -1.626885    1.968798    0.174493
     49          1           0       -4.934033    1.946849    0.684831
     50          6           0       -3.891338    1.773178    0.947457
     51          6           0       -3.402486    2.704568   -1.304789
     52          7           0       -2.983976    2.132837   -0.021932
     53          1           0       -6.996822   -0.957202   -3.368521
     54          1           0       -5.604429   -0.111843   -3.461701
     55          1           0       -6.973471    0.623263   -2.962314
     56          1           0       -3.107262   -1.780410    2.897194
     57          1           0       -4.812559   -1.746777    2.866504
     58          7           0       -3.947925   -1.633963    2.375673
     59          6           0       -3.918397   -1.302912    1.083115
     60          6           0       -4.879664   -0.748558   -1.021739
     61          7           0       -3.703927   -0.603888   -1.655107
     62          1           0       -1.698360   -0.736963   -1.254364
     63          6           0       -2.692517   -0.833328   -0.820050
     64          7           0       -2.720027   -1.165023    0.474867
     65          1           0       -8.092650   -0.791434   -0.665322
     66          6           0       -7.012871   -0.844219   -0.523073
     67          7           0       -6.424116   -1.143447    0.608966
     68          6           0       -5.071306   -1.086362    0.306682
     69          6           0       -6.453403   -0.230843   -2.947705
     70          7           0       -6.138427   -0.593486   -1.552252
 ---------------------------------------------------------------------

 SCF Done:  E(RwB97XD) =  -2048.74937326     A.U. after   15 cycles

 The electronic state is 1-A.
 Alpha  occ. eigenvalues --  -19.25281 -19.21768 -19.20858 -14.52376 -14.51771
 Alpha  occ. eigenvalues --  -14.49528 -14.48952 -14.47782 -14.47258 -14.47070
 Alpha  occ. eigenvalues --  -14.46833 -14.45195 -14.44435 -14.44277 -14.42680
 Alpha  occ. eigenvalues --  -14.42293 -14.41511 -14.41380 -14.41180 -14.40830
 Alpha  occ. eigenvalues --  -10.44856 -10.41512 -10.39799 -10.39743 -10.38540
 Alpha  occ. eigenvalues --  -10.37768 -10.37161 -10.36893 -10.35981 -10.35878
 Alpha  occ. eigenvalues --  -10.34891 -10.34325 -10.34076 -10.33950 -10.33906
 Alpha  occ. eigenvalues --  -10.33675 -10.33542 -10.32486 -10.31875 -10.31355
 Alpha  occ. eigenvalues --  -10.30228 -10.28829 -10.28586  -1.18836  -1.15095
 Alpha  occ. eigenvalues --   -1.13531  -1.12707  -1.11507  -1.11144  -1.09309
 Alpha  occ. eigenvalues --   -1.08841  -1.08577  -1.05494  -1.04731  -1.01935
 Alpha  occ. eigenvalues --   -1.00833  -1.00788  -0.99953  -0.98913  -0.97266
 Alpha  occ. eigenvalues --   -0.97069  -0.96808  -0.93158  -0.90351  -0.87542
 Alpha  occ. eigenvalues --   -0.85826  -0.84763  -0.84168  -0.83254  -0.82856
 Alpha  occ. eigenvalues --   -0.82607  -0.78235  -0.76908  -0.75084  -0.74822
 Alpha  occ. eigenvalues --   -0.73895  -0.73199  -0.72758  -0.71399  -0.70248
 Alpha  occ. eigenvalues --   -0.67709  -0.66689  -0.66616  -0.65946  -0.64747
 Alpha  occ. eigenvalues --   -0.64058  -0.63502  -0.63027  -0.62858  -0.62071
 Alpha  occ. eigenvalues --   -0.60676  -0.60447  -0.60145  -0.59495  -0.59000
 Alpha  occ. eigenvalues --   -0.58811  -0.58536  -0.58392  -0.56871  -0.55889
 Alpha  occ. eigenvalues --   -0.55816  -0.55756  -0.55171  -0.54547  -0.54278
 Alpha  occ. eigenvalues --   -0.54253  -0.53594  -0.53524  -0.53244  -0.52778
 Alpha  occ. eigenvalues --   -0.52701  -0.51982  -0.51733  -0.50854  -0.50660
 Alpha  occ. eigenvalues --   -0.50512  -0.50054  -0.49615  -0.49252  -0.49215
 Alpha  occ. eigenvalues --   -0.48918  -0.48613  -0.48442  -0.47375  -0.47303
 Alpha  occ. eigenvalues --   -0.47219  -0.46027  -0.45141  -0.44865  -0.42990
 Alpha  occ. eigenvalues --   -0.41394  -0.40629  -0.39075  -0.37822  -0.37714
 Alpha  occ. eigenvalues --   -0.37529  -0.37414  -0.37284  -0.35610  -0.34680
 Alpha  occ. eigenvalues --   -0.34394  -0.34233  -0.33889  -0.33644  -0.33210
 Alpha  occ. eigenvalues --   -0.32886  -0.32693  -0.32112  -0.31589  -0.31254
 Alpha  occ. eigenvalues --   -0.30770  -0.29498  -0.26706  -0.25342
 Alpha virt. eigenvalues --    0.03749   0.04099   0.06578   0.07606   0.08583
 Alpha virt. eigenvalues --    0.09218   0.09541   0.10504   0.10641   0.12148
 Alpha virt. eigenvalues --    0.13085   0.13737   0.14179   0.14526   0.14635

 Mulliken charges:
               1
     1  N   -0.303669
     2  C    0.194494
     3  C    0.032768
     4  N   -0.234423
     5  C    0.143889
     6  H    0.024994
     7  N   -0.293727
     8  C    0.126919
     9  H    0.009071
    10  N   -0.282805
    11  C    0.242692
    12  C    0.080528
    13  N   -0.050158
    14  H    0.118903
    15  H    0.089400
    16  H    0.027285
    17  H    0.036844
    18  H   -0.003990
    19  N   -0.303557
    20  C    0.248877
    21  C    0.181030
    22  N   -0.121198
    23  H    0.118713
    24  H    0.119912
    25  N   -0.307898
    26  C    0.249961
    27  N   -0.142030
    28  H    0.120176
    29  C    0.185757
    30  O   -0.319341
    31  C   -0.011281
    32  N   -0.209467
    33  C    0.100977
    34  H    0.022765
    35  H    0.016548
    36  H    0.033544
    37  H    0.028066
    38  H    0.053335
    39  H    0.053520
    40  H    0.073505
    41  H    0.015391
    42  C   -0.094458
    43  O   -0.281657
    44  C    0.180242
    45  H    0.129527
    46  N   -0.118131
    47  O   -0.350591
    48  C    0.333883
    49  H    0.044503
    50  C    0.160695
    51  C    0.046034
    52  N   -0.270519
    53  H    0.036153
    54  H    0.042228
    55  H    0.027940
    56  H    0.126325
    57  H    0.118812
    58  N   -0.044031
    59  C    0.068414
    60  C    0.227058
    61  N   -0.270621
    62  H    0.035068
    63  C    0.158331
    64  N   -0.302201
    65  H    0.038238
    66  C    0.135772
    67  N   -0.257125
    68  C    0.048011
    69  C    0.177619
    70  N   -0.311836
 Sum of Mulliken charges =  -0.00000

 Dipole moment (field-independent basis, Debye):
    X=             -4.4114    Y=              2.3744    Z=             -7.5328  Tot=              9.0466
 Quadrupole moment (field-independent basis, Debye-Ang):
   XX=           -145.1845   YY=           -238.9022   ZZ=           -247.3162
   XY=            -11.7422   XZ=              2.2924   YZ=            -18.1234

 Normal termination of Gaussian 16 at Thu Jan 25 08:52:17 2018.
