 Gaussian 16, Revision A.03,
 Gaussian 16:  EM64L-G16RevA.03 25-Dec-2016

 ---------------------------------------
 #p wb97xd/cc-pvdz sp scf=(maxcycles=20)
 ---------------------------------------

 ------------------
 Base pair stacking
 ------------------
 Symbolic Z-matrix:
 Charge =  0 Multiplicity = 1

                         Standard orientation:
 ---------------------------------------------------------------------
 Center     Atomic      Atomic             Coordinates (Angstroms)
 Number     Number       Type             X           Y           Z
 ---------------------------------------------------------------------
      1          7           0        4.189838   -0.338015    2.155456
      2          6           0        5.419357   -1.152732    2.205757
      3          6           0        2.093592    0.303425    1.977653
      4          7           0        2.833153    1.454017    2.209899
      5          6           0        4.066459    1.021516    2.307726
      6          1           0        4.933402    1.656626    2.492117
      7          7           0        0.307917   -1.184121    1.575760
      8          6           0        1.222476   -2.159359    1.567723
      9          1           0        0.832032   -3.161592    1.396495
     10          7           0        2.540745   -2.082785    1.738635
     11          6           0        2.916144   -0.809063    1.941438
     12          6           0        0.717445    0.086575    1.782382
     13          7           0       -0.193994    1.061453    1.790756
     14          1           0        0.064001    2.016646    1.939969
     15          1           0       -1.165240    0.870364    1.648256
     16          1           0        5.854208   -1.047522    3.100188
     17          1           0        5.189156   -2.114311    2.059169
     18          1           0        6.051388   -0.850525    1.492165
     19          7           0        5.997580    0.080072   -0.858246
     20          6           0        4.687177   -0.263959   -1.087478
     21          6           0        7.138108   -0.857943   -0.853154
     22          7           0        2.289088   -2.676704   -1.787145
     23          1           0        1.299817   -2.715110   -1.925431
     24          1           0        2.790624   -3.539532   -1.855666
     25          7           0        4.225052   -1.506712   -1.344513
     26          6           0        2.915851   -1.520584   -1.521706
     27          7           0        2.118398   -0.403964   -1.452877
     28          1           0        1.126539   -0.508725   -1.601926
     29          6           0        2.572312    0.884664   -1.189721
     30          8           0        1.768612    1.824445   -1.149513
     31          6           0        3.976891    0.915498   -0.997111
     32          7           0        4.824315    1.978612   -0.716795
     33          6           0        6.009708    1.436671   -0.643475
     34          1           0        6.930290    1.982739   -0.434612
     35          1           0        7.582019   -0.840677    0.042081
     36          1           0        6.807974   -1.781767   -1.042438
     37          1           0        7.795696   -0.589555   -1.556265
     38          1           0       -3.788780   -1.794648   -1.798695
     39          1           0       -3.647330   -1.260829   -3.471920
     40          1           0       -2.260134   -1.985056   -2.657953
     41          1           0       -3.956951    2.978304   -1.217919
     42          6           0       -3.221986    2.195447   -1.405542
     43          8           0       -1.362079    3.545349   -0.817640
     44          6           0       -1.833678    2.474449   -1.199166
     45          1           0       -0.000324    1.574622   -1.331244
     46          7           0       -0.988989    1.415767   -1.465507
     47          8           0       -0.521525   -0.712556   -2.104994
     48          6           0       -1.343967    0.161743   -1.895599
     49          1           0       -4.642060    0.719031   -1.996624
     50          6           0       -3.599155    0.981886   -1.824595
     51          6           0       -3.127435   -1.354521   -2.530112
     52          7           0       -2.700295   -0.029813   -2.071372
     53          1           0       -7.242360   -3.343763    0.569980
     54          1           0       -5.844473   -3.362086   -0.271247
     55          1           0       -7.212352   -2.814591   -0.973548
     56          1           0       -3.397626    2.860750    1.906968
     57          1           0       -5.102466    2.822760    1.860234
     58          7           0       -4.234079    2.347409    1.714721
     59          6           0       -4.194399    1.085024    1.283449
     60          6           0       -5.138988   -0.975424    0.559556
     61          7           0       -3.958420   -1.588545    0.373073
     62          1           0       -1.956255   -1.187692    0.549879
     63          6           0       -2.953700   -0.768149    0.673736
     64          7           0       -2.991396    0.496540    1.105838
     65          1           0       -8.354367   -0.642383    0.609921
     66          6           0       -7.275850   -0.498373    0.680553
     67          7           0       -6.696062    0.610124    1.071413
     68          6           0       -5.341051    0.321223    0.999345
     69          6           0       -6.697388   -2.864022   -0.117661
     70          7           0       -6.393427   -1.499523    0.355367
 ---------------------------------------------------------------------

 SCF Done:  E(RwB97XD) =  -2048.75216364     A.U. after   15 cycles

 The electronic state is 1-A.
 Alpha  occ. eigenvalues --  -19.25056 -19.21383 -19.20792 -14.52554 -14.51476
 Alpha  occ. eigenvalues --  -14.49752 -14.49012 -14.48264 -14.47087 -14.47001
 Alpha  occ. eigenvalues --  -14.46703 -14.45339 -14.44761 -14.44620 -14.43132
 Alpha  occ. eigenvalues --  -14.42330 -14.41757 -14.41664 -14.41387 -14.41177
 Alpha  occ. eigenvalues --  -10.44626 -10.41497 -10.40140 -10.39421 -10.38526
 Alpha  occ. eigenvalues --  -10.37929 -10.37474 -10.36669 -10.36308 -10.36224
 Alpha  occ. eigenvalues --  -10.35030 -10.34195 -10.34179 -10.34049 -10.33880
 Alpha  occ. eigenvalues --  -10.33852 -10.33389 -10.32794 -10.32079 -10.31164
 Alpha  occ. eigenvalues --  -10.30098 -10.29089 -10.28694  -1.18595  -1.15307
 Alpha  occ. eigenvalues --   -1.13575  -1.12352  -1.11635  -1.11287  -1.09616
 Alpha  occ. eigenvalues --   -1.08781  -1.08315  -1.05808  -1.05098  -1.01674
 Alpha  occ. eigenvalues --   -1.01167  -1.00994  -0.99884  -0.98996  -0.97403
 Alpha  occ. eigenvalues --   -0.97303  -0.97100  -0.93487  -0.90043  -0.87811
 Alpha  occ. eigenvalues --   -0.86018  -0.84914  -0.84323  -0.83385  -0.82686
 Alpha  occ. eigenvalues --   -0.82372  -0.77980  -0.77178  -0.75162  -0.75130
 Alpha  occ. eigenvalues --   -0.73873  -0.73433  -0.72486  -0.71663  -0.70558
 Alpha  occ. eigenvalues --   -0.67706  -0.66982  -0.66850  -0.65716  -0.64859
 Alpha  occ. eigenvalues --   -0.64360  -0.63285  -0.63209  -0.62851  -0.62044
 Alpha  occ. eigenvalues --   -0.60917  -0.60711  -0.60192  -0.59796  -0.59037
 Alpha  occ. eigenvalues --   -0.58842  -0.58744  -0.58407  -0.57078  -0.56148
 Alpha  occ. eigenvalues --   -0.55723  -0.55597  -0.55417  -0.54606  -0.54353
 Alpha  occ. eigenvalues --   -0.54284  -0.53760  -0.53424  -0.53062  -0.52970
 Alpha  occ. eigenvalues --   -0.52382  -0.52032  -0.51304  -0.50810  -0.50725
 Alpha  occ. eigenvalues --   -0.50598  -0.50268  -0.49561  -0.49448  -0.49352
 Alpha  occ. eigenvalues --   -0.48824  -0.48780  -0.48167  -0.47466  -0.47262
 Alpha  occ. eigenvalues --   -0.47149  -0.45943  -0.45530  -0.44976  -0.42893
 Alpha  occ. eigenvalues --   -0.41575  -0.40791  -0.38940  -0.37926  -0.37792
 Alpha  occ. eigenvalues --   -0.37729  -0.37610  -0.37456  -0.35317  -0.34989
 Alpha  occ. eigenvalues --   -0.34688  -0.34178  -0.33918  -0.33733  -0.33309
 Alpha  occ. eigenvalues --   -0.33234  -0.32568  -0.32110  -0.31531  -0.31398
 Alpha  occ. eigenvalues --   -0.31010  -0.29803  -0.26565  -0.25846
 Alpha virt. eigenvalues --    0.03477   0.04380   0.06670   0.07389   0.08601
 Alpha virt. eigenvalues --    0.09101   0.09349   0.10219   0.10342   0.12591
 Alpha virt. eigenvalues --    0.13497   0.13606   0.13832   0.14273   0.14793

 Mulliken charges:
               1
     1  N   -0.298194
     2  C    0.203847
     3  C    0.038604
     4  N   -0.238111
     5  C    0.146814
     6  H    0.027691
     7  N   -0.288438
     8  C    0.119396
     9  H    0.006446
    10  N   -0.275391
    11  C    0.231604
    12  C    0.078181
    13  N   -0.055252
    14  H    0.118148
    15  H    0.089454
    16  H    0.026573
    17  H    0.036918
    18  H   -0.016426
    19  N   -0.302314
    20  C    0.229041
    21  C    0.178930
    22  N   -0.112763
    23  H    0.118764
    24  H    0.119138
    25  N   -0.300669
    26  C    0.240100
    27  N   -0.133355
    28  H    0.119648
    29  C    0.180643
    30  O   -0.316671
    31  C   -0.002735
    32  N   -0.212512
    33  C    0.102023
    34  H    0.024341
    35  H    0.023124
    36  H    0.033375
    37  H    0.028377
    38  H    0.060354
    39  H    0.048222
    40  H    0.070392
    41  H    0.017180
    42  C   -0.086933
    43  O   -0.277885
    44  C    0.177352
    45  H    0.130799
    46  N   -0.124586
    47  O   -0.348599
    48  C    0.336491
    49  H    0.044127
    50  C    0.146138
    51  C    0.039018
    52  N   -0.268755
    53  H    0.036004
    54  H    0.042963
    55  H    0.029505
    56  H    0.125778
    57  H    0.120335
    58  N   -0.056327
    59  C    0.094717
    60  C    0.233896
    61  N   -0.278715
    62  H    0.038623
    63  C    0.157613
    64  N   -0.303345
    65  H    0.039515
    66  C    0.139951
    67  N   -0.257371
    68  C    0.041687
    69  C    0.177460
    70  N   -0.313953
 Sum of Mulliken charges =  -0.00000

 Dipole moment (field-independent basis, Debye):
    X=             -4.6376    Y=             -7.7982    Z=             -1.3588  Tot=              9.1742
 Quadrupole moment (field-independent basis, Debye-Ang):
   XX=           -144.4037   YY=           -248.1971   ZZ=           -240.2411
   XY=             -1.4548   XZ=             13.2992   YZ=             19.0176

 Normal termination of Gaussian 16 at Thu Jan 25 00:57:09 2018.
