 Gaussian 16, Revision A.03,
 Gaussian 16:  EM64L-G16RevA.03 25-Dec-2016

 ---------------------------------------
 #p wb97xd/cc-pvdz sp scf=(maxcycles=20)
 ---------------------------------------

 ------------------
 Base pair stacking
 ------------------
 Symbolic Z-matrix:
 Charge =  0 Multiplicity = 1

                         Standard orientation:
 ---------------------------------------------------------------------
 Center     Atomic      Atomic             Coordinates (Angstroms)
 Number     Number       Type             X           Y           Z
 ---------------------------------------------------------------------
      1          7           0        4.473218   -2.113381   -0.539258
      2          6           0        5.704624   -2.086609   -1.352220
      3          6           0        2.373600   -2.012690    0.107899
      4          7           0        3.114583   -2.317725    1.240427
      5          6           0        4.349865   -2.366175    0.805215
      6          1           0        5.218340   -2.584052    1.427479
      7          7           0        0.584711   -1.528798   -1.351090
      8          6           0        1.500618   -1.436611   -2.320730
      9          1           0        1.109357   -1.198299   -3.308852
     10          7           0        2.821083   -1.593883   -2.253340
     11          6           0        3.197322   -1.883714   -0.996813
     12          6           0        0.995140   -1.821729   -0.097771
     13          7           0        0.082360   -1.914178    0.871481
     14          1           0        0.340944   -2.128983    1.813925
     15          1           0       -0.890538   -1.771947    0.688728
     16          1           0        6.152127   -2.980059   -1.311372
     17          1           0        5.473880   -1.873547   -2.301161
     18          1           0        6.325843   -1.388047   -0.997106
     19          7           0        5.731567    1.042477    0.227690
     20          6           0        4.420189    1.296106   -0.094839
     21          6           0        6.882276    1.209687   -0.682585
     22          7           0        2.033762    2.319300   -2.401298
     23          1           0        1.042097    2.441378   -2.431777
     24          1           0        2.543181    2.534014   -3.235035
     25          7           0        3.966187    1.737132   -1.287913
     26          6           0        2.653512    1.887110   -1.292686
     27          7           0        1.845464    1.625752   -0.212751
     28          1           0        0.851703    1.768927   -0.307075
     29          6           0        2.290912    1.171245    1.024538
     30          8           0        1.477926    0.966023    1.934306
     31          6           0        3.699074    1.005340    1.045003
     32          7           0        4.540789    0.577778    2.062649
     33          6           0        5.733491    0.615813    1.533293
     34          1           0        6.652469    0.342214    2.052826
     35          1           0        7.346248    0.332414   -0.800640
     36          1           0        6.558219    1.536038   -1.569572
     37          1           0        7.520656    1.874872   -0.296832
     38          1           0       -4.052218    2.064988   -1.617256
     39          1           0       -3.954853    3.635093   -0.823557
     40          1           0       -2.541507    2.975059   -1.647083
     41          1           0       -4.260186    0.732103    3.000831
     42          6           0       -3.521017    1.056556    2.268307
     43          8           0       -1.663326    0.300914    3.535229
     44          6           0       -2.131558    0.837408    2.531375
     45          1           0       -0.291799    1.148336    1.690587
     46          7           0       -1.281436    1.285548    1.540568
     47          8           0       -0.805024    2.263660   -0.452805
     48          6           0       -1.632161    1.901408    0.365294
     49          1           0       -4.937681    1.844503    0.883377
     50          6           0       -3.894114    1.654654    1.130902
     51          6           0       -3.412635    2.731005   -1.057410
     52          7           0       -2.989918    2.077158    0.184172
     53          1           0       -6.975783   -0.475663   -3.451604
     54          1           0       -5.590116    0.384468   -3.404830
     55          1           0       -6.968830    1.025416   -2.811196
     56          1           0       -3.122144   -2.206915    2.649031
     57          1           0       -4.827420   -2.181792    2.610047
     58          7           0       -3.960463   -1.989649    2.148871
     59          6           0       -3.924962   -1.466903    0.921412
     60          6           0       -4.876568   -0.608136   -1.083256
     61          7           0       -3.697832   -0.360637   -1.678018
     62          1           0       -1.693975   -0.537709   -1.285838
     63          6           0       -2.690207   -0.706023   -0.879079
     64          7           0       -2.723704   -1.229733    0.350626
     65          1           0       -8.091436   -0.728412   -0.763280
     66          6           0       -7.012229   -0.794004   -0.621946
     67          7           0       -6.428664   -1.256406    0.456620
     68          6           0       -5.074364   -1.144175    0.177325
     69          6           0       -6.441527    0.182821   -2.921552
     70          7           0       -6.132977   -0.384110   -1.594385
 ---------------------------------------------------------------------

 SCF Done:  E(RwB97XD) =  -2048.75124474     A.U. after   15 cycles

 The electronic state is 1-A.
 Alpha  occ. eigenvalues --  -19.25209 -19.21574 -19.20816 -14.52461 -14.51679
 Alpha  occ. eigenvalues --  -14.49537 -14.49037 -14.47947 -14.47159 -14.47008
 Alpha  occ. eigenvalues --  -14.46774 -14.45253 -14.44496 -14.44377 -14.42820
 Alpha  occ. eigenvalues --  -14.42236 -14.41524 -14.41479 -14.41300 -14.40936
 Alpha  occ. eigenvalues --  -10.44777 -10.41456 -10.39903 -10.39594 -10.38501
 Alpha  occ. eigenvalues --  -10.37829 -10.37239 -10.36883 -10.36060 -10.35989
 Alpha  occ. eigenvalues --  -10.34871 -10.34186 -10.34095 -10.34004 -10.33957
 Alpha  occ. eigenvalues --  -10.33767 -10.33643 -10.32572 -10.31913 -10.31386
 Alpha  occ. eigenvalues --  -10.30192 -10.28929 -10.28566  -1.18759  -1.15175
 Alpha  occ. eigenvalues --   -1.13498  -1.12533  -1.11597  -1.11136  -1.09386
 Alpha  occ. eigenvalues --   -1.08785  -1.08497  -1.05601  -1.04822  -1.01822
 Alpha  occ. eigenvalues --   -1.00946  -1.00871  -0.99893  -0.98882  -0.97318
 Alpha  occ. eigenvalues --   -0.97115  -0.96900  -0.93268  -0.90262  -0.87626
 Alpha  occ. eigenvalues --   -0.85917  -0.84799  -0.84235  -0.83291  -0.82729
 Alpha  occ. eigenvalues --   -0.82659  -0.78149  -0.76993  -0.75061  -0.74911
 Alpha  occ. eigenvalues --   -0.73846  -0.73303  -0.72653  -0.71502  -0.70343
 Alpha  occ. eigenvalues --   -0.67666  -0.66768  -0.66725  -0.65864  -0.64745
 Alpha  occ. eigenvalues --   -0.64163  -0.63387  -0.63139  -0.62818  -0.62022
 Alpha  occ. eigenvalues --   -0.60779  -0.60561  -0.60244  -0.59590  -0.58953
 Alpha  occ. eigenvalues --   -0.58796  -0.58775  -0.58469  -0.56978  -0.55953
 Alpha  occ. eigenvalues --   -0.55763  -0.55538  -0.55282  -0.54507  -0.54401
 Alpha  occ. eigenvalues --   -0.54234  -0.53658  -0.53454  -0.53182  -0.52821
 Alpha  occ. eigenvalues --   -0.52682  -0.52059  -0.51586  -0.50758  -0.50718
 Alpha  occ. eigenvalues --   -0.50489  -0.50142  -0.49493  -0.49335  -0.49220
 Alpha  occ. eigenvalues --   -0.48877  -0.48696  -0.48319  -0.47392  -0.47293
 Alpha  occ. eigenvalues --   -0.47241  -0.46046  -0.45143  -0.44909  -0.42975
 Alpha  occ. eigenvalues --   -0.41437  -0.40681  -0.39002  -0.37852  -0.37751
 Alpha  occ. eigenvalues --   -0.37532  -0.37496  -0.37333  -0.35585  -0.34730
 Alpha  occ. eigenvalues --   -0.34450  -0.34215  -0.33887  -0.33757  -0.33157
 Alpha  occ. eigenvalues --   -0.32859  -0.32661  -0.32092  -0.31623  -0.31310
 Alpha  occ. eigenvalues --   -0.30867  -0.29513  -0.26790  -0.25338
 Alpha virt. eigenvalues --    0.03807   0.04067   0.06548   0.07518   0.08604
 Alpha virt. eigenvalues --    0.09229   0.09545   0.10412   0.10547   0.12216
 Alpha virt. eigenvalues --    0.13149   0.13679   0.14129   0.14605   0.14700

 Mulliken charges:
               1
     1  N   -0.301310
     2  C    0.198846
     3  C    0.036450
     4  N   -0.235990
     5  C    0.143686
     6  H    0.025386
     7  N   -0.291242
     8  C    0.123872
     9  H    0.007700
    10  N   -0.278977
    11  C    0.238573
    12  C    0.079600
    13  N   -0.050120
    14  H    0.117784
    15  H    0.088487
    16  H    0.027733
    17  H    0.037506
    18  H   -0.011680
    19  N   -0.302236
    20  C    0.243340
    21  C    0.181028
    22  N   -0.118235
    23  H    0.118640
    24  H    0.119802
    25  N   -0.303168
    26  C    0.244051
    27  N   -0.137257
    28  H    0.119825
    29  C    0.182750
    30  O   -0.318682
    31  C   -0.008759
    32  N   -0.209625
    33  C    0.100434
    34  H    0.022822
    35  H    0.016639
    36  H    0.033952
    37  H    0.027956
    38  H    0.053415
    39  H    0.051785
    40  H    0.073017
    41  H    0.017016
    42  C   -0.097161
    43  O   -0.279438
    44  C    0.179830
    45  H    0.129444
    46  N   -0.117992
    47  O   -0.348835
    48  C    0.328049
    49  H    0.043993
    50  C    0.158638
    51  C    0.046284
    52  N   -0.267668
    53  H    0.036719
    54  H    0.043355
    55  H    0.028125
    56  H    0.126570
    57  H    0.119233
    58  N   -0.048440
    59  C    0.081190
    60  C    0.224401
    61  N   -0.271855
    62  H    0.035704
    63  C    0.158899
    64  N   -0.304025
    65  H    0.038566
    66  C    0.136140
    67  N   -0.256609
    68  C    0.047160
    69  C    0.176894
    70  N   -0.311984
 Sum of Mulliken charges =  -0.00000

 Dipole moment (field-independent basis, Debye):
    X=             -4.4779    Y=              2.6584    Z=             -7.4208  Tot=              9.0657
 Quadrupole moment (field-independent basis, Debye-Ang):
   XX=           -145.1422   YY=           -235.6582   ZZ=           -251.5848
   XY=            -11.8712   XZ=              0.8971   YZ=            -17.5724

 Normal termination of Gaussian 16 at Fri Jan 26 13:15:59 2018.
