 Gaussian 16, Revision A.03,
 Gaussian 16:  EM64L-G16RevA.03 25-Dec-2016

 ---------------------------------------
 #p wb97xd/cc-pvdz sp scf=(maxcycles=20)
 ---------------------------------------

 ------------------
 Base pair stacking
 ------------------
 Symbolic Z-matrix:
 Charge =  0 Multiplicity = 1

                         Standard orientation:
 ---------------------------------------------------------------------
 Center     Atomic      Atomic             Coordinates (Angstroms)
 Number     Number       Type             X           Y           Z
 ---------------------------------------------------------------------
      1          7           0        4.757326   -2.280454   -0.244197
      2          6           0        5.979864   -2.455901   -1.052055
      3          6           0        2.664194   -2.025671    0.381262
      4          7           0        3.418839   -2.033881    1.545382
      5          6           0        4.649673   -2.187055    1.121975
      6          1           0        5.525909   -2.239012    1.768856
      7          7           0        0.857253   -1.929281   -1.131559
      8          6           0        1.762286   -2.081686   -2.103804
      9          1           0        1.359226   -2.100765   -3.115466
     10          7           0        3.084240   -2.213445   -2.014434
     11          6           0        3.475399   -2.176705   -0.729884
     12          6           0        1.282599   -1.896251    0.150267
     13          7           0        0.380702   -1.744189    1.122192
     14          1           0        0.650473   -1.714205    2.085281
     15          1           0       -0.594848   -1.655104    0.920900
     16          1           0        6.432674   -3.309126   -0.792923
     17          1           0        5.737861   -2.489130   -2.021312
     18          1           0        6.600976   -1.688809   -0.891432
     19          7           0        5.456119    1.372079    0.116047
     20          6           0        4.143323    1.590143   -0.226115
     21          6           0        6.615819    1.576209   -0.775094
     22          7           0        1.765474    2.556841   -2.565568
     23          1           0        0.771352    2.651012   -2.611239
     24          1           0        2.281665    2.789967   -3.390140
     25          7           0        3.695844    2.024029   -1.424262
     26          6           0        2.379694    2.136892   -1.449199
     27          7           0        1.562469    1.847494   -0.383408
     28          1           0        0.566654    1.963001   -0.492857
     29          6           0        2.001069    1.399675    0.858750
     30          8           0        1.180005    1.167082    1.754568
     31          6           0        3.412874    1.273515    0.900828
     32          7           0        4.250241    0.864893    1.929777
     33          6           0        5.449574    0.939222    1.419605
     34          1           0        6.367634    0.689141    1.952421
     35          1           0        7.106250    0.712992   -0.889691
     36          1           0        6.296646    1.897647   -1.665637
     37          1           0        7.228940    2.257265   -0.376277
     38          1           0       -4.322451    2.126844   -1.879378
     39          1           0       -4.282111    3.695146   -1.077222
     40          1           0       -2.837849    3.079364   -1.881148
     41          1           0       -4.565251    0.765893    2.728809
     42          6           0       -3.824136    1.114704    2.009563
     43          8           0       -1.965961    0.405625    3.302432
     44          6           0       -2.433334    0.933605    2.293678
     45          1           0       -0.590118    1.300520    1.483603
     46          7           0       -1.580758    1.410456    1.318506
     47          8           0       -1.100917    2.411442   -0.662650
     48          6           0       -1.930236    2.021936    0.140582
     49          1           0       -5.240571    1.869111    0.605866
     50          6           0       -4.196063    1.707615    0.869072
     51          6           0       -3.710884    2.807900   -1.306482
     52          7           0       -3.289412    2.160147   -0.061273
     53          1           0       -6.730819   -1.458670   -3.341049
     54          1           0       -5.349475   -0.610794   -3.528405
     55          1           0       -6.725305    0.155287   -3.099099
     56          1           0       -2.803065   -1.588584    2.953505
     57          1           0       -4.508764   -1.578587    2.929359
     58          7           0       -3.647829   -1.506409    2.424579
     59          6           0       -3.628269   -1.309335    1.104753
     60          6           0       -4.605842   -0.985258   -1.040259
     61          7           0       -3.434869   -0.892301   -1.691881
     62          1           0       -1.426014   -0.959689   -1.291189
     63          6           0       -2.416924   -1.022839   -0.843563
     64          7           0       -2.434463   -1.220283    0.478668
     65          1           0       -7.816404   -1.029614   -0.662800
     66          6           0       -6.735422   -1.054676   -0.522120
     67          7           0       -6.137875   -1.229195    0.631217
     68          6           0       -4.787263   -1.187298    0.316867
     69          6           0       -6.194586   -0.686560   -3.000031
     70          7           0       -5.868825   -0.900413   -1.576601
 ---------------------------------------------------------------------

 SCF Done:  E(RwB97XD) =  -2048.72970193     A.U. after   15 cycles

 The electronic state is 1-A.
 Alpha  occ. eigenvalues --  -19.25552 -19.22149 -19.20966 -14.52103 -14.52079
 Alpha  occ. eigenvalues --  -14.49335 -14.48851 -14.47554 -14.47168 -14.46922
 Alpha  occ. eigenvalues --  -14.46799 -14.44931 -14.43976 -14.43805 -14.42320
 Alpha  occ. eigenvalues --  -14.42271 -14.41273 -14.41130 -14.41048 -14.40542
 Alpha  occ. eigenvalues --  -10.45117 -10.41545 -10.40149 -10.39231 -10.38588
 Alpha  occ. eigenvalues --  -10.37490 -10.37137 -10.36664 -10.35585 -10.35508
 Alpha  occ. eigenvalues --  -10.34899 -10.34780 -10.33953 -10.33750 -10.33672
 Alpha  occ. eigenvalues --  -10.33482 -10.33297 -10.32032 -10.31686 -10.31361
 Alpha  occ. eigenvalues --  -10.30470 -10.28614 -10.28508  -1.19129  -1.14763
 Alpha  occ. eigenvalues --   -1.13550  -1.13309  -1.11388  -1.11047  -1.09073
 Alpha  occ. eigenvalues --   -1.08880  -1.08725  -1.05234  -1.04249  -1.02322
 Alpha  occ. eigenvalues --   -1.00545  -1.00453  -1.00025  -0.98890  -0.97146
 Alpha  occ. eigenvalues --   -0.96895  -0.96369  -0.92879  -0.90723  -0.87163
 Alpha  occ. eigenvalues --   -0.85514  -0.84638  -0.84043  -0.83361  -0.83072
 Alpha  occ. eigenvalues --   -0.82488  -0.78606  -0.76491  -0.75046  -0.74482
 Alpha  occ. eigenvalues --   -0.73934  -0.73071  -0.73009  -0.71183  -0.69801
 Alpha  occ. eigenvalues --   -0.67732  -0.66528  -0.66395  -0.66036  -0.64717
 Alpha  occ. eigenvalues --   -0.63918  -0.63600  -0.62898  -0.62800  -0.62097
 Alpha  occ. eigenvalues --   -0.60449  -0.60354  -0.59912  -0.59217  -0.59106
 Alpha  occ. eigenvalues --   -0.58793  -0.58632  -0.57845  -0.56679  -0.56146
 Alpha  occ. eigenvalues --   -0.55979  -0.55524  -0.54896  -0.54819  -0.54377
 Alpha  occ. eigenvalues --   -0.54077  -0.53873  -0.53341  -0.53261  -0.52758
 Alpha  occ. eigenvalues --   -0.52334  -0.52107  -0.51895  -0.50944  -0.50620
 Alpha  occ. eigenvalues --   -0.50406  -0.49967  -0.49677  -0.49291  -0.49128
 Alpha  occ. eigenvalues --   -0.48974  -0.48734  -0.48350  -0.47574  -0.47105
 Alpha  occ. eigenvalues --   -0.46915  -0.46209  -0.44882  -0.44341  -0.43224
 Alpha  occ. eigenvalues --   -0.41185  -0.40292  -0.39289  -0.37817  -0.37659
 Alpha  occ. eigenvalues --   -0.37550  -0.37073  -0.36978  -0.35675  -0.34656
 Alpha  occ. eigenvalues --   -0.34151  -0.33940  -0.33767  -0.33575  -0.33397
 Alpha  occ. eigenvalues --   -0.33033  -0.32422  -0.31880  -0.31575  -0.31049
 Alpha  occ. eigenvalues --   -0.30507  -0.29002  -0.26795  -0.24897
 Alpha virt. eigenvalues --    0.02970   0.04809   0.06494   0.07382   0.08693
 Alpha virt. eigenvalues --    0.09508   0.09674   0.10928   0.11085   0.11727
 Alpha virt. eigenvalues --    0.12649   0.13787   0.14210   0.14297   0.15159

 Mulliken charges:
               1
     1  N   -0.307363
     2  C    0.184467
     3  C    0.032852
     4  N   -0.230234
     5  C    0.137574
     6  H    0.022970
     7  N   -0.295444
     8  C    0.130116
     9  H    0.010471
    10  N   -0.287132
    11  C    0.246207
    12  C    0.080491
    13  N   -0.044154
    14  H    0.119136
    15  H    0.088296
    16  H    0.026936
    17  H    0.036050
    18  H    0.010434
    19  N   -0.305448
    20  C    0.257628
    21  C    0.181833
    22  N   -0.123800
    23  H    0.118064
    24  H    0.119961
    25  N   -0.311655
    26  C    0.251665
    27  N   -0.146917
    28  H    0.120808
    29  C    0.190859
    30  O   -0.323630
    31  C   -0.016218
    32  N   -0.206363
    33  C    0.105624
    34  H    0.020716
    35  H    0.015566
    36  H    0.033029
    37  H    0.027568
    38  H    0.053696
    39  H    0.056950
    40  H    0.075364
    41  H    0.016765
    42  C   -0.102946
    43  O   -0.290451
    44  C    0.182324
    45  H    0.126870
    46  N   -0.107069
    47  O   -0.352059
    48  C    0.338742
    49  H    0.045265
    50  C    0.180784
    51  C    0.046191
    52  N   -0.277622
    53  H    0.035355
    54  H    0.041349
    55  H    0.026228
    56  H    0.128406
    57  H    0.114467
    58  N   -0.023223
    59  C    0.042069
    60  C    0.229980
    61  N   -0.269675
    62  H    0.031313
    63  C    0.158816
    64  N   -0.297732
    65  H    0.036138
    66  C    0.128973
    67  N   -0.256486
    68  C    0.042861
    69  C    0.178228
    70  N   -0.310833
 Sum of Mulliken charges =  -0.00000

 Dipole moment (field-independent basis, Debye):
    X=             -4.2173    Y=              3.2441    Z=             -7.1861  Tot=              8.9415
 Quadrupole moment (field-independent basis, Debye-Ang):
   XX=           -146.0229   YY=           -238.7863   ZZ=           -245.4544
   XY=            -10.0934   XZ=              6.0023   YZ=            -17.1636

 Normal termination of Gaussian 16 at Thu Jan 25 17:15:48 2018.
