 Gaussian 16, Revision A.03,
 Gaussian 16:  EM64L-G16RevA.03 25-Dec-2016

 ---------------------------------------
 #p wb97xd/cc-pvdz sp scf=(maxcycles=20)
 ---------------------------------------

 ------------------
 Base pair stacking
 ------------------
 Symbolic Z-matrix:
 Charge =  0 Multiplicity = 1

                         Standard orientation:
 ---------------------------------------------------------------------
 Center     Atomic      Atomic             Coordinates (Angstroms)
 Number     Number       Type             X           Y           Z
 ---------------------------------------------------------------------
      1          7           0        5.386674   -1.504093   -0.823018
      2          6           0        6.637273   -1.093498   -1.490420
      3          6           0        3.265966   -1.799708   -0.320508
      4          7           0        3.993005   -2.440252    0.672394
      5          6           0        5.241560   -2.236518    0.329903
      6          1           0        6.104785   -2.601335    0.887298
      7          7           0        1.490672   -0.951237   -1.621038
      8          6           0        2.426591   -0.446087   -2.431277
      9          1           0        2.048804    0.105655   -3.290988
     10          7           0        3.752874   -0.519824   -2.339390
     11          6           0        4.111333   -1.218055   -1.249253
     12          6           0        1.883555   -1.648672   -0.532789
     13          7           0        0.950793   -2.153695    0.277201
     14          1           0        1.195922   -2.676746    1.094239
     15          1           0       -0.024289   -2.026519    0.095047
     16          1           0        7.163286   -1.905310   -1.744279
     17          1           0        6.420222   -0.567681   -2.312323
     18          1           0        7.179313   -0.528224   -0.868607
     19          7           0        4.858718    1.322966    0.774019
     20          6           0        3.541616    1.564876    0.466193
     21          6           0        6.019526    1.819629    0.008153
     22          7           0        1.152050    3.026669   -1.586826
     23          1           0        0.155141    3.082814   -1.634323
     24          1           0        1.667770    3.502451   -2.299834
     25          7           0        3.090213    2.291087   -0.579220
     26          6           0        1.770451    2.344267   -0.611217
     27          7           0        0.953440    1.733676    0.309207
     28          1           0       -0.045313    1.827826    0.206232
     29          6           0        1.396031    0.981515    1.392821
     30          8           0        0.574786    0.472206    2.165414
     31          6           0        2.811744    0.915348    1.440465
     32          7           0        3.653695    0.278488    2.341808
     33          6           0        4.855114    0.547233    1.907537
     34          1           0        5.776856    0.203338    2.378068
     35          1           0        6.557162    1.045721   -0.324745
     36          1           0        5.697482    2.359016   -0.768771
     37          1           0        6.589079    2.392225    0.596849
     38          1           0       -4.914074    2.137424   -1.226244
     39          1           0       -4.970136    3.423392   -0.023000
     40          1           0       -3.482699    3.122299   -0.922018
     41          1           0       -5.155215   -0.452759    2.820897
     42          6           0       -4.422748    0.115603    2.247589
     43          8           0       -2.549585   -0.834440    3.350235
     44          6           0       -3.028833   -0.071118    2.512105
     45          1           0       -1.195526    0.591656    1.889182
     46          7           0       -2.187950    0.696070    1.731347
     47          8           0       -1.731654    2.226583    0.116867
     48          6           0       -2.551311    1.591816    0.757092
     49          1           0       -5.855556    1.160583    1.064003
     50          6           0       -4.808115    0.982119    1.303540
     51          6           0       -4.348774    2.661875   -0.470296
     52          7           0       -3.912640    1.716144    0.560778
     53          1           0       -6.059024    0.235874   -3.688667
     54          1           0       -4.760577    1.119305   -3.246316
     55          1           0       -6.211658    1.397758   -2.552826
     56          1           0       -2.271686   -3.306523    1.619158
     57          1           0       -3.969756   -3.394055    1.481293
     58          7           0       -3.108979   -2.984436    1.177173
     59          6           0       -3.080047   -2.050263    0.224457
     60          6           0       -4.037998   -0.593932   -1.395156
     61          7           0       -2.867495   -0.061502   -1.783549
     62          1           0       -0.870283   -0.221562   -1.352072
     63          6           0       -1.860069   -0.598746   -1.098442
     64          7           0       -1.886986   -1.534487   -0.143856
     65          1           0       -7.237222   -1.057631   -1.348939
     66          6           0       -6.161971   -1.090788   -1.170938
     67          7           0       -5.575302   -1.869421   -0.295020
     68          6           0       -4.228340   -1.564391   -0.426915
     69          6           0       -5.605777    0.693983   -2.924017
     70          7           0       -5.291618   -0.292251   -1.872038
 ---------------------------------------------------------------------

 SCF Done:  E(RwB97XD) =  -2048.74107437     A.U. after   15 cycles

 The electronic state is 1-A.
 Alpha  occ. eigenvalues --  -19.25257 -19.21560 -19.20506 -14.52359 -14.51904
 Alpha  occ. eigenvalues --  -14.49450 -14.48964 -14.47283 -14.47239 -14.46701
 Alpha  occ. eigenvalues --  -14.46555 -14.45002 -14.43986 -14.43802 -14.42886
 Alpha  occ. eigenvalues --  -14.41871 -14.41856 -14.41478 -14.40974 -14.40885
 Alpha  occ. eigenvalues --  -10.44887 -10.41056 -10.39630 -10.39306 -10.38158
 Alpha  occ. eigenvalues --  -10.37676 -10.37103 -10.36845 -10.36113 -10.35475
 Alpha  occ. eigenvalues --  -10.34855 -10.34597 -10.34351 -10.34205 -10.33988
 Alpha  occ. eigenvalues --  -10.33733 -10.33455 -10.32178 -10.31982 -10.31215
 Alpha  occ. eigenvalues --  -10.30388 -10.29131 -10.28080  -1.18892  -1.14977
 Alpha  occ. eigenvalues --   -1.13133  -1.12581  -1.12004  -1.10638  -1.08811
 Alpha  occ. eigenvalues --   -1.08763  -1.08450  -1.05716  -1.04257  -1.02021
 Alpha  occ. eigenvalues --   -1.01064  -1.00686  -0.99615  -0.98452  -0.97672
 Alpha  occ. eigenvalues --   -0.96643  -0.96388  -0.93362  -0.90455  -0.87409
 Alpha  occ. eigenvalues --   -0.85946  -0.84866  -0.84087  -0.83356  -0.83211
 Alpha  occ. eigenvalues --   -0.82519  -0.78355  -0.76619  -0.74657  -0.74457
 Alpha  occ. eigenvalues --   -0.73594  -0.73496  -0.72846  -0.71693  -0.70000
 Alpha  occ. eigenvalues --   -0.67369  -0.66965  -0.66361  -0.66051  -0.64395
 Alpha  occ. eigenvalues --   -0.63852  -0.63595  -0.63338  -0.62531  -0.61698
 Alpha  occ. eigenvalues --   -0.61515  -0.60954  -0.60133  -0.59241  -0.59207
 Alpha  occ. eigenvalues --   -0.59003  -0.58373  -0.58266  -0.57240  -0.56107
 Alpha  occ. eigenvalues --   -0.55638  -0.55383  -0.55308  -0.54777  -0.54083
 Alpha  occ. eigenvalues --   -0.54070  -0.53515  -0.53471  -0.52957  -0.52626
 Alpha  occ. eigenvalues --   -0.52508  -0.52305  -0.51663  -0.51261  -0.50912
 Alpha  occ. eigenvalues --   -0.50111  -0.49985  -0.49395  -0.49232  -0.49016
 Alpha  occ. eigenvalues --   -0.48745  -0.48235  -0.47980  -0.47839  -0.47602
 Alpha  occ. eigenvalues --   -0.47184  -0.46212  -0.44959  -0.43900  -0.43177
 Alpha  occ. eigenvalues --   -0.41590  -0.40385  -0.38944  -0.37736  -0.37618
 Alpha  occ. eigenvalues --   -0.37209  -0.37089  -0.36930  -0.35904  -0.34738
 Alpha  occ. eigenvalues --   -0.34335  -0.34058  -0.33795  -0.33551  -0.32892
 Alpha  occ. eigenvalues --   -0.32537  -0.32385  -0.31816  -0.31411  -0.31245
 Alpha  occ. eigenvalues --   -0.30918  -0.29271  -0.27187  -0.24581
 Alpha virt. eigenvalues --    0.02932   0.04710   0.06770   0.07304   0.08750
 Alpha virt. eigenvalues --    0.09383   0.09961   0.10742   0.10857   0.12129
 Alpha virt. eigenvalues --    0.12644   0.13959   0.14439   0.14702   0.15258

 Mulliken charges:
               1
     1  N   -0.303960
     2  C    0.185606
     3  C    0.051687
     4  N   -0.234539
     5  C    0.119031
     6  H    0.024858
     7  N   -0.286070
     8  C    0.134372
     9  H    0.008518
    10  N   -0.274745
    11  C    0.231019
    12  C    0.076786
    13  N   -0.040861
    14  H    0.113771
    15  H    0.087061
    16  H    0.025326
    17  H    0.033988
    18  H    0.027786
    19  N   -0.296231
    20  C    0.240080
    21  C    0.201274
    22  N   -0.120604
    23  H    0.117764
    24  H    0.118572
    25  N   -0.295658
    26  C    0.231166
    27  N   -0.132638
    28  H    0.118269
    29  C    0.175481
    30  O   -0.325278
    31  C   -0.007788
    32  N   -0.212280
    33  C    0.119236
    34  H    0.018828
    35  H   -0.027452
    36  H    0.037818
    37  H    0.027249
    38  H    0.005779
    39  H    0.057232
    40  H    0.080228
    41  H    0.023134
    42  C   -0.083614
    43  O   -0.272919
    44  C    0.157086
    45  H    0.129427
    46  N   -0.104675
    47  O   -0.346658
    48  C    0.331074
    49  H    0.040291
    50  C    0.160201
    51  C    0.061100
    52  N   -0.268108
    53  H    0.033052
    54  H    0.041961
    55  H    0.033695
    56  H    0.123507
    57  H    0.117855
    58  N   -0.037858
    59  C    0.079391
    60  C    0.216618
    61  N   -0.266092
    62  H    0.022569
    63  C    0.156755
    64  N   -0.291594
    65  H    0.035697
    66  C    0.120038
    67  N   -0.248074
    68  C    0.046692
    69  C    0.188498
    70  N   -0.309730
 Sum of Mulliken charges =  -0.00000

 Dipole moment (field-independent basis, Debye):
    X=             -4.1992    Y=              3.9705    Z=             -6.6048  Tot=              8.7762
 Quadrupole moment (field-independent basis, Debye-Ang):
   XX=           -145.9001   YY=           -227.4413   ZZ=           -260.0162
   XY=            -10.2876   XZ=              9.3724   YZ=            -11.3652

 Normal termination of Gaussian 16 at Wed Jan 24 10:39:19 2018.
