 Gaussian 16, Revision A.03,
 Gaussian 16:  EM64L-G16RevA.03 25-Dec-2016

 ---------------------------------------
 #p wb97xd/cc-pvdz sp scf=(maxcycles=20)
 ---------------------------------------

 ------------------
 Base pair stacking
 ------------------
 Symbolic Z-matrix:
 Charge =  0 Multiplicity = 1

                         Standard orientation:
 ---------------------------------------------------------------------
 Center     Atomic      Atomic             Coordinates (Angstroms)
 Number     Number       Type             X           Y           Z
 ---------------------------------------------------------------------
      1          7           0       -6.280948   -1.301211    0.340670
      2          6           0       -7.534104   -1.057910    1.081206
      3          6           0       -4.160830   -1.556300   -0.185966
      4          7           0       -4.878521   -1.760473   -1.355566
      5          6           0       -6.127083   -1.598626   -0.991475
      6          1           0       -6.984089   -1.685500   -1.660002
      7          7           0       -2.399553   -1.339046    1.367622
      8          6           0       -3.339819   -1.079178    2.281917
      9          1           0       -2.969595   -0.887039    3.288039
     10          7           0       -4.662545   -1.021305    2.140643
     11          6           0       -5.011678   -1.272298    0.868032
     12          6           0       -2.783041   -1.587463    0.096289
     13          7           0       -1.845920   -1.847073   -0.817814
     14          1           0       -2.084106   -2.036622   -1.770994
     15          1           0       -0.874348   -1.860945   -0.581147
     16          1           0       -8.118580   -1.867490    1.025112
     17          1           0       -7.323970   -0.865423    2.039289
     18          1           0       -8.012514   -0.275294    0.682920
     19          7           0       -3.907442    2.072313   -0.668548
     20          6           0       -2.585062    2.166188   -0.307255
     21          6           0       -5.036409    2.688852    0.056723
     22          7           0       -0.133339    3.344148    1.852195
     23          1           0        0.861045    3.290131    1.939004
     24          1           0       -0.621792    3.869380    2.549521
     25          7           0       -2.098782    2.832066    0.762412
     26          6           0       -0.783454    2.739744    0.846243
     27          7           0       -0.002281    2.048664   -0.048010
     28          1           0        0.995879    2.031895    0.094688
     29          6           0       -0.481139    1.356271   -1.155769
     30          8           0        0.309464    0.764510   -1.901094
     31          6           0       -1.892555    1.446319   -1.259107
     32          7           0       -2.762676    0.911286   -2.199070
     33          6           0       -3.943741    1.307765   -1.809067
     34          1           0       -4.878154    1.070069   -2.318628
     35          1           0       -5.668391    1.976691    0.360407
     36          1           0       -4.688379    3.184874    0.851145
     37          1           0       -5.515939    3.324111   -0.547692
     38          1           0        5.808393    1.796032    1.718521
     39          1           0        6.052809    3.075318    0.531791
     40          1           0        4.506757    2.934033    1.369121
     41          1           0        5.925180   -0.780399   -2.342880
     42          6           0        5.237144   -0.138483   -1.792611
     43          8           0        3.316553   -0.870284   -2.977054
     44          6           0        3.842802   -0.169328   -2.113045
     45          1           0        2.069802    0.687065   -1.555018
     46          7           0        3.060628    0.680859   -1.357634
     47          8           0        2.710850    2.242419    0.253686
     48          6           0        3.480863    1.525326   -0.360743
     49          1           0        6.727566    0.735571   -0.543416
     50          6           0        5.677253    0.674715   -0.825340
     51          6           0        5.334468    2.383987    0.946656
     52          7           0        4.838725    1.498166   -0.110371
     53          1           0        5.104900   -1.484072    3.886452
     54          1           0        3.882959   -0.411508    3.750197
     55          1           0        5.378254   -0.015450    3.229297
     56          1           0        1.360242   -2.693247   -2.404882
     57          1           0        3.041993   -2.944555   -2.268329
     58          7           0        2.194113   -2.604623   -1.859954
     59          6           0        2.177287   -2.057606   -0.642729
     60          6           0        3.145122   -1.323192    1.403166
     61          7           0        1.991849   -0.875240    1.926343
     62          1           0        0.010502   -0.732701    1.421817
     63          6           0        0.986636   -1.068986    1.074923
     64          7           0        1.001456   -1.616682   -0.144665
     65          1           0        6.309825   -1.970548    1.269756
     66          6           0        5.243786   -1.862956    1.067454
     67          7           0        4.652486   -2.246825   -0.037400
     68          6           0        3.321462   -1.910372    0.162338
     69          6           0        4.715194   -0.758746    3.318979
     70          7           0        4.391351   -1.295577    1.982960
 ---------------------------------------------------------------------

 SCF Done:  E(RwB97XD) =  -2048.73216495     A.U. after   15 cycles

 The electronic state is 1-A.
 Alpha  occ. eigenvalues --  -19.25577 -19.22268 -19.20802 -14.52132 -14.51247
 Alpha  occ. eigenvalues --  -14.49644 -14.48769 -14.47569 -14.47024 -14.46725
 Alpha  occ. eigenvalues --  -14.45321 -14.43951 -14.42774 -14.42488 -14.42428
 Alpha  occ. eigenvalues --  -14.42249 -14.42050 -14.41484 -14.40827 -14.40713
 Alpha  occ. eigenvalues --  -10.45217 -10.41276 -10.39872 -10.38344 -10.37776
 Alpha  occ. eigenvalues --  -10.36919 -10.36506 -10.35932 -10.35724 -10.35465
 Alpha  occ. eigenvalues --  -10.34911 -10.34375 -10.34370 -10.34127 -10.33628
 Alpha  occ. eigenvalues --  -10.33289 -10.33230 -10.31809 -10.31035 -10.30897
 Alpha  occ. eigenvalues --  -10.30553 -10.29258 -10.28147  -1.19188  -1.13919
 Alpha  occ. eigenvalues --   -1.13354  -1.13295  -1.12197  -1.10635  -1.09110
 Alpha  occ. eigenvalues --   -1.08658  -1.07342  -1.05560  -1.02917  -1.02390
 Alpha  occ. eigenvalues --   -1.00940  -0.99813  -0.99522  -0.98584  -0.97710
 Alpha  occ. eigenvalues --   -0.96596  -0.95026  -0.93150  -0.90558  -0.86283
 Alpha  occ. eigenvalues --   -0.84816  -0.84699  -0.84121  -0.83625  -0.83068
 Alpha  occ. eigenvalues --   -0.82512  -0.78544  -0.75438  -0.74633  -0.73691
 Alpha  occ. eigenvalues --   -0.73544  -0.73263  -0.73139  -0.71677  -0.68780
 Alpha  occ. eigenvalues --   -0.67400  -0.66917  -0.66305  -0.65112  -0.64364
 Alpha  occ. eigenvalues --   -0.63705  -0.63302  -0.62647  -0.62532  -0.61756
 Alpha  occ. eigenvalues --   -0.60760  -0.60470  -0.59273  -0.58949  -0.58410
 Alpha  occ. eigenvalues --   -0.58060  -0.57960  -0.57526  -0.57045  -0.56454
 Alpha  occ. eigenvalues --   -0.55860  -0.55741  -0.55095  -0.54296  -0.54056
 Alpha  occ. eigenvalues --   -0.53715  -0.53547  -0.52925  -0.52617  -0.52419
 Alpha  occ. eigenvalues --   -0.52251  -0.51664  -0.51519  -0.51403  -0.50824
 Alpha  occ. eigenvalues --   -0.50332  -0.49691  -0.49561  -0.49089  -0.48892
 Alpha  occ. eigenvalues --   -0.48505  -0.48351  -0.47814  -0.47708  -0.47544
 Alpha  occ. eigenvalues --   -0.47487  -0.45803  -0.45480  -0.43187  -0.42286
 Alpha  occ. eigenvalues --   -0.41711  -0.39359  -0.39261  -0.37818  -0.37357
 Alpha  occ. eigenvalues --   -0.37220  -0.37189  -0.36226  -0.35748  -0.34408
 Alpha  occ. eigenvalues --   -0.34156  -0.34078  -0.33586  -0.33342  -0.32851
 Alpha  occ. eigenvalues --   -0.32680  -0.32302  -0.31960  -0.31620  -0.30933
 Alpha  occ. eigenvalues --   -0.30337  -0.27441  -0.26337  -0.25451
 Alpha virt. eigenvalues --    0.02964   0.05704   0.07260   0.07592   0.08951
 Alpha virt. eigenvalues --    0.09771   0.10183   0.10409   0.10947   0.12391
 Alpha virt. eigenvalues --    0.13225   0.13790   0.13852   0.14664   0.14876

 Mulliken charges:
               1
     1  N   -0.310553
     2  C    0.179883
     3  C    0.032869
     4  N   -0.244104
     5  C    0.118082
     6  H    0.026830
     7  N   -0.288472
     8  C    0.138630
     9  H    0.015066
    10  N   -0.290182
    11  C    0.239531
    12  C    0.094954
    13  N   -0.038231
    14  H    0.112642
    15  H    0.093736
    16  H    0.028879
    17  H    0.036638
    18  H    0.021860
    19  N   -0.306609
    20  C    0.257444
    21  C    0.184012
    22  N   -0.123811
    23  H    0.116703
    24  H    0.119057
    25  N   -0.309649
    26  C    0.246159
    27  N   -0.148046
    28  H    0.121433
    29  C    0.182183
    30  O   -0.328072
    31  C   -0.016867
    32  N   -0.231416
    33  C    0.138346
    34  H    0.023767
    35  H    0.022402
    36  H    0.030640
    37  H    0.022766
    38  H    0.048041
    39  H    0.061861
    40  H    0.076310
    41  H    0.022693
    42  C   -0.045632
    43  O   -0.280041
    44  C    0.154828
    45  H    0.135708
    46  N   -0.124350
    47  O   -0.349660
    48  C    0.348251
    49  H    0.038317
    50  C    0.150003
    51  C    0.041586
    52  N   -0.285797
    53  H    0.032970
    54  H    0.041414
    55  H    0.013210
    56  H    0.116443
    57  H    0.116331
    58  N   -0.001500
    59  C    0.090766
    60  C    0.236429
    61  N   -0.275455
    62  H    0.028397
    63  C    0.155453
    64  N   -0.302968
    65  H    0.026172
    66  C    0.123230
    67  N   -0.242763
    68  C    0.001318
    69  C    0.181937
    70  N   -0.302004
 Sum of Mulliken charges =  -0.00000

 Dipole moment (field-independent basis, Debye):
    X=              4.1233    Y=              3.9600    Z=              5.8424  Tot=              8.1741
 Quadrupole moment (field-independent basis, Debye-Ang):
   XX=           -144.9058   YY=           -232.4366   ZZ=           -248.8309
   XY=              3.0250   XZ=             20.6768   YZ=             13.3244

 Normal termination of Gaussian 16 at Thu Jan 25 16:12:24 2018.
