 Gaussian 16, Revision A.03,
 Gaussian 16:  EM64L-G16RevA.03 25-Dec-2016

 ---------------------------------------
 #p wb97xd/cc-pvdz sp scf=(maxcycles=20)
 ---------------------------------------

 ------------------
 Base pair stacking
 ------------------
 Symbolic Z-matrix:
 Charge =  0 Multiplicity = 1

                         Standard orientation:
 ---------------------------------------------------------------------
 Center     Atomic      Atomic             Coordinates (Angstroms)
 Number     Number       Type             X           Y           Z
 ---------------------------------------------------------------------
      1          7           0       -6.819012   -0.815761    0.350031
      2          6           0       -8.063624   -0.314363    0.964483
      3          6           0       -4.712054   -1.317555   -0.032363
      4          7           0       -5.427720   -1.790749   -1.122596
      5          6           0       -6.668449   -1.469502   -0.848592
      6          1           0       -7.521726   -1.687181   -1.491599
      7          7           0       -2.958098   -0.784470    1.451701
      8          6           0       -3.891306   -0.237154    2.237281
      9          1           0       -3.521396    0.199115    3.164150
     10          7           0       -5.206669   -0.148246    2.050697
     11          6           0       -5.556095   -0.714145    0.883616
     12          6           0       -3.341687   -1.345702    0.284232
     13          7           0       -2.411600   -1.892548   -0.501308
     14          1           0       -2.650143   -2.319167   -1.374421
     15          1           0       -1.445202   -1.894446   -0.244008
     16          1           0       -8.694283   -1.076278    1.112614
     17          1           0       -7.852973    0.117898    1.840784
     18          1           0       -8.490551    0.356354    0.357971
     19          7           0       -3.299176    1.971307   -1.103297
     20          6           0       -1.981478    2.077293   -0.728477
     21          6           0       -4.413618    2.757660   -0.537297
     22          7           0        0.476708    3.537323    1.243167
     23          1           0        1.465682    3.460192    1.366559
     24          1           0       -0.001555    4.202865    1.816775
     25          7           0       -1.487383    2.910895    0.212287
     26          6           0       -0.179531    2.782592    0.348946
     27          7           0        0.587612    1.905633   -0.379026
     28          1           0        1.580906    1.875350   -0.207541
     29          6           0        0.100506    1.038583   -1.352079
     30          8           0        0.878526    0.286528   -1.951939
     31          6           0       -1.303033    1.164910   -1.510194
     32          7           0       -2.177207    0.499520   -2.358697
     33          6           0       -3.346833    1.009384   -2.082627
     34          1           0       -4.280527    0.718816   -2.565401
     35          1           0       -5.083089    2.140925   -0.124675
     36          1           0       -4.059714    3.378750    0.160738
     37          1           0       -4.851698    3.287814   -1.262450
     38          1           0        6.344068    1.751887    1.567223
     39          1           0        6.669868    2.776162    0.171021
     40          1           0        5.102403    2.856462    0.975984
     41          1           0        6.426650   -1.540044   -1.940327
     42          6           0        5.757280   -0.779338   -1.538461
     43          8           0        3.829982   -1.640924   -2.620270
     44          6           0        4.369723   -0.812914   -1.886876
     45          1           0        2.626229    0.203771   -1.547884
     46          7           0        3.611571    0.194353   -1.324857
     47          8           0        3.300065    2.042165   -0.041983
     48          6           0        4.049227    1.192353   -0.490588
     49          1           0        7.260037    0.251409   -0.431626
     50          6           0        6.213964    0.181627   -0.726917
     51          6           0        5.912845    2.204133    0.686536
     52          7           0        5.399139    1.157381   -0.201241
     53          1           0        4.496671   -0.649174    4.114482
     54          1           0        3.341826    0.411154    3.662651
     55          1           0        4.863517    0.570641    3.094234
     56          1           0        0.756090   -3.307393   -1.717112
     57          1           0        2.418452   -3.602916   -1.473570
     58          7           0        1.587737   -3.120139   -1.194190
     59          6           0        1.589973   -2.264845   -0.169681
     60          6           0        2.577102   -1.058897    1.628385
     61          7           0        1.446665   -0.424811    1.981191
     62          1           0       -0.517168   -0.316992    1.404671
     63          6           0        0.441126   -0.786592    1.186898
     64          7           0        0.436877   -1.643070    0.160245
     65          1           0        5.699266   -1.888066    1.757689
     66          6           0        4.643726   -1.781692    1.505772
     67          7           0        4.042896   -2.416983    0.529517
     68          6           0        2.731970   -1.967793    0.596170
     69          6           0        4.156739   -0.083962    3.362825
     70          7           0        3.816364   -0.943140    2.212183
 ---------------------------------------------------------------------

 SCF Done:  E(RwB97XD) =  -2048.75080870     A.U. after   15 cycles

 The electronic state is 1-A.
 Alpha  occ. eigenvalues --  -19.25941 -19.21996 -19.20727 -14.52503 -14.50968
 Alpha  occ. eigenvalues --  -14.49937 -14.48659 -14.47822 -14.46994 -14.46720
 Alpha  occ. eigenvalues --  -14.45391 -14.43615 -14.42704 -14.42667 -14.42469
 Alpha  occ. eigenvalues --  -14.42246 -14.42049 -14.41813 -14.40971 -14.40845
 Alpha  occ. eigenvalues --  -10.45539 -10.41267 -10.40078 -10.38320 -10.37667
 Alpha  occ. eigenvalues --  -10.37458 -10.36358 -10.36236 -10.35817 -10.35368
 Alpha  occ. eigenvalues --  -10.35277 -10.34459 -10.34378 -10.34052 -10.33909
 Alpha  occ. eigenvalues --  -10.33192 -10.33047 -10.31945 -10.30913 -10.30668
 Alpha  occ. eigenvalues --  -10.30569 -10.29649 -10.28140  -1.19515  -1.13583
 Alpha  occ. eigenvalues --   -1.13286  -1.12956  -1.12525  -1.10588  -1.09390
 Alpha  occ. eigenvalues --   -1.08650  -1.07084  -1.05864  -1.02581  -1.02522
 Alpha  occ. eigenvalues --   -1.01274  -0.99804  -0.99241  -0.98572  -0.98024
 Alpha  occ. eigenvalues --   -0.96516  -0.94763  -0.93443  -0.90935  -0.85998
 Alpha  occ. eigenvalues --   -0.84997  -0.84518  -0.84064  -0.83920  -0.83333
 Alpha  occ. eigenvalues --   -0.82344  -0.78837  -0.75170  -0.74584  -0.73830
 Alpha  occ. eigenvalues --   -0.73691  -0.73359  -0.72906  -0.71993  -0.68506
 Alpha  occ. eigenvalues --   -0.67397  -0.67216  -0.66558  -0.64801  -0.64445
 Alpha  occ. eigenvalues --   -0.63760  -0.63594  -0.62666  -0.62339  -0.61737
 Alpha  occ. eigenvalues --   -0.61018  -0.60550  -0.59525  -0.58746  -0.58393
 Alpha  occ. eigenvalues --   -0.57951  -0.57854  -0.57604  -0.57173  -0.56455
 Alpha  occ. eigenvalues --   -0.56038  -0.56011  -0.54718  -0.54394  -0.53826
 Alpha  occ. eigenvalues --   -0.53636  -0.53565  -0.52896  -0.52784  -0.52700
 Alpha  occ. eigenvalues --   -0.52046  -0.51877  -0.51714  -0.51169  -0.51035
 Alpha  occ. eigenvalues --   -0.50153  -0.49935  -0.49449  -0.48838  -0.48594
 Alpha  occ. eigenvalues --   -0.48244  -0.48170  -0.47945  -0.47809  -0.47768
 Alpha  occ. eigenvalues --   -0.47388  -0.45903  -0.45133  -0.43986  -0.42747
 Alpha  occ. eigenvalues --   -0.42015  -0.39519  -0.38997  -0.38152  -0.37343
 Alpha  occ. eigenvalues --   -0.37246  -0.36205  -0.35771  -0.35695  -0.34680
 Alpha  occ. eigenvalues --   -0.34489  -0.34303  -0.33240  -0.32911  -0.32673
 Alpha  occ. eigenvalues --   -0.32381  -0.32297  -0.31993  -0.31927  -0.31709
 Alpha  occ. eigenvalues --   -0.31158  -0.27748  -0.26565  -0.25491
 Alpha virt. eigenvalues --    0.02952   0.06028   0.06982   0.08086   0.08919
 Alpha virt. eigenvalues --    0.09347   0.09736   0.10236   0.10870   0.12526
 Alpha virt. eigenvalues --    0.13006   0.13514   0.14289   0.14760   0.15111

 Mulliken charges:
               1
     1  N   -0.310319
     2  C    0.180128
     3  C    0.029393
     4  N   -0.252932
     5  C    0.126479
     6  H    0.029096
     7  N   -0.281914
     8  C    0.134238
     9  H    0.017543
    10  N   -0.288829
    11  C    0.234028
    12  C    0.090752
    13  N   -0.031767
    14  H    0.108791
    15  H    0.090204
    16  H    0.028914
    17  H    0.036913
    18  H    0.024411
    19  N   -0.304373
    20  C    0.256264
    21  C    0.184734
    22  N   -0.121834
    23  H    0.114838
    24  H    0.118703
    25  N   -0.307240
    26  C    0.243074
    27  N   -0.136824
    28  H    0.118105
    29  C    0.176104
    30  O   -0.327075
    31  C   -0.010769
    32  N   -0.231438
    33  C    0.124904
    34  H    0.027528
    35  H    0.026671
    36  H    0.029292
    37  H    0.021723
    38  H    0.054889
    39  H    0.064498
    40  H    0.075587
    41  H    0.028022
    42  C   -0.066670
    43  O   -0.273639
    44  C    0.180644
    45  H    0.134118
    46  N   -0.126707
    47  O   -0.349429
    48  C    0.344257
    49  H    0.041587
    50  C    0.146801
    51  C    0.036893
    52  N   -0.287049
    53  H    0.032077
    54  H    0.040120
    55  H    0.005774
    56  H    0.115452
    57  H    0.121225
    58  N   -0.042767
    59  C    0.124145
    60  C    0.234828
    61  N   -0.277447
    62  H    0.029771
    63  C    0.157274
    64  N   -0.307076
    65  H    0.023314
    66  C    0.122332
    67  N   -0.244746
    68  C    0.010919
    69  C    0.185913
    70  N   -0.302423
 Sum of Mulliken charges =  -0.00000

 Dipole moment (field-independent basis, Debye):
    X=              4.1015    Y=              4.8641    Z=              5.2867  Tot=              8.2723
 Quadrupole moment (field-independent basis, Debye-Ang):
   XX=           -142.1156   YY=           -228.5579   ZZ=           -252.4871
   XY=              7.7823   XZ=             26.3967   YZ=              7.8710

 Normal termination of Gaussian 16 at Thu Jan 25 13:15:32 2018.
