 Gaussian 16, Revision A.03,
 Gaussian 16:  EM64L-G16RevA.03 25-Dec-2016

 ---------------------------------------
 #p wb97xd/cc-pvdz sp scf=(maxcycles=20)
 ---------------------------------------

 ------------------
 Base pair stacking
 ------------------
 Symbolic Z-matrix:
 Charge =  0 Multiplicity = 1

                         Standard orientation:
 ---------------------------------------------------------------------
 Center     Atomic      Atomic             Coordinates (Angstroms)
 Number     Number       Type             X           Y           Z
 ---------------------------------------------------------------------
      1          7           0       -7.077067   -0.636359    0.294252
      2          6           0       -8.316616   -0.064644    0.855216
      3          6           0       -4.977484   -1.207624   -0.026220
      4          7           0       -5.692867   -1.749177   -1.084362
      5          6           0       -6.929163   -1.383332   -0.848944
      6          1           0       -7.780907   -1.633013   -1.482290
      7          7           0       -3.226386   -0.596544    1.430910
      8          6           0       -4.155206    0.027979    2.162232
      9          1           0       -3.784783    0.526956    3.056699
     10          7           0       -5.466738    0.128207    1.955510
     11          6           0       -5.817182   -0.518900    0.831739
     12          6           0       -3.610884   -1.238354    0.306033
     13          7           0       -2.685177   -1.862354   -0.425321
     14          1           0       -2.924554   -2.350162   -1.265529
     15          1           0       -1.721376   -1.863512   -0.158452
     16          1           0       -8.964067   -0.800278    1.054782
     17          1           0       -8.105036    0.429594    1.697878
     18          1           0       -8.724231    0.565664    0.194486
     19          7           0       -3.001804    1.929622   -1.239527
     20          6           0       -1.685634    2.038125   -0.860085
     21          6           0       -4.104947    2.779091   -0.747402
     22          7           0        0.784132    3.596863    1.019371
     23          1           0        1.770167    3.509953    1.158744
     24          1           0        0.314463    4.313929    1.535071
     25          7           0       -1.183047    2.931796    0.019015
     26          6           0        0.120620    2.788604    0.178901
     27          7           0        0.876141    1.843198   -0.471410
     28          1           0        1.867023    1.806606   -0.287642
     29          6           0        0.380144    0.913556   -1.380050
     30          8           0        1.147945    0.102309   -1.912107
     31          6           0       -1.019034    1.055015   -1.562183
     32          7           0       -1.899007    0.343635   -2.366226
     33          6           0       -3.060372    0.896246   -2.142494
     34          1           0       -3.995435    0.587850   -2.611342
     35          1           0       -4.790605    2.209310   -0.295686
     36          1           0       -3.744670    3.444991   -0.095447
     37          1           0       -4.525520    3.260353   -1.515712
     38          1           0        6.610499    1.726189    1.541485
     39          1           0        6.969780    2.633236    0.074226
     40          1           0        5.397116    2.806240    0.854068
     41          1           0        6.657124   -1.827135   -1.701700
     42          6           0        5.999901   -1.024665   -1.366550
     43          8           0        4.065161   -1.928801   -2.399213
     44          6           0        4.615137   -1.057573   -1.725966
     45          1           0        2.889869    0.016420   -1.484488
     46          7           0        3.872767    0.004764   -1.251016
     47          8           0        3.587680    1.951695   -0.117263
     48          6           0        4.323269    1.055225   -0.491324
     49          1           0        7.513455    0.058401   -0.326390
     50          6           0        6.468871   -0.013247   -0.626469
     51          6           0        6.196583    2.117673    0.624167
     52          7           0        5.669525    1.016000   -0.185937
     53          1           0        4.205341   -0.403767    4.153878
     54          1           0        3.076584    0.641202    3.609763
     55          1           0        4.606274    0.726342    3.046845
     56          1           0        0.463651   -3.428914   -1.495354
     57          1           0        2.117349   -3.737566   -1.212311
     58          7           0        1.294225   -3.218394   -0.979624
     59          6           0        1.304778   -2.286938   -0.023884
     60          6           0        2.300211   -0.965802    1.686505
     61          7           0        1.179884   -0.284216    1.977614
     62          1           0       -0.776053   -0.182371    1.373841
     63          6           0        0.174323   -0.686189    1.202904
     64          7           0        0.161751   -1.618945    0.245109
     65          1           0        5.403433   -1.844026    1.912052
     66          6           0        4.352604   -1.736552    1.641590
     67          7           0        3.747682   -2.433167    0.710752
     68          6           0        2.445692   -1.954379    0.728870
     69          6           0        3.883841    0.108467    3.357473
     70          7           0        3.536287   -0.829903    2.272722
 ---------------------------------------------------------------------

 SCF Done:  E(RwB97XD) =  -2048.75132671     A.U. after   15 cycles

 The electronic state is 1-A.
 Alpha  occ. eigenvalues --  -19.26029 -19.21835 -19.20778 -14.52610 -14.50769
 Alpha  occ. eigenvalues --  -14.50023 -14.48662 -14.47807 -14.46983 -14.46749
 Alpha  occ. eigenvalues --  -14.45394 -14.43397 -14.42858 -14.42788 -14.42318
 Alpha  occ. eigenvalues --  -14.42133 -14.42070 -14.41943 -14.41105 -14.40831
 Alpha  occ. eigenvalues --  -10.45617 -10.41277 -10.39997 -10.38376 -10.37654
 Alpha  occ. eigenvalues --  -10.37604 -10.36391 -10.36124 -10.35858 -10.35386
 Alpha  occ. eigenvalues --  -10.35249 -10.34594 -10.34379 -10.34041 -10.33942
 Alpha  occ. eigenvalues --  -10.33188 -10.32874 -10.31976 -10.31033 -10.30509
 Alpha  occ. eigenvalues --  -10.30500 -10.29795 -10.28172  -1.19594  -1.13412
 Alpha  occ. eigenvalues --   -1.13287  -1.12825  -1.12629  -1.10602  -1.09465
 Alpha  occ. eigenvalues --   -1.08678  -1.06972  -1.06009  -1.02520  -1.02442
 Alpha  occ. eigenvalues --   -1.01423  -0.99827  -0.99057  -0.98583  -0.98130
 Alpha  occ. eigenvalues --   -0.96506  -0.94665  -0.93586  -0.91047  -0.85828
 Alpha  occ. eigenvalues --   -0.85098  -0.84352  -0.84061  -0.83968  -0.83425
 Alpha  occ. eigenvalues --   -0.82318  -0.78908  -0.75041  -0.74593  -0.73944
 Alpha  occ. eigenvalues --   -0.73707  -0.73361  -0.72771  -0.72123  -0.68370
 Alpha  occ. eigenvalues --   -0.67429  -0.67329  -0.66603  -0.64671  -0.64475
 Alpha  occ. eigenvalues --   -0.63772  -0.63718  -0.62691  -0.62218  -0.61761
 Alpha  occ. eigenvalues --   -0.61118  -0.60390  -0.59586  -0.58610  -0.58426
 Alpha  occ. eigenvalues --   -0.57963  -0.57894  -0.57609  -0.57199  -0.56476
 Alpha  occ. eigenvalues --   -0.56161  -0.56071  -0.54456  -0.54436  -0.53677
 Alpha  occ. eigenvalues --   -0.53635  -0.53602  -0.52912  -0.52858  -0.52747
 Alpha  occ. eigenvalues --   -0.52036  -0.51872  -0.51761  -0.51197  -0.50971
 Alpha  occ. eigenvalues --   -0.50149  -0.50025  -0.49474  -0.48743  -0.48524
 Alpha  occ. eigenvalues --   -0.48200  -0.48173  -0.47971  -0.47891  -0.47682
 Alpha  occ. eigenvalues --   -0.47310  -0.46043  -0.44916  -0.44143  -0.42731
 Alpha  occ. eigenvalues --   -0.42167  -0.39591  -0.38814  -0.38275  -0.37362
 Alpha  occ. eigenvalues --   -0.37273  -0.36080  -0.35461  -0.35437  -0.34708
 Alpha  occ. eigenvalues --   -0.34581  -0.34368  -0.33229  -0.32778  -0.32658
 Alpha  occ. eigenvalues --   -0.32584  -0.32214  -0.32039  -0.31966  -0.31907
 Alpha  occ. eigenvalues --   -0.31264  -0.27739  -0.26729  -0.25477
 Alpha virt. eigenvalues --    0.03115   0.05870   0.06813   0.08298   0.08958
 Alpha virt. eigenvalues --    0.09122   0.09814   0.10154   0.10830   0.12611
 Alpha virt. eigenvalues --    0.12936   0.13413   0.14444   0.14811   0.15336

 Mulliken charges:
               1
     1  N   -0.310196
     2  C    0.180279
     3  C    0.026832
     4  N   -0.256235
     5  C    0.129556
     6  H    0.029839
     7  N   -0.279319
     8  C    0.131091
     9  H    0.018796
    10  N   -0.287506
    11  C    0.235061
    12  C    0.084073
    13  N   -0.030229
    14  H    0.107676
    15  H    0.092614
    16  H    0.028865
    17  H    0.037162
    18  H    0.025271
    19  N   -0.303061
    20  C    0.252736
    21  C    0.184341
    22  N   -0.122000
    23  H    0.113409
    24  H    0.118703
    25  N   -0.306234
    26  C    0.242895
    27  N   -0.130073
    28  H    0.117842
    29  C    0.167508
    30  O   -0.326858
    31  C   -0.008949
    32  N   -0.230351
    33  C    0.122401
    34  H    0.029839
    35  H    0.028805
    36  H    0.028689
    37  H    0.021969
    38  H    0.055451
    39  H    0.065067
    40  H    0.075545
    41  H    0.030351
    42  C   -0.081646
    43  O   -0.271089
    44  C    0.188206
    45  H    0.134253
    46  N   -0.126357
    47  O   -0.351137
    48  C    0.342092
    49  H    0.044181
    50  C    0.150302
    51  C    0.036882
    52  N   -0.290488
    53  H    0.030704
    54  H    0.038820
    55  H    0.009793
    56  H    0.114751
    57  H    0.122937
    58  N   -0.050784
    59  C    0.136377
    60  C    0.238016
    61  N   -0.277239
    62  H    0.032856
    63  C    0.155604
    64  N   -0.308077
    65  H    0.022306
    66  C    0.113898
    67  N   -0.243310
    68  C    0.014597
    69  C    0.184138
    70  N   -0.302237
 Sum of Mulliken charges =  -0.00000

 Dipole moment (field-independent basis, Debye):
    X=              4.0712    Y=              5.1844    Z=              4.9451  Tot=              8.2405
 Quadrupole moment (field-independent basis, Debye-Ang):
   XX=           -140.7166   YY=           -228.1522   ZZ=           -252.2662
   XY=              9.9542   XZ=             28.6982   YZ=              5.7332

 Normal termination of Gaussian 16 at Thu Jan 25 14:04:07 2018.
