 Gaussian 16, Revision A.03,
 Gaussian 16:  EM64L-G16RevA.03 25-Dec-2016

 ---------------------------------------
 #p wb97xd/cc-pvdz sp scf=(maxcycles=20)
 ---------------------------------------

 ------------------
 Base pair stacking
 ------------------
 Symbolic Z-matrix:
 Charge =  0 Multiplicity = 1

                         Standard orientation:
 ---------------------------------------------------------------------
 Center     Atomic      Atomic             Coordinates (Angstroms)
 Number     Number       Type             X           Y           Z
 ---------------------------------------------------------------------
      1          7           0       -5.978796   -1.263067    0.614839
      2          6           0       -7.229020   -0.815180    1.258537
      3          6           0       -3.859699   -1.644870    0.166568
      4          7           0       -4.584383   -2.213352   -0.870917
      5          6           0       -5.832059   -1.960584   -0.559327
      6          1           0       -6.693454   -2.262515   -1.155803
      7          7           0       -2.088418   -0.931353    1.550915
      8          6           0       -3.024537   -0.409635    2.350338
      9          1           0       -2.648508    0.092127    3.240901
     10          7           0       -4.349184   -0.414643    2.215478
     11          6           0       -4.705551   -1.055436    1.089941
     12          6           0       -2.479178   -1.569718    0.426246
     13          7           0       -1.546206   -2.091171   -0.373023
     14          1           0       -1.789800   -2.572332   -1.215859
     15          1           0       -0.572503   -2.018707   -0.156708
     16          1           0       -7.801404   -1.608550    1.466192
     17          1           0       -7.013489   -0.330037    2.105477
     18          1           0       -7.722930   -0.202282    0.641757
     19          7           0       -4.243321    1.636023   -0.915054
     20          6           0       -2.925214    1.816857   -0.571612
     21          6           0       -5.397544    2.237455   -0.217384
     22          7           0       -0.523096    3.241298    1.492972
     23          1           0        0.473240    3.242113    1.574012
     24          1           0       -1.033208    3.781947    2.162456
     25          7           0       -2.466706    2.568326    0.452654
     26          6           0       -1.147943    2.546737    0.530136
     27          7           0       -0.338310    1.843660   -0.328747
     28          1           0        0.660251    1.885105   -0.194150
     29          6           0       -0.788292    1.063872   -1.389550
     30          8           0        0.026633    0.469095   -2.105705
     31          6           0       -2.203037    1.077253   -1.485528
     32          7           0       -3.050695    0.444809   -2.384632
     33          6           0       -4.247870    0.804382   -2.008225
     34          1           0       -5.172140    0.490687   -2.494618
     35          1           0       -5.991154    1.513952    0.133273
     36          1           0       -5.070197    2.796386    0.543344
     37          1           0       -5.911925    2.811124   -0.853888
     38          1           0        5.488007    1.985786    1.398144
     39          1           0        5.660866    3.203116    0.136046
     40          1           0        4.128821    3.034856    0.993878
     41          1           0        5.710164   -0.817695   -2.505404
     42          6           0        4.994014   -0.179377   -1.987819
     43          8           0        3.105672   -1.074788   -3.110096
     44          6           0        3.601116   -0.298543   -2.293537
     45          1           0        1.790646    0.500053   -1.771243
     46          7           0        2.781679    0.554899   -1.582611
     47          8           0        2.363392    2.189815   -0.062986
     48          6           0        3.164829    1.476816   -0.640913
     49          1           0        6.445974    0.840273   -0.805467
     50          6           0        5.398391    0.710602   -1.074024
     51          6           0        4.980614    2.502658    0.597221
     52          7           0        4.523784    1.532182   -0.401386
     53          1           0        5.439181   -0.191405    3.889719
     54          1           0        4.199677    0.769998    3.440889
     55          1           0        5.684056    1.000931    2.802621
     56          1           0        1.658582   -3.353257   -1.657831
     57          1           0        3.345142   -3.529162   -1.471659
     58          7           0        2.495731   -3.088631   -1.178997
     59          6           0        2.481152   -2.188392   -0.193840
     60          6           0        3.455449   -0.839125    1.506734
     61          7           0        2.300022   -0.263717    1.878664
     62          1           0        0.312360   -0.309843    1.381008
     63          6           0        1.290487   -0.726143    1.143896
     64          7           0        1.303058   -1.627787    0.156741
     65          1           0        6.628467   -1.457956    1.540880
     66          6           0        5.559159   -1.431801    1.329121
     67          7           0        4.964188   -2.149158    0.407675
     68          6           0        3.629928   -1.782984    0.509648
     69          6           0        5.033359    0.315200    3.129022
     70          7           0        4.706136   -0.616596    2.032348
 ---------------------------------------------------------------------

 SCF Done:  E(RwB97XD) =  -2048.74811210     A.U. after   15 cycles

 The electronic state is 1-A.
 Alpha  occ. eigenvalues --  -19.25313 -19.21745 -19.20618 -14.52147 -14.51853
 Alpha  occ. eigenvalues --  -14.49746 -14.48734 -14.47403 -14.46840 -14.46565
 Alpha  occ. eigenvalues --  -14.46478 -14.44528 -14.43509 -14.43293 -14.42781
 Alpha  occ. eigenvalues --  -14.42241 -14.41888 -14.41614 -14.40905 -14.40727
 Alpha  occ. eigenvalues --  -10.45041 -10.41118 -10.39726 -10.38741 -10.38205
 Alpha  occ. eigenvalues --  -10.37178 -10.37167 -10.36453 -10.36149 -10.35323
 Alpha  occ. eigenvalues --  -10.35053 -10.34917 -10.34252 -10.34225 -10.33825
 Alpha  occ. eigenvalues --  -10.33790 -10.33242 -10.32030 -10.31762 -10.30870
 Alpha  occ. eigenvalues --  -10.30495 -10.29318 -10.28037  -1.18996  -1.14491
 Alpha  occ. eigenvalues --   -1.13141  -1.12750  -1.12273  -1.10525  -1.08999
 Alpha  occ. eigenvalues --   -1.08490  -1.08163  -1.05735  -1.03661  -1.02178
 Alpha  occ. eigenvalues --   -1.01129  -1.00181  -0.99642  -0.98433  -0.97833
 Alpha  occ. eigenvalues --   -0.96502  -0.95832  -0.93356  -0.90570  -0.86999
 Alpha  occ. eigenvalues --   -0.85531  -0.84834  -0.84021  -0.83547  -0.83224
 Alpha  occ. eigenvalues --   -0.82441  -0.78486  -0.76128  -0.74540  -0.73951
 Alpha  occ. eigenvalues --   -0.73689  -0.73512  -0.73009  -0.71807  -0.69517
 Alpha  occ. eigenvalues --   -0.67274  -0.67081  -0.66229  -0.65813  -0.64278
 Alpha  occ. eigenvalues --   -0.63679  -0.63519  -0.63218  -0.62509  -0.61648
 Alpha  occ. eigenvalues --   -0.61565  -0.60965  -0.59689  -0.59170  -0.58701
 Alpha  occ. eigenvalues --   -0.58297  -0.58184  -0.57796  -0.57274  -0.56149
 Alpha  occ. eigenvalues --   -0.55962  -0.55622  -0.55423  -0.54743  -0.54122
 Alpha  occ. eigenvalues --   -0.53638  -0.53503  -0.53017  -0.52820  -0.52626
 Alpha  occ. eigenvalues --   -0.52375  -0.52050  -0.51558  -0.51235  -0.50994
 Alpha  occ. eigenvalues --   -0.50088  -0.49901  -0.49352  -0.49157  -0.49131
 Alpha  occ. eigenvalues --   -0.48655  -0.48305  -0.48099  -0.47734  -0.47493
 Alpha  occ. eigenvalues --   -0.47281  -0.46036  -0.45440  -0.43313  -0.42797
 Alpha  occ. eigenvalues --   -0.41832  -0.39905  -0.39046  -0.37874  -0.37363
 Alpha  occ. eigenvalues --   -0.37120  -0.37026  -0.36702  -0.35836  -0.34442
 Alpha  occ. eigenvalues --   -0.34342  -0.33998  -0.33811  -0.33423  -0.33011
 Alpha  occ. eigenvalues --   -0.32590  -0.32373  -0.31819  -0.31685  -0.31101
 Alpha  occ. eigenvalues --   -0.30880  -0.28711  -0.26632  -0.25250
 Alpha virt. eigenvalues --    0.03153   0.04997   0.07133   0.07370   0.09074
 Alpha virt. eigenvalues --    0.09577   0.09857   0.10283   0.11061   0.12147
 Alpha virt. eigenvalues --    0.13217   0.13857   0.14035   0.14779   0.14906

 Mulliken charges:
               1
     1  N   -0.307319
     2  C    0.177799
     3  C    0.046596
     4  N   -0.239901
     5  C    0.115655
     6  H    0.026667
     7  N   -0.286384
     8  C    0.142149
     9  H    0.012539
    10  N   -0.285544
    11  C    0.229700
    12  C    0.084013
    13  N   -0.039446
    14  H    0.112710
    15  H    0.092512
    16  H    0.030136
    17  H    0.036193
    18  H    0.025439
    19  N   -0.298281
    20  C    0.249252
    21  C    0.194358
    22  N   -0.121334
    23  H    0.117198
    24  H    0.118249
    25  N   -0.305044
    26  C    0.239104
    27  N   -0.144009
    28  H    0.120368
    29  C    0.180777
    30  O   -0.325469
    31  C   -0.020865
    32  N   -0.220517
    33  C    0.132240
    34  H    0.020595
    35  H   -0.001007
    36  H    0.033696
    37  H    0.023658
    38  H    0.029057
    39  H    0.061898
    40  H    0.078954
    41  H    0.023578
    42  C   -0.062787
    43  O   -0.273247
    44  C    0.153575
    45  H    0.134672
    46  N   -0.119678
    47  O   -0.344013
    48  C    0.338429
    49  H    0.038823
    50  C    0.155735
    51  C    0.047127
    52  N   -0.277298
    53  H    0.033085
    54  H    0.040788
    55  H    0.018564
    56  H    0.120649
    57  H    0.117468
    58  N   -0.031529
    59  C    0.101025
    60  C    0.225458
    61  N   -0.264327
    62  H    0.028969
    63  C    0.153179
    64  N   -0.299586
    65  H    0.030726
    66  C    0.115998
    67  N   -0.242249
    68  C    0.018466
    69  C    0.183976
    70  N   -0.301972
 Sum of Mulliken charges =  -0.00000

 Dipole moment (field-independent basis, Debye):
    X=              4.0379    Y=              4.0817    Z=              6.2274  Tot=              8.4703
 Quadrupole moment (field-independent basis, Debye-Ang):
   XX=           -145.5466   YY=           -227.7736   ZZ=           -257.1582
   XY=              8.6160   XZ=             16.9600   YZ=             10.8440

 Normal termination of Gaussian 16 at Thu Jan 25 22:00:39 2018.
