 Gaussian 16, Revision A.03,
 Gaussian 16:  EM64L-G16RevA.03 25-Dec-2016

 ---------------------------------------
 #p wb97xd/cc-pvdz sp scf=(maxcycles=20)
 ---------------------------------------

 ------------------
 Base pair stacking
 ------------------
 Symbolic Z-matrix:
 Charge =  0 Multiplicity = 1

                         Standard orientation:
 ---------------------------------------------------------------------
 Center     Atomic      Atomic             Coordinates (Angstroms)
 Number     Number       Type             X           Y           Z
 ---------------------------------------------------------------------
      1          7           0       -6.766448    0.549821   -0.445514
      2          6           0       -7.988901   -0.239112   -0.692923
      3          6           0       -4.678448    1.238959   -0.393995
      4          7           0       -5.422087    2.203876    0.269825
      5          6           0       -6.650267    1.750074    0.212219
      6          1           0       -7.518371    2.255046    0.636900
      7          7           0       -2.889457    0.041468   -1.357571
      8          6           0       -3.796890   -0.869314   -1.724481
      9          1           0       -3.402284   -1.725127   -2.270490
     10          7           0       -5.112413   -0.881598   -1.519146
     11          6           0       -5.493391    0.213308   -0.840570
     12          6           0       -3.304478    1.131659   -0.676161
     13          7           0       -2.400156    2.041931   -0.309029
     14          1           0       -2.662397    2.864443    0.196857
     15          1           0       -1.430249    1.932816   -0.527022
     16          1           0       -8.635581    0.304647   -1.228003
     17          1           0       -7.754356   -1.068909   -1.198441
     18          1           0       -8.408629   -0.489723    0.179449
     19          7           0       -3.374673   -1.280900    1.438816
     20          6           0       -2.064485   -1.500066    1.087478
     21          6           0       -4.526636   -2.084582    0.983017
     22          7           0        0.316460   -3.334130   -0.652934
     23          1           0        1.307639   -3.321730   -0.781975
     24          1           0       -0.194347   -4.049455   -1.130538
     25          7           0       -1.612974   -2.478558    0.273391
     26          6           0       -0.300890   -2.432456    0.125373
     27          7           0        0.508895   -1.500240    0.727644
     28          1           0        1.502051   -1.541043    0.557505
     29          6           0        0.066040   -0.484513    1.569098
     30          8           0        0.880427    0.305857    2.061864
     31          6           0       -1.341473   -0.521155    1.737708
     32          7           0       -2.180868    0.296119    2.482282
     33          6           0       -3.374076   -0.191233    2.275040
     34          1           0       -4.291641    0.207337    2.709188
     35          1           0       -5.167239   -1.500109    0.486212
     36          1           0       -4.204429   -2.812552    0.379271
     37          1           0       -4.987388   -2.487676    1.772978
     38          1           0        6.260920   -1.890426   -1.198574
     39          1           0        6.541589   -2.725311    0.327478
     40          1           0        4.969913   -2.842321   -0.464692
     41          1           0        6.508806    1.848718    1.818692
     42          6           0        5.803072    1.072124    1.523619
     43          8           0        3.921673    2.165648    2.467902
     44          6           0        4.419604    1.219295    1.858580
     45          1           0        2.628993    0.249016    1.657085
     46          7           0        3.613068    0.180787    1.438761
     47          8           0        3.210919   -1.810329    0.423417
     48          6           0        4.000706   -0.942880    0.752723
     49          1           0        7.252317   -0.172136    0.576360
     50          6           0        6.211519   -0.012660    0.855022
     51          6           0        5.811126   -2.195198   -0.265376
     52          7           0        5.349980   -1.012275    0.466606
     53          1           0        4.606391   -1.291550   -3.529576
     54          1           0        3.470913   -1.974521   -2.577560
     55          1           0        4.987132   -1.758985   -2.013013
     56          1           0        0.713104    3.979287   -0.047326
     57          1           0        2.371314    4.144916   -0.412008
     58          7           0        1.556991    3.563986   -0.387204
     59          6           0        1.595778    2.292117   -0.789710
     60          6           0        2.639475    0.336799   -1.655276
     61          7           0        1.530365   -0.419718   -1.610773
     62          1           0       -0.438869   -0.256656   -1.066603
     63          6           0        0.504238    0.283685   -1.136229
     64          7           0        0.463371    1.557635   -0.732565
     65          1           0        5.742138    1.055385   -2.211409
     66          6           0        4.685758    1.071042   -1.941669
     67          7           0        4.054709    2.114410   -1.461200
     68          6           0        2.756302    1.662473   -1.275171
     69          6           0        4.268828   -1.372644   -2.591777
     70          7           0        3.890000   -0.039347   -2.085024
 ---------------------------------------------------------------------

 SCF Done:  E(RwB97XD) =  -2048.71520954     A.U. after   15 cycles

 The electronic state is 1-A.
 Alpha  occ. eigenvalues --  -19.26071 -19.22039 -19.20528 -14.52837 -14.51251
 Alpha  occ. eigenvalues --  -14.50401 -14.48174 -14.47966 -14.46558 -14.46369
 Alpha  occ. eigenvalues --  -14.46273 -14.44054 -14.43378 -14.43022 -14.42945
 Alpha  occ. eigenvalues --  -14.42890 -14.42139 -14.41749 -14.41301 -14.40529
 Alpha  occ. eigenvalues --  -10.45709 -10.40817 -10.40112 -10.38459 -10.38004
 Alpha  occ. eigenvalues --  -10.37828 -10.36743 -10.36736 -10.36244 -10.35845
 Alpha  occ. eigenvalues --  -10.35640 -10.34791 -10.34651 -10.34207 -10.34010
 Alpha  occ. eigenvalues --  -10.32976 -10.32623 -10.32315 -10.31196 -10.31143
 Alpha  occ. eigenvalues --  -10.30119 -10.29291 -10.27839  -1.19775  -1.13937
 Alpha  occ. eigenvalues --   -1.13073  -1.13029  -1.12954  -1.10290  -1.09717
 Alpha  occ. eigenvalues --   -1.08319  -1.07828  -1.06354  -1.03397  -1.02705
 Alpha  occ. eigenvalues --   -1.01883  -0.99690  -0.99402  -0.98476  -0.98246
 Alpha  occ. eigenvalues --   -0.96091  -0.95483  -0.93995  -0.91365  -0.86724
 Alpha  occ. eigenvalues --   -0.85535  -0.85415  -0.83904  -0.83800  -0.83602
 Alpha  occ. eigenvalues --   -0.81734  -0.79127  -0.75797  -0.74362  -0.74179
 Alpha  occ. eigenvalues --   -0.73660  -0.73593  -0.73320  -0.72477  -0.69231
 Alpha  occ. eigenvalues --   -0.67717  -0.67111  -0.66758  -0.65648  -0.64796
 Alpha  occ. eigenvalues --   -0.64089  -0.63532  -0.63047  -0.62683  -0.62266
 Alpha  occ. eigenvalues --   -0.61483  -0.61393  -0.59795  -0.59502  -0.58663
 Alpha  occ. eigenvalues --   -0.58515  -0.57988  -0.57745  -0.56709  -0.56533
 Alpha  occ. eigenvalues --   -0.56384  -0.56225  -0.56000  -0.54598  -0.54398
 Alpha  occ. eigenvalues --   -0.54158  -0.53434  -0.53240  -0.53090  -0.52479
 Alpha  occ. eigenvalues --   -0.52123  -0.51731  -0.51500  -0.51033  -0.50864
 Alpha  occ. eigenvalues --   -0.50369  -0.49876  -0.49525  -0.48839  -0.48537
 Alpha  occ. eigenvalues --   -0.48470  -0.48205  -0.48089  -0.47961  -0.47624
 Alpha  occ. eigenvalues --   -0.47258  -0.46079  -0.45327  -0.44240  -0.42996
 Alpha  occ. eigenvalues --   -0.41569  -0.39676  -0.39593  -0.38613  -0.37194
 Alpha  occ. eigenvalues --   -0.37015  -0.36406  -0.36305  -0.35929  -0.35083
 Alpha  occ. eigenvalues --   -0.34833  -0.34016  -0.33389  -0.33204  -0.33111
 Alpha  occ. eigenvalues --   -0.32555  -0.32367  -0.31861  -0.31776  -0.31681
 Alpha  occ. eigenvalues --   -0.31486  -0.28187  -0.27014  -0.25224
 Alpha virt. eigenvalues --    0.02682   0.05445   0.06445   0.07950   0.08695
 Alpha virt. eigenvalues --    0.08843   0.09810   0.10282   0.11361   0.11927
 Alpha virt. eigenvalues --    0.12359   0.13115   0.14798   0.14831   0.15040

 Mulliken charges:
               1
     1  N   -0.307407
     2  C    0.179042
     3  C    0.051071
     4  N   -0.251690
     5  C    0.129383
     6  H    0.030625
     7  N   -0.262279
     8  C    0.120394
     9  H    0.017437
    10  N   -0.282629
    11  C    0.206464
    12  C    0.081730
    13  N   -0.033664
    14  H    0.107375
    15  H    0.088537
    16  H    0.031157
    17  H    0.036904
    18  H    0.026795
    19  N   -0.294864
    20  C    0.239516
    21  C    0.208973
    22  N   -0.105788
    23  H    0.112650
    24  H    0.114873
    25  N   -0.289833
    26  C    0.206386
    27  N   -0.127401
    28  H    0.131293
    29  C    0.146493
    30  O   -0.325050
    31  C    0.012548
    32  N   -0.225762
    33  C    0.116934
    34  H    0.024015
    35  H    0.009973
    36  H    0.028064
    37  H    0.015775
    38  H    0.055373
    39  H    0.058172
    40  H    0.073570
    41  H    0.031554
    42  C   -0.077770
    43  O   -0.261979
    44  C    0.179664
    45  H    0.132435
    46  N   -0.121685
    47  O   -0.340035
    48  C    0.332052
    49  H    0.043879
    50  C    0.146582
    51  C    0.073869
    52  N   -0.286862
    53  H    0.028880
    54  H    0.037006
    55  H   -0.049665
    56  H    0.116924
    57  H    0.121696
    58  N   -0.065840
    59  C    0.139307
    60  C    0.209494
    61  N   -0.283636
    62  H    0.028868
    63  C    0.172736
    64  N   -0.309096
    65  H    0.024129
    66  C    0.118126
    67  N   -0.248171
    68  C    0.033854
    69  C    0.209826
    70  N   -0.291298
 Sum of Mulliken charges =  -0.00000

 Dipole moment (field-independent basis, Debye):
    X=              3.6583    Y=             -5.2583    Z=             -5.2963  Tot=              8.3117
 Quadrupole moment (field-independent basis, Debye-Ang):
   XX=           -141.4093   YY=           -225.7140   ZZ=           -261.3499
   XY=            -18.0802   XZ=            -21.1403   YZ=             -1.2580

 Normal termination of Gaussian 16 at Thu Jan 25 08:15:59 2018.
