 Gaussian 16, Revision A.03,
 Gaussian 16:  EM64L-G16RevA.03 25-Dec-2016

 ---------------------------------------
 #p wb97xd/cc-pvdz sp scf=(maxcycles=20)
 ---------------------------------------

 ------------------
 Base pair stacking
 ------------------
 Symbolic Z-matrix:
 Charge =  0 Multiplicity = 1

                         Standard orientation:
 ---------------------------------------------------------------------
 Center     Atomic      Atomic             Coordinates (Angstroms)
 Number     Number       Type             X           Y           Z
 ---------------------------------------------------------------------
      1          7           0       -6.824903   -0.874331    0.298971
      2          6           0       -8.073834   -0.462519    0.968732
      3          6           0       -4.714250   -1.312148   -0.137803
      4          7           0       -5.424430   -1.644411   -1.282346
      5          6           0       -6.667596   -1.367331   -0.973400
      6          1           0       -7.517959   -1.504550   -1.641979
      7          7           0       -2.967204   -0.966128    1.408493
      8          6           0       -3.905450   -0.529294    2.254929
      9          1           0       -3.540388   -0.214325    3.231543
     10          7           0       -5.220766   -0.423616    2.076921
     11          6           0       -5.563994   -0.836068    0.845455
     12          6           0       -3.344612   -1.374074    0.177143
     13          7           0       -2.409496   -1.810460   -0.669190
     14          1           0       -2.643382   -2.122135   -1.590803
     15          1           0       -1.443800   -1.840710   -0.411025
     16          1           0       -8.700795   -1.240293    1.015294
     17          1           0       -7.867882   -0.145792    1.894147
     18          1           0       -8.502719    0.278659    0.452302
     19          7           0       -3.287454    2.117915   -0.961878
     20          6           0       -1.967482    2.193789   -0.587781
     21          6           0       -4.391762    2.889942   -0.357574
     22          7           0        0.512359    3.540279    1.436846
     23          1           0        1.500881    3.447674    1.552954
     24          1           0        0.042961    4.184772    2.041011
     25          7           0       -1.461593    2.980030    0.386879
     26          6           0       -0.154695    2.832447    0.512770
     27          7           0        0.600837    1.980602   -0.256016
     28          1           0        1.594336    1.932613   -0.089817
     29          6           0        0.101487    1.162296   -1.264428
     30          8           0        0.869629    0.429462   -1.899760
     31          6           0       -1.301185    1.309829   -1.411475
     32          7           0       -2.185078    0.691449   -2.285107
     33          6           0       -3.348409    1.200604   -1.982416
     34          1           0       -4.286680    0.941171   -2.473954
     35          1           0       -5.066218    2.262513    0.030050
     36          1           0       -4.029072    3.476024    0.365769
     37          1           0       -4.826732    3.455989   -1.057011
     38          1           0        6.361884    1.682321    1.659638
     39          1           0        6.693636    2.763715    0.308646
     40          1           0        5.129796    2.824527    1.122332
     41          1           0        6.398466   -1.452571   -1.989696
     42          6           0        5.738387   -0.703495   -1.552187
     43          8           0        3.798620   -1.496806   -2.663529
     44          6           0        4.349401   -0.707476   -1.896460
     45          1           0        2.617718    0.311087   -1.506397
     46          7           0        3.603654    0.281767   -1.287762
     47          8           0        3.315688    2.074358    0.076383
     48          6           0        4.054461    1.237509   -0.412047
     49          1           0        7.255495    0.262050   -0.406783
     50          6           0        6.207760    0.216064   -0.700878
     51          6           0        5.932434    2.177318    0.801369
     52          7           0        5.404900    1.175998   -0.129664
     53          1           0        4.479509   -1.138175    4.091632
     54          1           0        3.320219   -0.034211    3.776347
     55          1           0        4.842559    0.204790    3.238363
     56          1           0        0.769013   -3.040996   -2.046537
     57          1           0        2.432281   -3.357192   -1.837520
     58          7           0        1.598233   -2.918594   -1.501044
     59          6           0        1.593105   -2.202503   -0.374823
     60          6           0        2.568886   -1.233531    1.566990
     61          7           0        1.434122   -0.655842    1.994775
     62          1           0       -0.528694   -0.484358    1.430347
     63          6           0        0.432681   -0.917195    1.157086
     64          7           0        0.435801   -1.634189    0.028600
     65          1           0        5.695103   -2.056917    1.598858
     66          6           0        4.639693   -1.924200    1.359201
     67          7           0        4.044910   -2.431314    0.307183
     68          6           0        2.731418   -2.000986    0.426768
     69          6           0        4.138590   -0.482484    3.417957
     70          7           0        3.805935   -1.187833    2.165021
 ---------------------------------------------------------------------

 SCF Done:  E(RwB97XD) =  -2048.74799575     A.U. after   15 cycles

 The electronic state is 1-A.
 Alpha  occ. eigenvalues --  -19.25940 -19.22018 -19.20801 -14.52476 -14.50852
 Alpha  occ. eigenvalues --  -14.49857 -14.48732 -14.47845 -14.47093 -14.46808
 Alpha  occ. eigenvalues --  -14.45048 -14.43482 -14.42604 -14.42556 -14.42315
 Alpha  occ. eigenvalues --  -14.42127 -14.42062 -14.41697 -14.40918 -14.40863
 Alpha  occ. eigenvalues --  -10.45536 -10.41353 -10.40131 -10.38396 -10.37454
 Alpha  occ. eigenvalues --  -10.37399 -10.36244 -10.36117 -10.35744 -10.35232
 Alpha  occ. eigenvalues --  -10.35207 -10.34448 -10.34369 -10.33897 -10.33811
 Alpha  occ. eigenvalues --  -10.33237 -10.32926 -10.31879 -10.30887 -10.30681
 Alpha  occ. eigenvalues --  -10.30528 -10.29555 -10.28211  -1.19512  -1.13503
 Alpha  occ. eigenvalues --   -1.13360  -1.12986  -1.12443  -1.10660  -1.09374
 Alpha  occ. eigenvalues --   -1.08733  -1.06893  -1.05757  -1.02551  -1.02371
 Alpha  occ. eigenvalues --   -1.01161  -0.99889  -0.99108  -0.98651  -0.97939
 Alpha  occ. eigenvalues --   -0.96595  -0.94572  -0.93328  -0.90904  -0.85867
 Alpha  occ. eigenvalues --   -0.84914  -0.84384  -0.84133  -0.83885  -0.83253
 Alpha  occ. eigenvalues --   -0.82433  -0.78823  -0.75012  -0.74652  -0.73767
 Alpha  occ. eigenvalues --   -0.73734  -0.73375  -0.72749  -0.71895  -0.68335
 Alpha  occ. eigenvalues --   -0.67468  -0.67121  -0.66562  -0.64635  -0.64462
 Alpha  occ. eigenvalues --   -0.63803  -0.63493  -0.62731  -0.62160  -0.61809
 Alpha  occ. eigenvalues --   -0.60921  -0.60368  -0.59526  -0.58586  -0.58473
 Alpha  occ. eigenvalues --   -0.57943  -0.57768  -0.57503  -0.57044  -0.56515
 Alpha  occ. eigenvalues --   -0.56039  -0.55914  -0.54614  -0.54398  -0.53727
 Alpha  occ. eigenvalues --   -0.53679  -0.53570  -0.52952  -0.52708  -0.52661
 Alpha  occ. eigenvalues --   -0.51957  -0.51861  -0.51680  -0.51048  -0.50922
 Alpha  occ. eigenvalues --   -0.50230  -0.49840  -0.49456  -0.48941  -0.48595
 Alpha  occ. eigenvalues --   -0.48292  -0.48076  -0.47956  -0.47764  -0.47715
 Alpha  occ. eigenvalues --   -0.47350  -0.45846  -0.45127  -0.43944  -0.42554
 Alpha  occ. eigenvalues --   -0.41949  -0.39535  -0.38878  -0.38066  -0.37420
 Alpha  occ. eigenvalues --   -0.37301  -0.36222  -0.35683  -0.35560  -0.34626
 Alpha  occ. eigenvalues --   -0.34427  -0.34309  -0.33299  -0.32926  -0.32615
 Alpha  occ. eigenvalues --   -0.32362  -0.32184  -0.32040  -0.31853  -0.31648
 Alpha  occ. eigenvalues --   -0.31048  -0.27537  -0.26442  -0.25556
 Alpha virt. eigenvalues --    0.02964   0.06166   0.07078   0.08073   0.08888
 Alpha virt. eigenvalues --    0.09472   0.09687   0.10305   0.10820   0.12685
 Alpha virt. eigenvalues --    0.13081   0.13580   0.14225   0.14698   0.15154

 Mulliken charges:
               1
     1  N   -0.310654
     2  C    0.180309
     3  C    0.026854
     4  N   -0.253286
     5  C    0.126011
     6  H    0.028738
     7  N   -0.283986
     8  C    0.134572
     9  H    0.017372
    10  N   -0.289835
    11  C    0.237051
    12  C    0.092144
    13  N   -0.031096
    14  H    0.109063
    15  H    0.090563
    16  H    0.028667
    17  H    0.037033
    18  H    0.024039
    19  N   -0.306002
    20  C    0.258266
    21  C    0.183183
    22  N   -0.123032
    23  H    0.115208
    24  H    0.119119
    25  N   -0.308711
    26  C    0.246110
    27  N   -0.139872
    28  H    0.117934
    29  C    0.182484
    30  O   -0.327762
    31  C   -0.013551
    32  N   -0.233188
    33  C    0.126925
    34  H    0.027996
    35  H    0.028999
    36  H    0.029186
    37  H    0.022107
    38  H    0.054164
    39  H    0.063742
    40  H    0.075417
    41  H    0.027435
    42  C   -0.063471
    43  O   -0.278558
    44  C    0.182613
    45  H    0.134568
    46  N   -0.126594
    47  O   -0.350868
    48  C    0.346549
    49  H    0.041226
    50  C    0.147195
    51  C    0.038140
    52  N   -0.288378
    53  H    0.031442
    54  H    0.040284
    55  H    0.011601
    56  H    0.114289
    57  H    0.120832
    58  N   -0.034417
    59  C    0.117176
    60  C    0.239596
    61  N   -0.278772
    62  H    0.028440
    63  C    0.156775
    64  N   -0.306726
    65  H    0.022844
    66  C    0.124207
    67  N   -0.245936
    68  C    0.007559
    69  C    0.182908
    70  N   -0.304240
 Sum of Mulliken charges =  -0.00000

 Dipole moment (field-independent basis, Debye):
    X=              4.2390    Y=              4.7669    Z=              5.3486  Tot=              8.3246
 Quadrupole moment (field-independent basis, Debye-Ang):
   XX=           -142.0692   YY=           -230.0134   ZZ=           -250.1391
   XY=              5.0823   XZ=             26.6795   YZ=              9.1639

 Normal termination of Gaussian 16 at Thu Jan 25 17:53:41 2018.
