 Gaussian 16, Revision A.03,
 Gaussian 16:  EM64L-G16RevA.03 25-Dec-2016

 ---------------------------------------
 #p wb97xd/cc-pvdz sp scf=(maxcycles=20)
 ---------------------------------------

 ------------------
 Base pair stacking
 ------------------
 Symbolic Z-matrix:
 Charge =  0 Multiplicity = 1

                         Standard orientation:
 ---------------------------------------------------------------------
 Center     Atomic      Atomic             Coordinates (Angstroms)
 Number     Number       Type             X           Y           Z
 ---------------------------------------------------------------------
      1          7           0       -5.987742   -1.449590    0.426861
      2          6           0       -7.239343   -1.201701    1.168509
      3          6           0       -3.867079   -1.676395   -0.110394
      4          7           0       -4.590885   -1.957064   -1.260203
      5          6           0       -5.839535   -1.809185   -0.890511
      6          1           0       -6.700635   -1.951255   -1.544162
      7          7           0       -2.096582   -1.336787    1.410459
      8          6           0       -3.034106   -1.055678    2.321281
      9          1           0       -2.658960   -0.804083    3.312355
     10          7           0       -4.359245   -1.038771    2.192275
     11          6           0       -4.714439   -1.361914    0.937744
     12          6           0       -2.486190   -1.658175    0.157460
     13          7           0       -1.551811   -1.939106   -0.753145
     14          1           0       -1.794514   -2.182089   -1.692971
     15          1           0       -0.577895   -1.916277   -0.527095
     16          1           0       -7.803024   -2.027756    1.159351
     17          1           0       -7.024717   -0.956261    2.113410
     18          1           0       -7.741980   -0.452460    0.737249
     19          7           0       -4.231321    1.888505   -0.652161
     20          6           0       -2.910627    2.019897   -0.296417
     21          6           0       -5.377096    2.434943    0.102354
     22          7           0       -0.488350    3.212558    1.888051
     23          1           0        0.508023    3.193561    1.966293
     24          1           0       -0.990856    3.693334    2.607121
     25          7           0       -2.441516    2.665076    0.793413
     26          6           0       -1.123003    2.620210    0.865190
     27          7           0       -0.323257    1.992099   -0.058602
     28          1           0        0.675918    2.008439    0.076821
     29          6           0       -0.784254    1.322087   -1.187517
     30          8           0        0.022315    0.788158   -1.958939
     31          6           0       -2.198851    1.361700   -1.278229
     32          7           0       -3.055448    0.827839   -2.231179
     33          6           0       -4.247600    1.164561   -1.819330
     34          1           0       -5.176322    0.909722   -2.330996
     35          1           0       -5.979116    1.688664    0.384223
     36          1           0       -5.041871    2.915079    0.911894
     37          1           0       -5.885228    3.072659   -0.475510
     38          1           0        5.506687    1.898817    1.659347
     39          1           0        5.692838    3.228311    0.518095
     40          1           0        4.159989    2.997965    1.359921
     41          1           0        5.689015   -0.523778   -2.493282
     42          6           0        4.981479    0.071152   -1.915634
     43          8           0        3.080729   -0.690638   -3.113105
     44          6           0        3.586805   -0.001523   -2.227786
     45          1           0        1.787028    0.765793   -1.627482
     46          7           0        2.778912    0.790436   -1.436991
     47          8           0        2.382860    2.278615    0.232046
     48          6           0        3.174669    1.614047   -0.412983
     49          1           0        6.447486    0.956199   -0.645468
     50          6           0        5.398037    0.865355   -0.922488
     51          6           0        5.004626    2.495534    0.912398
     52          7           0        4.534528    1.629904   -0.172696
     53          1           0        5.433966   -1.163812    3.848329
     54          1           0        4.183141   -0.130997    3.672749
     55          1           0        5.662287    0.276635    3.115937
     56          1           0        1.659267   -2.781279   -2.332368
     57          1           0        3.348288   -2.982379   -2.202521
     58          7           0        2.495963   -2.644247   -1.801991
     59          6           0        2.477073   -2.037682   -0.613332
     60          6           0        3.445870   -1.177420    1.382438
     61          7           0        2.286593   -0.733507    1.895718
     62          1           0        0.297233   -0.667068    1.407177
     63          6           0        1.278286   -0.995211    1.066407
     64          7           0        1.295178   -1.602617   -0.124533
     65          1           0        6.624884   -1.749510    1.245587
     66          6           0        5.554427   -1.679452    1.050259
     67          7           0        4.962303   -2.133055   -0.027391
     68          6           0        3.625019   -1.821187    0.170421
     69          6           0        5.019785   -0.477959    3.249945
     70          7           0        4.696696   -1.088996    1.946012
 ---------------------------------------------------------------------

 SCF Done:  E(RwB97XD) =  -2048.73707567     A.U. after   15 cycles

 The electronic state is 1-A.
 Alpha  occ. eigenvalues --  -19.25432 -19.21928 -19.20721 -14.52136 -14.51611
 Alpha  occ. eigenvalues --  -14.49567 -14.48821 -14.47457 -14.46946 -14.46663
 Alpha  occ. eigenvalues --  -14.45801 -14.44301 -14.43224 -14.42921 -14.42527
 Alpha  occ. eigenvalues --  -14.42076 -14.41997 -14.41449 -14.40773 -14.40731
 Alpha  occ. eigenvalues --  -10.45111 -10.41219 -10.39704 -10.38301 -10.38254
 Alpha  occ. eigenvalues --  -10.36995 -10.36920 -10.36214 -10.35951 -10.35400
 Alpha  occ. eigenvalues --  -10.34802 -10.34763 -10.34347 -10.34066 -10.33625
 Alpha  occ. eigenvalues --  -10.33554 -10.33296 -10.31835 -10.31466 -10.31005
 Alpha  occ. eigenvalues --  -10.30461 -10.29166 -10.28119  -1.19068  -1.14252
 Alpha  occ. eigenvalues --   -1.13234  -1.13099  -1.12102  -1.10612  -1.09035
 Alpha  occ. eigenvalues --   -1.08591  -1.07788  -1.05556  -1.03314  -1.02279
 Alpha  occ. eigenvalues --   -1.00931  -0.99885  -0.99746  -0.98530  -0.97643
 Alpha  occ. eigenvalues --   -0.96591  -0.95474  -0.93165  -0.90525  -0.86678
 Alpha  occ. eigenvalues --   -0.85172  -0.84659  -0.84110  -0.83563  -0.83036
 Alpha  occ. eigenvalues --   -0.82547  -0.78481  -0.75837  -0.74621  -0.73697
 Alpha  occ. eigenvalues --   -0.73572  -0.73512  -0.73056  -0.71638  -0.69179
 Alpha  occ. eigenvalues --   -0.67364  -0.66891  -0.66206  -0.65506  -0.64330
 Alpha  occ. eigenvalues --   -0.63662  -0.63317  -0.62903  -0.62591  -0.61725
 Alpha  occ. eigenvalues --   -0.60781  -0.60765  -0.59360  -0.59139  -0.58376
 Alpha  occ. eigenvalues --   -0.58337  -0.58037  -0.57736  -0.57070  -0.56306
 Alpha  occ. eigenvalues --   -0.55828  -0.55729  -0.55301  -0.54438  -0.54203
 Alpha  occ. eigenvalues --   -0.53669  -0.53571  -0.52919  -0.52780  -0.52427
 Alpha  occ. eigenvalues --   -0.52305  -0.51779  -0.51665  -0.51459  -0.50819
 Alpha  occ. eigenvalues --   -0.50298  -0.49757  -0.49647  -0.49180  -0.48934
 Alpha  occ. eigenvalues --   -0.48770  -0.48359  -0.47794  -0.47649  -0.47506
 Alpha  occ. eigenvalues --   -0.47401  -0.45995  -0.45377  -0.42993  -0.42501
 Alpha  occ. eigenvalues --   -0.41659  -0.39686  -0.39146  -0.37746  -0.37558
 Alpha  occ. eigenvalues --   -0.37221  -0.37124  -0.36464  -0.35759  -0.34395
 Alpha  occ. eigenvalues --   -0.34149  -0.33797  -0.33679  -0.33336  -0.33134
 Alpha  occ. eigenvalues --   -0.32721  -0.32406  -0.31920  -0.31561  -0.30922
 Alpha  occ. eigenvalues --   -0.30516  -0.27979  -0.26428  -0.25326
 Alpha virt. eigenvalues --    0.03176   0.04956   0.07296   0.07640   0.08985
 Alpha virt. eigenvalues --    0.09774   0.09831   0.10446   0.11045   0.12014
 Alpha virt. eigenvalues --    0.13193   0.13896   0.13946   0.14710   0.14781

 Mulliken charges:
               1
     1  N   -0.308731
     2  C    0.178575
     3  C    0.038628
     4  N   -0.238702
     5  C    0.114199
     6  H    0.025877
     7  N   -0.289918
     8  C    0.140278
     9  H    0.013790
    10  N   -0.289274
    11  C    0.238966
    12  C    0.088703
    13  N   -0.038730
    14  H    0.113754
    15  H    0.093992
    16  H    0.029366
    17  H    0.036132
    18  H    0.022013
    19  N   -0.303850
    20  C    0.255138
    21  C    0.185972
    22  N   -0.123656
    23  H    0.117118
    24  H    0.118867
    25  N   -0.309228
    26  C    0.245713
    27  N   -0.147442
    28  H    0.120253
    29  C    0.185985
    30  O   -0.327959
    31  C   -0.024550
    32  N   -0.222411
    33  C    0.135877
    34  H    0.021182
    35  H    0.015319
    36  H    0.032055
    37  H    0.023636
    38  H    0.040122
    39  H    0.061613
    40  H    0.077728
    41  H    0.021781
    42  C   -0.051716
    43  O   -0.276973
    44  C    0.143153
    45  H    0.135610
    46  N   -0.119095
    47  O   -0.348666
    48  C    0.345086
    49  H    0.038145
    50  C    0.157159
    51  C    0.045332
    52  N   -0.282174
    53  H    0.033735
    54  H    0.041201
    55  H    0.017826
    56  H    0.119666
    57  H    0.114639
    58  N   -0.007469
    59  C    0.083450
    60  C    0.237677
    61  N   -0.271187
    62  H    0.027893
    63  C    0.156102
    64  N   -0.300011
    65  H    0.029267
    66  C    0.116527
    67  N   -0.243167
    68  C    0.012533
    69  C    0.180027
    70  N   -0.302756
 Sum of Mulliken charges =  -0.00000

 Dipole moment (field-independent basis, Debye):
    X=              4.1212    Y=              3.7241    Z=              6.2034  Tot=              8.3268
 Quadrupole moment (field-independent basis, Debye-Ang):
   XX=           -145.4034   YY=           -232.1103   ZZ=           -250.8247
   XY=              4.8752   XZ=             17.7746   YZ=             14.2462

 Normal termination of Gaussian 16 at Thu Jan 25 10:44:51 2018.
