 Gaussian 16, Revision A.03,
 Gaussian 16:  EM64L-G16RevA.03 25-Dec-2016

 ---------------------------------------
 #p wb97xd/cc-pvdz sp scf=(maxcycles=20)
 ---------------------------------------

 ------------------
 Base pair stacking
 ------------------
 Symbolic Z-matrix:
 Charge =  0 Multiplicity = 1

                         Standard orientation:
 ---------------------------------------------------------------------
 Center     Atomic      Atomic             Coordinates (Angstroms)
 Number     Number       Type             X           Y           Z
 ---------------------------------------------------------------------
      1          7           0        4.175378    2.220662   -0.419408
      2          6           0        5.398176    2.586467    0.321495
      3          6           0        2.085688    1.792232   -0.955108
      4          7           0        2.831906    1.583804   -2.105956
      5          6           0        4.061006    1.850260   -1.737153
      6          1           0        4.931094    1.792313   -2.391766
      7          7           0        0.292336    1.958442    0.567780
      8          6           0        1.199495    2.326955    1.478177
      9          1           0        0.802948    2.540100    2.469938
     10          7           0        2.516765    2.471050    1.348022
     11          6           0        2.900047    2.185141    0.092726
     12          6           0        0.709694    1.677570   -0.686013
     13          7           0       -0.194358    1.309531   -1.596189
     14          1           0        0.069584    1.092189   -2.536577
     15          1           0       -1.165747    1.238538   -1.369249
     16          1           0        5.825996    3.380751   -0.110085
     17          1           0        5.161956    2.808935    1.266926
     18          1           0        6.038685    1.818586    0.311594
     19          7           0        6.005312   -0.868270    0.223253
     20          6           0        4.696522   -0.985819    0.624860
     21          6           0        7.149533   -0.587414    1.113540
     22          7           0        2.308671   -0.943652    3.146397
     23          1           0        1.319712   -1.064319    3.227848
     24          1           0        2.813683   -0.755159    3.989107
     25          7           0        4.239563   -0.865464    1.890071
     26          6           0        2.930608   -1.030500    1.960832
     27          7           0        2.128688   -1.293358    0.876703
     28          1           0        1.137403   -1.404788    1.024740
     29          6           0        2.577255   -1.421383   -0.434128
     30          8           0        1.769807   -1.659519   -1.340800
     31          6           0        3.981491   -1.246622   -0.526017
     32          7           0        4.824430   -1.291900   -1.627971
     33          6           0        6.011878   -1.062473   -1.136486
     34          1           0        6.930080   -1.023807   -1.723581
     35          1           0        7.592443    0.262982    0.831638
     36          1           0        6.823236   -0.496231    2.053480
     37          1           0        7.806775   -1.338485    1.061390
     38          1           0       -3.772602   -1.213360    2.331588
     39          1           0       -3.631525   -2.969606    2.313528
     40          1           0       -2.242323   -1.978724    2.760339
     41          1           0       -3.960184   -2.063662   -2.400044
     42          6           0       -3.221938   -2.012594   -1.599659
     43          8           0       -1.367971   -1.848539   -3.070371
     44          6           0       -1.834955   -1.897743   -1.932700
     45          1           0        0.002062   -1.759344   -1.041339
     46          7           0       -0.985829   -1.840705   -0.845978
     47          8           0       -0.509315   -1.825260    1.374363
     48          6           0       -1.335419   -1.882428    0.480522
     49          1           0       -4.635575   -2.142502   -0.008878
     50          6           0       -3.593889   -2.055668   -0.314976
     51          6           0       -3.112240   -2.042055    2.123648
     52          7           0       -2.690800   -1.993782    0.720869
     53          1           0       -7.265066    1.754104    2.918565
     54          1           0       -5.860077    0.996569    3.256549
     55          1           0       -7.217579    0.125217    3.007518
     56          1           0       -3.385110    0.706984   -3.319625
     57          1           0       -5.089721    0.659284   -3.273301
     58          7           0       -4.223739    0.712289   -2.774808
     59          6           0       -4.189893    0.786735   -1.442718
     60          6           0       -5.143748    0.878683    0.735220
     61          7           0       -3.966297    0.948832    1.377963
     62          1           0       -1.962763    0.984174    0.947609
     63          6           0       -2.958036    0.930619    0.508491
     64          7           0       -2.989888    0.856104   -0.826061
     65          1           0       -8.356839    0.765222    0.395518
     66          6           0       -7.277908    0.788431    0.239588
     67          7           0       -6.693147    0.741061   -0.932382
     68          6           0       -5.339788    0.797496   -0.632443
     69          6           0       -6.710498    0.942687    2.734047
     70          7           0       -6.400306    0.872376    1.292916
 ---------------------------------------------------------------------

 SCF Done:  E(RwB97XD) =  -2048.75302285     A.U. after   15 cycles

 The electronic state is 1-A.
 Alpha  occ. eigenvalues --  -19.25129 -19.21530 -19.20820 -14.52479 -14.51574
 Alpha  occ. eigenvalues --  -14.49740 -14.48939 -14.48173 -14.47164 -14.47062
 Alpha  occ. eigenvalues --  -14.46793 -14.45288 -14.44712 -14.44539 -14.42988
 Alpha  occ. eigenvalues --  -14.42372 -14.41744 -14.41569 -14.41263 -14.41054
 Alpha  occ. eigenvalues --  -10.44708 -10.41555 -10.40055 -10.39534 -10.38555
 Alpha  occ. eigenvalues --  -10.37882 -10.37402 -10.36692 -10.36218 -10.36100
 Alpha  occ. eigenvalues --  -10.35043 -10.34168 -10.34089 -10.33961 -10.33790
 Alpha  occ. eigenvalues --  -10.33768 -10.33736 -10.32731 -10.32024 -10.31184
 Alpha  occ. eigenvalues --  -10.30116 -10.28980 -10.28711  -1.18671  -1.15237
 Alpha  occ. eigenvalues --   -1.13592  -1.12481  -1.11549  -1.11282  -1.09540
 Alpha  occ. eigenvalues --   -1.08831  -1.08400  -1.05691  -1.05009  -1.01769
 Alpha  occ. eigenvalues --   -1.01048  -1.00928  -0.99952  -0.99011  -0.97373
 Alpha  occ. eigenvalues --   -0.97230  -0.97011  -0.93368  -0.90121  -0.87733
 Alpha  occ. eigenvalues --   -0.85941  -0.84887  -0.84239  -0.83352  -0.82630
 Alpha  occ. eigenvalues --   -0.82546  -0.78054  -0.77107  -0.75177  -0.75034
 Alpha  occ. eigenvalues --   -0.73924  -0.73321  -0.72583  -0.71552  -0.70475
 Alpha  occ. eigenvalues --   -0.67750  -0.66902  -0.66739  -0.65800  -0.64853
 Alpha  occ. eigenvalues --   -0.64276  -0.63308  -0.63166  -0.62892  -0.62098
 Alpha  occ. eigenvalues --   -0.60816  -0.60608  -0.60095  -0.59703  -0.58876
 Alpha  occ. eigenvalues --   -0.58789  -0.58630  -0.58475  -0.56968  -0.56030
 Alpha  occ. eigenvalues --   -0.55781  -0.55758  -0.55319  -0.54607  -0.54345
 Alpha  occ. eigenvalues --   -0.54227  -0.53699  -0.53462  -0.53137  -0.52900
 Alpha  occ. eigenvalues --   -0.52502  -0.51970  -0.51453  -0.50862  -0.50718
 Alpha  occ. eigenvalues --   -0.50591  -0.50195  -0.49620  -0.49379  -0.49324
 Alpha  occ. eigenvalues --   -0.48874  -0.48709  -0.48280  -0.47376  -0.47304
 Alpha  occ. eigenvalues --   -0.47199  -0.45907  -0.45480  -0.45043  -0.42846
 Alpha  occ. eigenvalues --   -0.41559  -0.40793  -0.39004  -0.37914  -0.37746
 Alpha  occ. eigenvalues --   -0.37662  -0.37565  -0.37437  -0.35346  -0.34949
 Alpha  occ. eigenvalues --   -0.34649  -0.34221  -0.33797  -0.33723  -0.33258
 Alpha  occ. eigenvalues --   -0.33238  -0.32673  -0.32152  -0.31445  -0.31366
 Alpha  occ. eigenvalues --   -0.30926  -0.29796  -0.26496  -0.25842
 Alpha virt. eigenvalues --    0.03482   0.04326   0.06733   0.07521   0.08599
 Alpha virt. eigenvalues --    0.09079   0.09339   0.10292   0.10416   0.12559
 Alpha virt. eigenvalues --    0.13524   0.13593   0.13892   0.14301   0.14669

 Mulliken charges:
               1
     1  N   -0.300584
     2  C    0.198219
     3  C    0.035191
     4  N   -0.236914
     5  C    0.147060
     6  H    0.027425
     7  N   -0.291938
     8  C    0.123062
     9  H    0.008195
    10  N   -0.279214
    11  C    0.236129
    12  C    0.079410
    13  N   -0.055568
    14  H    0.119290
    15  H    0.090683
    16  H    0.026484
    17  H    0.036383
    18  H   -0.007573
    19  N   -0.303601
    20  C    0.237131
    21  C    0.178688
    22  N   -0.117149
    23  H    0.119053
    24  H    0.119582
    25  N   -0.306124
    26  C    0.247193
    27  N   -0.138613
    28  H    0.120068
    29  C    0.184380
    30  O   -0.317026
    31  C   -0.007328
    32  N   -0.212695
    33  C    0.102422
    34  H    0.024394
    35  H    0.021852
    36  H    0.033099
    37  H    0.028679
    38  H    0.057580
    39  H    0.050724
    40  H    0.071340
    41  H    0.015150
    42  C   -0.084976
    43  O   -0.280106
    44  C    0.177908
    45  H    0.130797
    46  N   -0.124853
    47  O   -0.350712
    48  C    0.340325
    49  H    0.044593
    50  C    0.147748
    51  C    0.040753
    52  N   -0.270635
    53  H    0.035638
    54  H    0.042044
    55  H    0.029209
    56  H    0.126549
    57  H    0.119970
    58  N   -0.053719
    59  C    0.085686
    60  C    0.233429
    61  N   -0.274641
    62  H    0.037652
    63  C    0.156739
    64  N   -0.302388
    65  H    0.039298
    66  C    0.139687
    67  N   -0.257786
    68  C    0.042609
    69  C    0.178076
    70  N   -0.313436
 Sum of Mulliken charges =  -0.00000

 Dipole moment (field-independent basis, Debye):
    X=             -4.5599    Y=              0.7958    Z=              7.8827  Tot=              9.1412
 Quadrupole moment (field-independent basis, Debye-Ang):
   XX=           -144.4543   YY=           -251.9476   ZZ=           -235.3689
   XY=             12.9842   XZ=             -3.1905   YZ=            -16.8986

 Normal termination of Gaussian 16 at Fri Jan 26 14:04:34 2018.
