 Gaussian 16, Revision A.03,
 Gaussian 16:  EM64L-G16RevA.03 25-Dec-2016

 ---------------------------------------
 #p wb97xd/cc-pvdz sp scf=(maxcycles=20)
 ---------------------------------------

 ------------------
 Base pair stacking
 ------------------
 Symbolic Z-matrix:
 Charge =  0 Multiplicity = 1

                         Standard orientation:
 ---------------------------------------------------------------------
 Center     Atomic      Atomic             Coordinates (Angstroms)
 Number     Number       Type             X           Y           Z
 ---------------------------------------------------------------------
      1          7           0       -6.275383   -1.229950    0.416867
      2          6           0       -7.526577   -0.893192    1.123358
      3          6           0       -4.157091   -1.557051   -0.076213
      4          7           0       -4.876976   -1.896643   -1.212511
      5          6           0       -6.124356   -1.685982   -0.869962
      6          1           0       -6.982457   -1.848236   -1.522862
      7          7           0       -2.393170   -1.163579    1.439282
      8          6           0       -3.331217   -0.791070    2.316146
      9          1           0       -2.959025   -0.481325    3.291745
     10          7           0       -4.653781   -0.743974    2.169507
     11          6           0       -5.005448   -1.144252    0.936405
     12          6           0       -2.779187   -1.560983    0.207158
     13          7           0       -1.844280   -1.933198   -0.669537
     14          1           0       -2.084375   -2.234670   -1.592948
     15          1           0       -0.872556   -1.923398   -0.433340
     16          1           0       -8.115084   -1.700711    1.165164
     17          1           0       -7.314523   -0.588081    2.051289
     18          1           0       -8.001535   -0.161706    0.634146
     19          7           0       -3.916203    1.955064   -0.800910
     20          6           0       -2.595933    2.071970   -0.438594
     21          6           0       -5.052655    2.587256   -0.101253
     22          7           0       -0.161519    3.343531    1.687085
     23          1           0        0.832921    3.300517    1.779077
     24          1           0       -0.656659    3.888636    2.364148
     25          7           0       -2.118850    2.778329    0.609022
     26          6           0       -0.803161    2.699494    0.700462
     27          7           0       -0.013277    1.984189   -0.166677
     28          1           0        0.984449    1.980365   -0.020099
     29          6           0       -0.482586    1.250075   -1.251423
     30          8           0        0.315388    0.639237   -1.973132
     31          6           0       -1.894279    1.325187   -1.362612
     32          7           0       -2.756700    0.751006   -2.286432
     33          6           0       -3.942279    1.151259   -1.914405
     34          1           0       -4.872908    0.888600   -2.418593
     35          1           0       -5.680114    1.880978    0.224750
     36          1           0       -4.711464    3.113232    0.676692
     37          1           0       -5.534956    3.197361   -0.728924
     38          1           0        5.792683    1.839379    1.627241
     39          1           0        6.031356    3.078775    0.397785
     40          1           0        4.483406    2.954138    1.234250
     41          1           0        5.944698   -0.874963   -2.342109
     42          6           0        5.249609   -0.219942   -1.816729
     43          8           0        3.339218   -1.007636   -2.981644
     44          6           0        3.856732   -0.273026   -2.140629
     45          1           0        2.074996    0.587932   -1.618608
     46          7           0        3.065108    0.596489   -1.417772
     47          8           0        2.697115    2.210007    0.137333
     48          6           0        3.475016    1.478282   -0.449284
     49          1           0        6.728492    0.708709   -0.593491
     50          6           0        5.679734    0.629730   -0.876693
     51          6           0        5.316970    2.396472    0.833885
     52          7           0        4.832119    1.470670   -0.193511
     53          1           0        5.113051   -1.042564    3.954103
     54          1           0        3.896258    0.011961    3.690519
     55          1           0        5.392944    0.335105    3.125184
     56          1           0        1.356046   -2.979900   -2.144843
     57          1           0        3.036680   -3.221408   -1.979812
     58          7           0        2.190903   -2.830644   -1.614873
     59          6           0        2.178020   -2.141304   -0.472144
     60          6           0        3.151550   -1.171327    1.470309
     61          7           0        2.001025   -0.658009    1.936372
     62          1           0        0.019877   -0.567184    1.419222
     63          6           0        0.993990   -0.947582    1.114822
     64          7           0        1.004874   -1.637870   -0.030155
     65          1           0        6.312884   -1.845849    1.414273
     66          6           0        5.247181   -1.757997    1.200966
     67          7           0        4.652870   -2.268827    0.150470
     68          6           0        3.323720   -1.904167    0.308917
     69          6           0        4.726327   -0.388716    3.303785
     70          7           0        4.398479   -1.080493    2.042052
 ---------------------------------------------------------------------

 SCF Done:  E(RwB97XD) =  -2048.74263730     A.U. after   15 cycles

 The electronic state is 1-A.
 Alpha  occ. eigenvalues --  -19.25580 -19.22114 -19.20730 -14.52211 -14.51368
 Alpha  occ. eigenvalues --  -14.49731 -14.48717 -14.47556 -14.46961 -14.46663
 Alpha  occ. eigenvalues --  -14.45652 -14.44054 -14.42952 -14.42688 -14.42562
 Alpha  occ. eigenvalues --  -14.42323 -14.41986 -14.41581 -14.40813 -14.40781
 Alpha  occ. eigenvalues --  -10.45235 -10.41214 -10.39893 -10.38279 -10.38041
 Alpha  occ. eigenvalues --  -10.37091 -10.36636 -10.36038 -10.35853 -10.35554
 Alpha  occ. eigenvalues --  -10.34986 -10.34521 -10.34319 -10.34211 -10.33714
 Alpha  occ. eigenvalues --  -10.33375 -10.33252 -10.31890 -10.31177 -10.30823
 Alpha  occ. eigenvalues --  -10.30587 -10.29342 -10.28090  -1.19198  -1.13992
 Alpha  occ. eigenvalues --   -1.13235  -1.13121  -1.12282  -1.10578  -1.09136
 Alpha  occ. eigenvalues --   -1.08595  -1.07535  -1.05656  -1.03034  -1.02384
 Alpha  occ. eigenvalues --   -1.01044  -0.99750  -0.99647  -0.98524  -0.97799
 Alpha  occ. eigenvalues --   -0.96539  -0.95208  -0.93253  -0.90629  -0.86424
 Alpha  occ. eigenvalues --   -0.84947  -0.84784  -0.84065  -0.83684  -0.83153
 Alpha  occ. eigenvalues --   -0.82449  -0.78589  -0.75569  -0.74581  -0.73647
 Alpha  occ. eigenvalues --   -0.73633  -0.73373  -0.73147  -0.71767  -0.68927
 Alpha  occ. eigenvalues --   -0.67345  -0.67012  -0.66325  -0.65242  -0.64339
 Alpha  occ. eigenvalues --   -0.63696  -0.63403  -0.62700  -0.62585  -0.61703
 Alpha  occ. eigenvalues --   -0.60857  -0.60740  -0.59315  -0.59084  -0.58354
 Alpha  occ. eigenvalues --   -0.58165  -0.57869  -0.57670  -0.57138  -0.56374
 Alpha  occ. eigenvalues --   -0.55901  -0.55787  -0.55170  -0.54298  -0.54164
 Alpha  occ. eigenvalues --   -0.53643  -0.53521  -0.52880  -0.52705  -0.52500
 Alpha  occ. eigenvalues --   -0.52316  -0.51636  -0.51568  -0.51523  -0.50912
 Alpha  occ. eigenvalues --   -0.50221  -0.49782  -0.49423  -0.49072  -0.48843
 Alpha  occ. eigenvalues --   -0.48588  -0.48332  -0.47910  -0.47739  -0.47619
 Alpha  occ. eigenvalues --   -0.47433  -0.45840  -0.45462  -0.43246  -0.42640
 Alpha  occ. eigenvalues --   -0.41793  -0.39451  -0.39249  -0.37888  -0.37256
 Alpha  occ. eigenvalues --   -0.37159  -0.37065  -0.36302  -0.35861  -0.34447
 Alpha  occ. eigenvalues --   -0.34241  -0.34074  -0.33450  -0.33360  -0.32914
 Alpha  occ. eigenvalues --   -0.32701  -0.32284  -0.31900  -0.31690  -0.31032
 Alpha  occ. eigenvalues --   -0.30661  -0.27889  -0.26440  -0.25403
 Alpha virt. eigenvalues --    0.02856   0.05715   0.07171   0.07471   0.09013
 Alpha virt. eigenvalues --    0.09786   0.10056   0.10335   0.11019   0.12245
 Alpha virt. eigenvalues --    0.13223   0.13754   0.13828   0.14727   0.14882

 Mulliken charges:
               1
     1  N   -0.310015
     2  C    0.179188
     3  C    0.036169
     4  N   -0.244239
     5  C    0.118467
     6  H    0.027241
     7  N   -0.287252
     8  C    0.139670
     9  H    0.014889
    10  N   -0.289541
    11  C    0.236092
    12  C    0.093348
    13  N   -0.038509
    14  H    0.112310
    15  H    0.093217
    16  H    0.029526
    17  H    0.036563
    18  H    0.022484
    19  N   -0.304868
    20  C    0.256083
    21  C    0.185600
    22  N   -0.123161
    23  H    0.116659
    24  H    0.118803
    25  N   -0.308508
    26  C    0.243893
    27  N   -0.146720
    28  H    0.122047
    29  C    0.178663
    30  O   -0.326782
    31  C   -0.015886
    32  N   -0.229631
    33  C    0.136317
    34  H    0.023525
    35  H    0.019421
    36  H    0.030965
    37  H    0.022427
    38  H    0.045382
    39  H    0.062676
    40  H    0.076946
    41  H    0.023554
    42  C   -0.050191
    43  O   -0.275210
    44  C    0.155337
    45  H    0.135536
    46  N   -0.124224
    47  O   -0.347419
    48  C    0.345556
    49  H    0.039110
    50  C    0.149978
    51  C    0.042076
    52  N   -0.283744
    53  H    0.033709
    54  H    0.041624
    55  H    0.008917
    56  H    0.117302
    57  H    0.116655
    58  N   -0.016442
    59  C    0.099865
    60  C    0.230560
    61  N   -0.272433
    62  H    0.029298
    63  C    0.154206
    64  N   -0.303038
    65  H    0.026877
    66  C    0.122322
    67  N   -0.241646
    68  C    0.004945
    69  C    0.183814
    70  N   -0.300352
 Sum of Mulliken charges =  -0.00000

 Dipole moment (field-independent basis, Debye):
    X=              4.0659    Y=              4.0593    Z=              5.8966  Tot=              8.2328
 Quadrupole moment (field-independent basis, Debye-Ang):
   XX=           -144.7389   YY=           -230.6173   ZZ=           -251.6675
   XY=              5.1599   XZ=             20.6906   YZ=             12.3930

 Normal termination of Gaussian 16 at Thu Jan 25 11:36:03 2018.
