 Gaussian 16, Revision A.03,
 Gaussian 16:  EM64L-G16RevA.03 25-Dec-2016

 ---------------------------------------
 #p wb97xd/cc-pvdz sp scf=(maxcycles=20)
 ---------------------------------------

 ------------------
 Base pair stacking
 ------------------
 Symbolic Z-matrix:
 Charge =  0 Multiplicity = 1

                         Standard orientation:
 ---------------------------------------------------------------------
 Center     Atomic      Atomic             Coordinates (Angstroms)
 Number     Number       Type             X           Y           Z
 ---------------------------------------------------------------------
      1          7           0       -6.803310   -0.697152    0.422627
      2          6           0       -8.039625   -0.042820    0.893141
      3          6           0       -4.703477   -1.302520    0.174498
      4          7           0       -5.429549   -2.028644   -0.758404
      5          6           0       -6.665556   -1.634865   -0.571580
      6          1           0       -7.524327   -1.998995   -1.136266
      7          7           0       -2.936548   -0.430085    1.470551
      8          6           0       -3.860116    0.308620    2.094167
      9          1           0       -3.481027    0.961410    2.879292
     10          7           0       -5.175493    0.361766    1.894511
     11          6           0       -5.536655   -0.477513    0.909821
     12          6           0       -3.331822   -1.264561    0.484406
     13          7           0       -2.411374   -2.002772   -0.139293
     14          1           0       -2.658726   -2.634036   -0.875182
     15          1           0       -1.443701   -1.950006    0.107624
     16          1           0       -8.677047   -0.735371    1.231128
     17          1           0       -7.820082    0.595033    1.630756
     18          1           0       -8.463024    0.456984    0.137546
     19          7           0       -3.324881    1.664628   -1.322264
     20          6           0       -2.010634    1.827431   -0.955775
     21          6           0       -4.456058    2.473834   -0.825958
     22          7           0        0.412788    3.495614    0.889735
     23          1           0        1.402679    3.448449    1.020593
     24          1           0       -0.080024    4.197531    1.404685
     25          7           0       -1.535655    2.746598   -0.087689
     26          6           0       -0.225988    2.655778    0.061156
     27          7           0        0.560201    1.735915   -0.589432
     28          1           0        1.553363    1.739538   -0.414578
     29          6           0        0.092948    0.780847   -1.486871
     30          8           0        0.887198   -0.003607   -2.020278
     31          6           0       -1.312282    0.866027   -1.657059
     32          7           0       -2.170817    0.114775   -2.447904
     33          6           0       -3.350927    0.623091   -2.217343
     34          1           0       -4.277339    0.274824   -2.675339
     35          1           0       -5.114748    1.880997   -0.363928
     36          1           0       -4.116374    3.158166   -0.182077
     37          1           0       -4.902067    2.932553   -1.593731
     38          1           0        6.312540    1.858598    1.371148
     39          1           0        6.622774    2.768129   -0.105732
     40          1           0        5.051575    2.885158    0.687381
     41          1           0        6.469527   -1.714102   -1.847207
     42          6           0        5.784351   -0.935532   -1.511655
     43          8           0        3.877407   -1.922413   -2.520001
     44          6           0        4.398773   -1.025338   -1.858024
     45          1           0        2.634920   -0.018002   -1.608176
     46          7           0        3.619564    0.010587   -1.383737
     47          8           0        3.268458    1.953190   -0.261139
     48          6           0        4.035285    1.083492   -0.635665
     49          1           0        7.263483    0.213684   -0.493205
     50          6           0        6.219865    0.098937   -0.783090
     51          6           0        5.875366    2.226761    0.454951
     52          7           0        5.384719    1.099308   -0.342449
     53          1           0        4.533067    0.293726    3.993095
     54          1           0        3.386488    1.217560    3.290262
     55          1           0        4.906686    1.211131    2.696092
     56          1           0        0.735650   -3.714134   -0.964951
     57          1           0        2.396249   -3.956520   -0.658723
     58          7           0        1.571857   -3.409633   -0.508686
     59          6           0        1.587979   -2.322732    0.265648
     60          6           0        2.596491   -0.711471    1.696881
     61          7           0        1.474298    0.003680    1.880371
     62          1           0       -0.491352   -0.016566    1.300363
     63          6           0        0.461050   -0.536508    1.206245
     64          7           0        0.442886   -1.625057    0.430165
     65          1           0        5.710882   -1.514995    2.024116
     66          6           0        4.655146   -1.464348    1.756160
     67          7           0        4.042905   -2.319648    0.974295
     68          6           0        2.736883   -1.853872    0.928289
     69          6           0        4.194844    0.653734    3.123613
     70          7           0        3.839894   -0.465155    2.229123
 ---------------------------------------------------------------------

 SCF Done:  E(RwB97XD) =  -2048.75158247     A.U. after   15 cycles

 The electronic state is 1-A.
 Alpha  occ. eigenvalues --  -19.25967 -19.21967 -19.20613 -14.52586 -14.51160
 Alpha  occ. eigenvalues --  -14.50103 -14.48492 -14.47824 -14.46780 -14.46541
 Alpha  occ. eigenvalues --  -14.45952 -14.43850 -14.42991 -14.42797 -14.42720
 Alpha  occ. eigenvalues --  -14.42578 -14.42025 -14.41908 -14.41161 -14.40709
 Alpha  occ. eigenvalues --  -10.45569 -10.41092 -10.40033 -10.38182 -10.38046
 Alpha  occ. eigenvalues --  -10.37576 -10.36563 -10.36463 -10.35986 -10.35618
 Alpha  occ. eigenvalues --  -10.35415 -10.34625 -10.34338 -10.34235 -10.34089
 Alpha  occ. eigenvalues --  -10.33196 -10.33101 -10.32080 -10.30988 -10.30916
 Alpha  occ. eigenvalues --  -10.30261 -10.29835 -10.28004  -1.19556  -1.13769
 Alpha  occ. eigenvalues --   -1.13154  -1.12933  -1.12691  -1.10452  -1.09458
 Alpha  occ. eigenvalues --   -1.08494  -1.07433  -1.06070  -1.02956  -1.02526
 Alpha  occ. eigenvalues --   -1.01499  -0.99638  -0.99477  -0.98423  -0.98192
 Alpha  occ. eigenvalues --   -0.96349  -0.95106  -0.93666  -0.91027  -0.86251
 Alpha  occ. eigenvalues --   -0.85164  -0.84802  -0.84035  -0.83886  -0.83488
 Alpha  occ. eigenvalues --   -0.82138  -0.78899  -0.75465  -0.74448  -0.74010
 Alpha  occ. eigenvalues --   -0.73560  -0.73368  -0.73204  -0.72182  -0.68826
 Alpha  occ. eigenvalues --   -0.67422  -0.67245  -0.66588  -0.65136  -0.64462
 Alpha  occ. eigenvalues --   -0.63799  -0.63653  -0.62668  -0.62550  -0.61593
 Alpha  occ. eigenvalues --   -0.61209  -0.61108  -0.59556  -0.59067  -0.58258
 Alpha  occ. eigenvalues --   -0.58226  -0.57856  -0.57559  -0.57405  -0.56404
 Alpha  occ. eigenvalues --   -0.56239  -0.55980  -0.55112  -0.54415  -0.54033
 Alpha  occ. eigenvalues --   -0.53702  -0.53504  -0.52943  -0.52897  -0.52690
 Alpha  occ. eigenvalues --   -0.52156  -0.51848  -0.51654  -0.51388  -0.51218
 Alpha  occ. eigenvalues --   -0.50125  -0.49998  -0.49453  -0.48682  -0.48641
 Alpha  occ. eigenvalues --   -0.48311  -0.48149  -0.47998  -0.47952  -0.47839
 Alpha  occ. eigenvalues --   -0.47364  -0.46004  -0.45174  -0.44110  -0.42996
 Alpha  occ. eigenvalues --   -0.42076  -0.39516  -0.39250  -0.38326  -0.37208
 Alpha  occ. eigenvalues --   -0.37154  -0.36260  -0.35999  -0.35853  -0.34817
 Alpha  occ. eigenvalues --   -0.34646  -0.34214  -0.33164  -0.33070  -0.32724
 Alpha  occ. eigenvalues --   -0.32630  -0.32275  -0.32024  -0.31851  -0.31775
 Alpha  occ. eigenvalues --   -0.31358  -0.28056  -0.26794  -0.25367
 Alpha virt. eigenvalues --    0.02888   0.05779   0.06783   0.08067   0.08945
 Alpha virt. eigenvalues --    0.09085   0.09873   0.10114   0.11159   0.12220
 Alpha virt. eigenvalues --    0.12795   0.13366   0.14508   0.14877   0.15095

 Mulliken charges:
               1
     1  N   -0.309098
     2  C    0.179700
     3  C    0.036164
     4  N   -0.252338
     5  C    0.127584
     6  H    0.029771
     7  N   -0.276129
     8  C    0.131938
     9  H    0.017629
    10  N   -0.285473
    11  C    0.224820
    12  C    0.087932
    13  N   -0.032836
    14  H    0.108270
    15  H    0.089519
    16  H    0.029594
    17  H    0.036704
    18  H    0.025268
    19  N   -0.300017
    20  C    0.250681
    21  C    0.188886
    22  N   -0.117672
    23  H    0.113888
    24  H    0.117547
    25  N   -0.302166
    26  C    0.232491
    27  N   -0.130993
    28  H    0.120621
    29  C    0.162121
    30  O   -0.325964
    31  C   -0.002896
    32  N   -0.228304
    33  C    0.120655
    34  H    0.026255
    35  H    0.020087
    36  H    0.029682
    37  H    0.021220
    38  H    0.059260
    39  H    0.065022
    40  H    0.076476
    41  H    0.029323
    42  C   -0.071398
    43  O   -0.267342
    44  C    0.178233
    45  H    0.133296
    46  N   -0.125375
    47  O   -0.346298
    48  C    0.340170
    49  H    0.042388
    50  C    0.146202
    51  C    0.035902
    52  N   -0.284464
    53  H    0.032864
    54  H    0.039560
    55  H   -0.013156
    56  H    0.116750
    57  H    0.121662
    58  N   -0.054875
    59  C    0.133696
    60  C    0.222751
    61  N   -0.276696
    62  H    0.031497
    63  C    0.161036
    64  N   -0.307553
    65  H    0.024019
    66  C    0.119809
    67  N   -0.244836
    68  C    0.020099
    69  C    0.194640
    70  N   -0.297802
 Sum of Mulliken charges =  -0.00000

 Dipole moment (field-independent basis, Debye):
    X=              3.8796    Y=              5.0936    Z=              5.1771  Tot=              8.2340
 Quadrupole moment (field-independent basis, Debye-Ang):
   XX=           -142.1020   YY=           -226.3690   ZZ=           -256.7259
   XY=             12.8759   XZ=             24.7528   YZ=              4.1364

 Normal termination of Gaussian 16 at Fri Jan 26 13:04:10 2018.
