 Gaussian 16, Revision A.03,
 Gaussian 16:  EM64L-G16RevA.03 25-Dec-2016

 ---------------------------------------
 #p wb97xd/cc-pvdz sp scf=(maxcycles=20)
 ---------------------------------------

 ------------------
 Base pair stacking
 ------------------
 Symbolic Z-matrix:
 Charge =  0 Multiplicity = 1

                         Standard orientation:
 ---------------------------------------------------------------------
 Center     Atomic      Atomic             Coordinates (Angstroms)
 Number     Number       Type             X           Y           Z
 ---------------------------------------------------------------------
      1          7           0        4.784322   -1.737044   -0.992361
      2          6           0        6.027569   -1.411134   -1.717712
      3          6           0        2.671995   -1.910561   -0.404772
      4          7           0        3.403731   -2.553126    0.583363
      5          6           0        4.647048   -2.422873    0.189809
      6          1           0        5.511811   -2.811338    0.728527
      7          7           0        0.892547   -1.018728   -1.670123
      8          6           0        1.820934   -0.587585   -2.530229
      9          1           0        1.438484   -0.046540   -3.394671
     10          7           0        3.144614   -0.723786   -2.483057
     11          6           0        3.509289   -1.402486   -1.382683
     12          6           0        1.291540   -1.698399   -0.572887
     13          7           0        0.366291   -2.129586    0.286863
     14          1           0        0.616135   -2.636829    1.112395
     15          1           0       -0.607621   -1.960399    0.135177
     16          1           0        6.503982   -2.255933   -1.961676
     17          1           0        5.805702   -0.902673   -2.549204
     18          1           0        6.619032   -0.853132   -1.135638
     19          7           0        5.444334    1.046030    0.586240
     20          6           0        4.129885    1.342519    0.317202
     21          6           0        6.598444    1.459043   -0.237259
     22          7           0        1.738893    2.852110   -1.699229
     23          1           0        0.744769    2.955924   -1.713174
     24          1           0        2.250064    3.277954   -2.446267
     25          7           0        3.675463    2.055221   -0.736164
     26          6           0        2.359529    2.172566   -0.723044
     27          7           0        1.548832    1.633921    0.246563
     28          1           0        0.552645    1.773929    0.175951
     29          6           0        1.994638    0.897014    1.339301
     30          8           0        1.179100    0.454793    2.157884
     31          6           0        3.406301    0.762474    1.338850
     32          7           0        4.249504    0.114872    2.231325
     33          6           0        5.445494    0.309325    1.745507
     34          1           0        6.366442   -0.064030    2.194668
     35          1           0        7.085337    0.648888   -0.561889
     36          1           0        6.274109    1.987728   -1.020559
     37          1           0        7.216480    2.021899    0.310505
     38          1           0       -4.345444    2.276581   -1.092406
     39          1           0       -4.294573    3.602823    0.066537
     40          1           0       -2.857882    3.198927   -0.873769
     41          1           0       -4.560487   -0.163284    3.048544
     42          6           0       -3.823295    0.348872    2.430090
     43          8           0       -1.958415   -0.655739    3.497860
     44          6           0       -2.431135    0.102240    2.651217
     45          1           0       -0.592439    0.652514    1.940784
     46          7           0       -1.583855    0.800640    1.814797
     47          8           0       -1.114645    2.252484    0.132769
     48          6           0       -1.939579    1.680573    0.823463
     49          1           0       -5.247069    1.423781    1.262514
     50          6           0       -4.201270    1.201714    1.470726
     51          6           0       -3.727761    2.797117   -0.375768
     52          7           0       -3.299686    1.865564    0.671468
     53          1           0       -6.662802    0.471566   -3.508085
     54          1           0       -5.307676    1.303793   -3.143234
     55          1           0       -6.716801    1.676488   -2.408698
     56          1           0       -2.855879   -3.076521    1.781910
     57          1           0       -4.560148   -3.084416    1.707648
     58          7           0       -3.692525   -2.728179    1.359025
     59          6           0       -3.654029   -1.828590    0.373914
     60          6           0       -4.600209   -0.380969   -1.260373
     61          7           0       -3.420635    0.079748   -1.708458
     62          1           0       -1.418809   -0.164608   -1.342958
     63          6           0       -2.415506   -0.483753   -1.041306
     64          7           0       -2.452006   -1.384950   -0.054336
     65          1           0       -7.814141   -0.683986   -1.084296
     66          6           0       -6.735863   -0.764420   -0.943588
     67          7           0       -6.155245   -1.541744   -0.062498
     68          6           0       -4.800988   -1.308283   -0.252745
     69          6           0       -6.159821    0.931710   -2.776461
     70          7           0       -5.854691   -0.033546   -1.702597
 ---------------------------------------------------------------------

 SCF Done:  E(RwB97XD) =  -2048.74258932     A.U. after   15 cycles

 The electronic state is 1-A.
 Alpha  occ. eigenvalues --  -19.25244 -19.21455 -19.20748 -14.52524 -14.51673
 Alpha  occ. eigenvalues --  -14.49313 -14.49205 -14.47878 -14.47076 -14.46876
 Alpha  occ. eigenvalues --  -14.46712 -14.45247 -14.44343 -14.44297 -14.42823
 Alpha  occ. eigenvalues --  -14.42035 -14.41501 -14.41471 -14.41303 -14.40939
 Alpha  occ. eigenvalues --  -10.44772 -10.41278 -10.39809 -10.39508 -10.38382
 Alpha  occ. eigenvalues --  -10.37824 -10.37099 -10.37043 -10.36003 -10.35888
 Alpha  occ. eigenvalues --  -10.34651 -10.34393 -10.34287 -10.34158 -10.33837
 Alpha  occ. eigenvalues --  -10.33745 -10.33643 -10.32498 -10.31705 -10.31574
 Alpha  occ. eigenvalues --  -10.30182 -10.28985 -10.28389  -1.18796  -1.15178
 Alpha  occ. eigenvalues --   -1.13373  -1.12446  -1.11760  -1.10961  -1.09286
 Alpha  occ. eigenvalues --   -1.08695  -1.08528  -1.05641  -1.04715  -1.01804
 Alpha  occ. eigenvalues --   -1.00984  -1.00889  -0.99787  -0.98717  -0.97451
 Alpha  occ. eigenvalues --   -0.96966  -0.96821  -0.93298  -0.90301  -0.87597
 Alpha  occ. eigenvalues --   -0.85990  -0.84886  -0.84205  -0.83384  -0.82835
 Alpha  occ. eigenvalues --   -0.82614  -0.78184  -0.76947  -0.74923  -0.74851
 Alpha  occ. eigenvalues --   -0.73726  -0.73405  -0.72646  -0.71571  -0.70299
 Alpha  occ. eigenvalues --   -0.67563  -0.66843  -0.66711  -0.65867  -0.64645
 Alpha  occ. eigenvalues --   -0.64150  -0.63396  -0.63235  -0.62704  -0.61901
 Alpha  occ. eigenvalues --   -0.60882  -0.60850  -0.60361  -0.59564  -0.59447
 Alpha  occ. eigenvalues --   -0.58957  -0.58732  -0.58399  -0.57116  -0.56019
 Alpha  occ. eigenvalues --   -0.55709  -0.55390  -0.55007  -0.54711  -0.54383
 Alpha  occ. eigenvalues --   -0.54134  -0.53703  -0.53432  -0.53142  -0.52835
 Alpha  occ. eigenvalues --   -0.52666  -0.52245  -0.51611  -0.50913  -0.50645
 Alpha  occ. eigenvalues --   -0.50265  -0.50155  -0.49409  -0.49250  -0.49046
 Alpha  occ. eigenvalues --   -0.48842  -0.48645  -0.48231  -0.47495  -0.47432
 Alpha  occ. eigenvalues --   -0.47211  -0.46233  -0.44748  -0.44661  -0.43205
 Alpha  occ. eigenvalues --   -0.41377  -0.40632  -0.38961  -0.37850  -0.37755
 Alpha  occ. eigenvalues --   -0.37487  -0.37445  -0.37178  -0.35735  -0.34625
 Alpha  occ. eigenvalues --   -0.34530  -0.34212  -0.33889  -0.33842  -0.33027
 Alpha  occ. eigenvalues --   -0.32640  -0.32519  -0.31991  -0.31747  -0.31040
 Alpha  occ. eigenvalues --   -0.30811  -0.29334  -0.27172  -0.24808
 Alpha virt. eigenvalues --    0.03352   0.04338   0.06423   0.07023   0.08455
 Alpha virt. eigenvalues --    0.09593   0.09753   0.10646   0.10996   0.12056
 Alpha virt. eigenvalues --    0.12657   0.13770   0.14129   0.14888   0.15176

 Mulliken charges:
               1
     1  N   -0.300092
     2  C    0.197650
     3  C    0.048868
     4  N   -0.236535
     5  C    0.137577
     6  H    0.025241
     7  N   -0.285951
     8  C    0.121013
     9  H    0.005327
    10  N   -0.273344
    11  C    0.232714
    12  C    0.070958
    13  N   -0.044654
    14  H    0.115238
    15  H    0.086268
    16  H    0.028099
    17  H    0.036814
    18  H   -0.006652
    19  N   -0.299169
    20  C    0.240343
    21  C    0.186469
    22  N   -0.115732
    23  H    0.118439
    24  H    0.119916
    25  N   -0.293007
    26  C    0.229012
    27  N   -0.129843
    28  H    0.120741
    29  C    0.178992
    30  O   -0.320238
    31  C   -0.006903
    32  N   -0.208204
    33  C    0.102100
    34  H    0.020714
    35  H    0.002662
    36  H    0.035757
    37  H    0.028180
    38  H    0.037591
    39  H    0.052096
    40  H    0.075095
    41  H    0.020277
    42  C   -0.104392
    43  O   -0.275801
    44  C    0.173240
    45  H    0.127756
    46  N   -0.108802
    47  O   -0.346902
    48  C    0.317328
    49  H    0.043359
    50  C    0.166066
    51  C    0.054610
    52  N   -0.265266
    53  H    0.037578
    54  H    0.047017
    55  H    0.027722
    56  H    0.125998
    57  H    0.118727
    58  N   -0.046072
    59  C    0.088661
    60  C    0.216016
    61  N   -0.269932
    62  H    0.030019
    63  C    0.163362
    64  N   -0.303437
    65  H    0.037883
    66  C    0.131165
    67  N   -0.254268
    68  C    0.049175
    69  C    0.176466
    70  N   -0.311103
 Sum of Mulliken charges =  -0.00000

 Dipole moment (field-independent basis, Debye):
    X=             -4.4095    Y=              4.1153    Z=             -6.6818  Tot=              9.0014
 Quadrupole moment (field-independent basis, Debye-Ang):
   XX=           -145.6269   YY=           -227.5708   ZZ=           -260.7242
   XY=            -11.2653   XZ=              1.4112   YZ=            -11.6357

 Normal termination of Gaussian 16 at Wed Jan 24 19:52:20 2018.
