 Gaussian 16, Revision A.03,
 Gaussian 16:  EM64L-G16RevA.03 25-Dec-2016

 ---------------------------------------
 #p wb97xd/cc-pvdz sp scf=(maxcycles=20)
 ---------------------------------------

 ------------------
 Base pair stacking
 ------------------
 Symbolic Z-matrix:
 Charge =  0 Multiplicity = 1

                         Standard orientation:
 ---------------------------------------------------------------------
 Center     Atomic      Atomic             Coordinates (Angstroms)
 Number     Number       Type             X           Y           Z
 ---------------------------------------------------------------------
      1          7           0       -6.537577   -0.871567    0.501802
      2          6           0       -7.779945   -0.277600    1.032549
      3          6           0       -4.429718   -1.413691    0.184982
      4          7           0       -5.154367   -2.089106   -0.786319
      5          6           0       -6.395268   -1.735474   -0.556578
      6          1           0       -7.254569   -2.078019   -1.133795
      7          7           0       -2.662231   -0.595219    1.515027
      8          6           0       -3.591452    0.079007    2.200254
      9          1           0       -3.214331    0.684102    3.023598
     10          7           0       -4.910393    0.117828    2.021957
     11          6           0       -5.268703   -0.659137    0.986411
     12          6           0       -3.054762   -1.368027    0.478802
     13          7           0       -2.128673   -2.041819   -0.206418
     14          1           0       -2.373819   -2.626039   -0.980898
     15          1           0       -1.158779   -1.985646    0.030877
     16          1           0       -8.398225   -1.005159    1.330151
     17          1           0       -7.562719    0.312476    1.809563
     18          1           0       -8.224327    0.263938    0.318930
     19          7           0       -3.626546    1.683414   -1.200927
     20          6           0       -2.310702    1.848477   -0.841276
     21          6           0       -4.766585    2.432325   -0.635123
     22          7           0        0.104912    3.436742    1.083297
     23          1           0        1.097349    3.401710    1.197635
     24          1           0       -0.394517    4.090907    1.651951
     25          7           0       -1.841913    2.715576    0.081996
     26          6           0       -0.528660    2.642569    0.207061
     27          7           0        0.266505    1.786583   -0.515783
     28          1           0        1.261831    1.799252   -0.354097
     29          6           0       -0.194247    0.885868   -1.470912
     30          8           0        0.607940    0.157040   -2.067621
     31          6           0       -1.603228    0.952688   -1.616420
     32          7           0       -2.457731    0.239601   -2.446018
     33          6           0       -3.644451    0.705657   -2.165456
     34          1           0       -4.570143    0.370164   -2.634282
     35          1           0       -5.406340    1.795222   -0.206604
     36          1           0       -4.431548    3.077757    0.050041
     37          1           0       -5.232902    2.933242   -1.363433
     38          1           0        6.043015    1.896151    1.373197
     39          1           0        6.313279    2.911582   -0.041189
     40          1           0        4.751704    2.940334    0.778586
     41          1           0        6.225745   -1.442346   -2.086223
     42          6           0        5.529846   -0.703463   -1.688722
     43          8           0        3.628886   -1.658851   -2.737859
     44          6           0        4.141505   -0.798612   -2.022318
     45          1           0        2.361389    0.151431   -1.680389
     46          7           0        3.348403    0.185407   -1.467404
     47          8           0        2.974275    2.038215   -0.208694
     48          6           0        3.753073    1.212851   -0.652446
     49          1           0        6.999991    0.404071   -0.612678
     50          6           0        5.954818    0.287405   -0.896138
     51          6           0        5.585222    2.317143    0.490449
     52          7           0        5.106032    1.237097   -0.376521
     53          1           0        4.826977    0.111692    3.983692
     54          1           0        3.651816    1.057169    3.361469
     55          1           0        5.163049    1.123947    2.748444
     56          1           0        1.040110   -3.625051   -1.189501
     57          1           0        2.709553   -3.852616   -0.922488
     58          7           0        1.876500   -3.334991   -0.724234
     59          6           0        1.881802   -2.303888    0.123100
     60          6           0        2.878080   -0.773925    1.649001
     61          7           0        1.744389   -0.097109    1.896146
     62          1           0       -0.228655   -0.119121    1.341878
     63          6           0        0.732634   -0.610994    1.199599
     64          7           0        0.725297   -1.643681    0.350424
     65          1           0        6.012551   -1.531747    1.879144
     66          6           0        4.952237   -1.485208    1.629159
     67          7           0        4.346185   -2.297450    0.798110
     68          6           0        3.030461   -1.857464    0.801506
     69          6           0        4.468949    0.523443    3.145678
     70          7           0        4.123819   -0.538497    2.180697
 ---------------------------------------------------------------------

 SCF Done:  E(RwB97XD) =  -2048.74929334     A.U. after   15 cycles

 The electronic state is 1-A.
 Alpha  occ. eigenvalues --  -19.25784 -19.22024 -19.20615 -14.52445 -14.51360
 Alpha  occ. eigenvalues --  -14.50012 -14.48534 -14.47705 -14.46820 -14.46539
 Alpha  occ. eigenvalues --  -14.46084 -14.44042 -14.42960 -14.42892 -14.42769
 Alpha  occ. eigenvalues --  -14.42646 -14.41897 -14.41880 -14.41060 -14.40712
 Alpha  occ. eigenvalues --  -10.45417 -10.41094 -10.40006 -10.38219 -10.38160
 Alpha  occ. eigenvalues --  -10.37439 -10.36710 -10.36332 -10.35841 -10.35793
 Alpha  occ. eigenvalues --  -10.35285 -10.34499 -10.34485 -10.34215 -10.33967
 Alpha  occ. eigenvalues --  -10.33338 -10.33146 -10.32068 -10.31146 -10.30834
 Alpha  occ. eigenvalues --  -10.30417 -10.29669 -10.27978  -1.19399  -1.13968
 Alpha  occ. eigenvalues --   -1.13143  -1.12956  -1.12579  -1.10460  -1.09336
 Alpha  occ. eigenvalues --   -1.08488  -1.07625  -1.05941  -1.03134  -1.02468
 Alpha  occ. eigenvalues --   -1.01366  -0.99685  -0.99623  -0.98418  -0.98089
 Alpha  occ. eigenvalues --   -0.96379  -0.95292  -0.93546  -0.90897  -0.86469
 Alpha  occ. eigenvalues --   -0.85078  -0.84999  -0.83953  -0.83867  -0.83403
 Alpha  occ. eigenvalues --   -0.82207  -0.78797  -0.75632  -0.74458  -0.73907
 Alpha  occ. eigenvalues --   -0.73583  -0.73370  -0.73285  -0.72056  -0.69014
 Alpha  occ. eigenvalues --   -0.67311  -0.67236  -0.66508  -0.65318  -0.64403
 Alpha  occ. eigenvalues --   -0.63699  -0.63661  -0.62823  -0.62531  -0.61595
 Alpha  occ. eigenvalues --   -0.61387  -0.61119  -0.59490  -0.59213  -0.58345
 Alpha  occ. eigenvalues --   -0.58233  -0.57925  -0.57431  -0.57370  -0.56345
 Alpha  occ. eigenvalues --   -0.56139  -0.55872  -0.55438  -0.54362  -0.54198
 Alpha  occ. eigenvalues --   -0.53631  -0.53501  -0.52891  -0.52830  -0.52679
 Alpha  occ. eigenvalues --   -0.52286  -0.51704  -0.51632  -0.51384  -0.51148
 Alpha  occ. eigenvalues --   -0.50030  -0.50019  -0.49393  -0.48818  -0.48757
 Alpha  occ. eigenvalues --   -0.48424  -0.48260  -0.48057  -0.47906  -0.47789
 Alpha  occ. eigenvalues --   -0.47363  -0.45934  -0.45289  -0.43850  -0.42983
 Alpha  occ. eigenvalues --   -0.42001  -0.39430  -0.39375  -0.38186  -0.37171
 Alpha  occ. eigenvalues --   -0.37137  -0.36553  -0.36285  -0.35981  -0.34734
 Alpha  occ. eigenvalues --   -0.34528  -0.34103  -0.33303  -0.33172  -0.32911
 Alpha  occ. eigenvalues --   -0.32626  -0.32176  -0.31910  -0.31806  -0.31487
 Alpha  occ. eigenvalues --   -0.31257  -0.28167  -0.26715  -0.25328
 Alpha virt. eigenvalues --    0.02657   0.05891   0.06904   0.07560   0.09141
 Alpha virt. eigenvalues --    0.09487   0.09794   0.10186   0.11299   0.12170
 Alpha virt. eigenvalues --    0.12892   0.13496   0.14262   0.14920   0.15012

 Mulliken charges:
               1
     1  N   -0.309015
     2  C    0.178739
     3  C    0.042384
     4  N   -0.248807
     5  C    0.123409
     6  H    0.028852
     7  N   -0.279693
     8  C    0.137011
     9  H    0.015619
    10  N   -0.285699
    11  C    0.222971
    12  C    0.090631
    13  N   -0.036252
    14  H    0.109739
    15  H    0.089639
    16  H    0.030451
    17  H    0.036655
    18  H    0.024477
    19  N   -0.300471
    20  C    0.251988
    21  C    0.190249
    22  N   -0.119382
    23  H    0.115497
    24  H    0.117880
    25  N   -0.303366
    26  C    0.233677
    27  N   -0.139883
    28  H    0.123331
    29  C    0.167944
    30  O   -0.325699
    31  C   -0.005110
    32  N   -0.229198
    33  C    0.127584
    34  H    0.024644
    35  H    0.015474
    36  H    0.030606
    37  H    0.020742
    38  H    0.055445
    39  H    0.064035
    40  H    0.076080
    41  H    0.027110
    42  C   -0.062360
    43  O   -0.268375
    44  C    0.169148
    45  H    0.134284
    46  N   -0.125093
    47  O   -0.343544
    48  C    0.339749
    49  H    0.040857
    50  C    0.145836
    51  C    0.037822
    52  N   -0.281545
    53  H    0.034260
    54  H    0.041305
    55  H   -0.011811
    56  H    0.117785
    57  H    0.120217
    58  N   -0.047788
    59  C    0.124151
    60  C    0.217030
    61  N   -0.271726
    62  H    0.030979
    63  C    0.155875
    64  N   -0.306493
    65  H    0.026171
    66  C    0.124337
    67  N   -0.243176
    68  C    0.016183
    69  C    0.193074
    70  N   -0.297443
 Sum of Mulliken charges =  -0.00000

 Dipole moment (field-independent basis, Debye):
    X=              3.9233    Y=              4.7891    Z=              5.4936  Tot=              8.2770
 Quadrupole moment (field-independent basis, Debye-Ang):
   XX=           -143.5676   YY=           -226.4434   ZZ=           -257.3340
   XY=             11.0564   XZ=             22.2539   YZ=              6.3403

 Normal termination of Gaussian 16 at Fri Jan 26 07:59:38 2018.
