 Gaussian 16, Revision A.03,
 Gaussian 16:  EM64L-G16RevA.03 25-Dec-2016

 ---------------------------------------
 #p wb97xd/cc-pvdz sp scf=(maxcycles=20)
 ---------------------------------------

 ------------------
 Base pair stacking
 ------------------
 Symbolic Z-matrix:
 Charge =  0 Multiplicity = 1

                         Standard orientation:
 ---------------------------------------------------------------------
 Center     Atomic      Atomic             Coordinates (Angstroms)
 Number     Number       Type             X           Y           Z
 ---------------------------------------------------------------------
      1          7           0       -6.505457    0.674466   -0.567286
      2          6           0       -7.736377   -0.083106   -0.865515
      3          6           0       -4.407625    1.325485   -0.455098
      4          7           0       -5.146259    2.275594    0.235144
      5          6           0       -6.380563    1.845346    0.139933
      6          1           0       -7.247193    2.347614    0.570790
      7          7           0       -2.622784    0.137246   -1.437639
      8          6           0       -3.538787   -0.742630   -1.855176
      9          1           0       -3.149244   -1.582514   -2.428857
     10          7           0       -4.857531   -0.740788   -1.671327
     11          6           0       -5.231725    0.332454   -0.955389
     12          6           0       -3.031125    1.206235   -0.719592
     13          7           0       -2.118244    2.085659   -0.301902
     14          1           0       -2.375330    2.891633    0.232446
     15          1           0       -1.146785    1.968895   -0.508737
     16          1           0       -8.365194    0.492482   -1.388455
     17          1           0       -7.507105   -0.895902   -1.400225
     18          1           0       -8.174457   -0.361204   -0.010685
     19          7           0       -3.667616   -1.272313    1.370908
     20          6           0       -2.355578   -1.499458    1.031808
     21          6           0       -4.824882   -2.037492    0.865006
     22          7           0        0.023481   -3.302675   -0.743089
     23          1           0        1.016723   -3.301939   -0.855832
     24          1           0       -0.490989   -3.989586   -1.257086
     25          7           0       -1.906739   -2.452172    0.186261
     26          6           0       -0.591806   -2.422457    0.060994
     27          7           0        0.223047   -1.528911    0.712990
     28          1           0        1.218064   -1.579735    0.557066
     29          6           0       -0.216982   -0.540237    1.587498
     30          8           0        0.601962    0.215892    2.124461
     31          6           0       -1.627503   -0.559712    1.732217
     32          7           0       -2.465596    0.241300    2.495693
     33          6           0       -3.663020   -0.217075    2.250183
     34          1           0       -4.581000    0.179336    2.685438
     35          1           0       -5.447590   -1.422860    0.382038
     36          1           0       -4.504691   -2.746128    0.237646
     37          1           0       -5.305094   -2.463943    1.630735
     38          1           0        5.998889   -1.939374   -1.136181
     39          1           0        6.240715   -2.839187    0.359313
     40          1           0        4.680616   -2.897778   -0.461666
     41          1           0        6.257998    1.671529    2.032538
     42          6           0        5.544645    0.919416    1.695362
     43          8           0        3.666033    2.006123    2.652987
     44          6           0        4.158431    1.076552    2.014054
     45          1           0        2.355800    0.145603    1.745414
     46          7           0        3.342095    0.069466    1.540109
     47          8           0        2.924297   -1.872392    0.439286
     48          6           0        3.722590   -1.032318    0.815659
     49          1           0        6.988818   -0.310405    0.721869
     50          6           0        5.946309   -0.144554    0.990228
     51          6           0        5.528876   -2.273494   -0.223214
     52          7           0        5.075084   -1.113108    0.548352
     53          1           0        4.885100   -1.234915   -3.542702
     54          1           0        3.723096   -1.936000   -2.636982
     55          1           0        5.233111   -1.768936   -2.040323
     56          1           0        1.021476    3.957928    0.086680
     57          1           0        2.687952    4.109824   -0.244783
     58          7           0        1.863962    3.542271   -0.256229
     59          6           0        1.888618    2.287012   -0.708896
     60          6           0        2.914384    0.350416   -1.635774
     61          7           0        1.792506   -0.388358   -1.639275
     62          1           0       -0.182514   -0.213781   -1.120178
     63          6           0        0.770313    0.312828   -1.153108
     64          7           0        0.743591    1.570156   -0.699234
     65          1           0        6.037112    1.037901   -2.113430
     66          6           0        4.976827    1.060688   -1.860016
     67          7           0        4.355053    2.094588   -1.348033
     68          6           0        3.046546    1.657671   -1.200878
     69          6           0        4.530852   -1.347657   -2.614369
     70          7           0        4.165528   -0.029423   -2.060474
 ---------------------------------------------------------------------

 SCF Done:  E(RwB97XD) =  -2048.69907180     A.U. after   15 cycles

 The electronic state is 1-A.
 Alpha  occ. eigenvalues --  -19.25796 -19.21990 -19.20585 -14.52629 -14.51527
 Alpha  occ. eigenvalues --  -14.50285 -14.48331 -14.47778 -14.46717 -14.46570
 Alpha  occ. eigenvalues --  -14.46388 -14.44289 -14.43233 -14.43193 -14.43111
 Alpha  occ. eigenvalues --  -14.42847 -14.42000 -14.41724 -14.41129 -14.40608
 Alpha  occ. eigenvalues --  -10.45453 -10.40925 -10.40022 -10.38651 -10.38061
 Alpha  occ. eigenvalues --  -10.37690 -10.36932 -10.36564 -10.36045 -10.35819
 Alpha  occ. eigenvalues --  -10.35473 -10.34688 -10.34607 -10.34065 -10.34046
 Alpha  occ. eigenvalues --  -10.33065 -10.32490 -10.32322 -10.31437 -10.31007
 Alpha  occ. eigenvalues --  -10.29880 -10.29653 -10.27857  -1.19542  -1.14194
 Alpha  occ. eigenvalues --   -1.13105  -1.12947  -1.12834  -1.10363  -1.09549
 Alpha  occ. eigenvalues --   -1.08385  -1.08013  -1.06163  -1.03580  -1.02583
 Alpha  occ. eigenvalues --   -1.01692  -0.99962  -0.99495  -0.98363  -0.98299
 Alpha  occ. eigenvalues --   -0.96202  -0.95687  -0.93807  -0.91267  -0.87340
 Alpha  occ. eigenvalues --   -0.85865  -0.85291  -0.83793  -0.83651  -0.83557
 Alpha  occ. eigenvalues --   -0.81894  -0.78980  -0.75976  -0.74373  -0.74134
 Alpha  occ. eigenvalues --   -0.73805  -0.73597  -0.73360  -0.72304  -0.69534
 Alpha  occ. eigenvalues --   -0.67570  -0.67174  -0.66885  -0.65847  -0.64905
 Alpha  occ. eigenvalues --   -0.63961  -0.63765  -0.63180  -0.63037  -0.62465
 Alpha  occ. eigenvalues --   -0.61482  -0.61368  -0.59904  -0.59475  -0.58830
 Alpha  occ. eigenvalues --   -0.58636  -0.58074  -0.57679  -0.57218  -0.56601
 Alpha  occ. eigenvalues --   -0.56182  -0.55882  -0.55786  -0.54615  -0.54364
 Alpha  occ. eigenvalues --   -0.54198  -0.53435  -0.53149  -0.53075  -0.52521
 Alpha  occ. eigenvalues --   -0.52281  -0.51759  -0.51413  -0.51068  -0.50333
 Alpha  occ. eigenvalues --   -0.49977  -0.49851  -0.49442  -0.49041  -0.48746
 Alpha  occ. eigenvalues --   -0.48536  -0.48235  -0.48065  -0.47930  -0.47673
 Alpha  occ. eigenvalues --   -0.47289  -0.46094  -0.45232  -0.43689  -0.42866
 Alpha  occ. eigenvalues --   -0.41743  -0.39756  -0.39435  -0.38430  -0.37192
 Alpha  occ. eigenvalues --   -0.37032  -0.36704  -0.36598  -0.36023  -0.34936
 Alpha  occ. eigenvalues --   -0.34712  -0.33900  -0.33567  -0.33253  -0.33116
 Alpha  occ. eigenvalues --   -0.32580  -0.32120  -0.31854  -0.31660  -0.31500
 Alpha  occ. eigenvalues --   -0.31337  -0.28431  -0.26957  -0.25264
 Alpha virt. eigenvalues --    0.02466   0.05567   0.06633   0.07291   0.09147
 Alpha virt. eigenvalues --    0.09215   0.09675   0.10275   0.11422   0.11916
 Alpha virt. eigenvalues --    0.12560   0.13134   0.14631   0.14794   0.15097

 Mulliken charges:
               1
     1  N   -0.307905
     2  C    0.178598
     3  C    0.060071
     4  N   -0.248877
     5  C    0.124217
     6  H    0.029545
     7  N   -0.269639
     8  C    0.136881
     9  H    0.013279
    10  N   -0.281434
    11  C    0.202548
    12  C    0.080482
    13  N   -0.036655
    14  H    0.108306
    15  H    0.088501
    16  H    0.032149
    17  H    0.037662
    18  H    0.026063
    19  N   -0.292452
    20  C    0.235706
    21  C    0.211110
    22  N   -0.109466
    23  H    0.114296
    24  H    0.116119
    25  N   -0.292450
    26  C    0.210082
    27  N   -0.138700
    28  H    0.133245
    29  C    0.156781
    30  O   -0.324525
    31  C    0.008166
    32  N   -0.225297
    33  C    0.123824
    34  H    0.023473
    35  H    0.000128
    36  H    0.029612
    37  H    0.015117
    38  H    0.048511
    39  H    0.056500
    40  H    0.071291
    41  H    0.029738
    42  C   -0.072701
    43  O   -0.263196
    44  C    0.173716
    45  H    0.133627
    46  N   -0.122521
    47  O   -0.333924
    48  C    0.328068
    49  H    0.042882
    50  C    0.146538
    51  C    0.071122
    52  N   -0.282200
    53  H    0.025935
    54  H    0.037729
    55  H   -0.022501
    56  H    0.118140
    57  H    0.121144
    58  N   -0.062919
    59  C    0.133372
    60  C    0.200926
    61  N   -0.270355
    62  H    0.031530
    63  C    0.159336
    64  N   -0.309179
    65  H    0.026967
    66  C    0.120919
    67  N   -0.245622
    68  C    0.031493
    69  C    0.199118
    70  N   -0.292045
 Sum of Mulliken charges =  -0.00000

 Dipole moment (field-independent basis, Debye):
    X=              3.7534    Y=             -5.1680    Z=             -5.4927  Tot=              8.4241
 Quadrupole moment (field-independent basis, Debye-Ang):
   XX=           -143.5500   YY=           -224.9982   ZZ=           -262.7608
   XY=            -16.2974   XZ=            -18.7189   YZ=             -0.0669

 Normal termination of Gaussian 16 at Thu Jan 25 07:26:45 2018.
