 Gaussian 16, Revision A.03,
 Gaussian 16:  EM64L-G16RevA.03 25-Dec-2016

 ---------------------------------------
 #p wb97xd/cc-pvdz sp scf=(maxcycles=20)
 ---------------------------------------

 ------------------
 Base pair stacking
 ------------------
 Symbolic Z-matrix:
 Charge =  0 Multiplicity = 1

                         Standard orientation:
 ---------------------------------------------------------------------
 Center     Atomic      Atomic             Coordinates (Angstroms)
 Number     Number       Type             X           Y           Z
 ---------------------------------------------------------------------
      1          7           0        4.815203   -0.401256   -1.731086
      2          6           0        6.066731    0.372331   -1.846172
      3          6           0        2.694847   -0.969420   -1.594665
      4          7           0        3.418176   -2.151658   -1.532667
      5          6           0        4.666663   -1.762033   -1.617338
      6          1           0        5.527401   -2.431238   -1.601748
      7          7           0        0.925159    0.589104   -1.641130
      8          6           0        1.862734    1.535306   -1.756266
      9          1           0        1.487934    2.555922   -1.820578
     10          7           0        3.187534    1.410637   -1.803670
     11          6           0        3.542316    0.117937   -1.717044
     12          6           0        1.314337   -0.701781   -1.556125
     13          7           0        0.379921   -1.647731   -1.441143
     14          1           0        0.622311   -2.616290   -1.375224
     15          1           0       -0.593731   -1.420628   -1.416992
     16          1           0        6.564481    0.083848   -2.664217
     17          1           0        5.852413    1.346306   -1.913737
     18          1           0        6.634943    0.213022   -1.038863
     19          7           0        5.421246    0.244446    1.042001
     20          6           0        4.104381    0.636654    1.033660
     21          6           0        6.568419    1.097506    0.671898
     22          7           0        1.695886    3.075592    0.474638
     23          1           0        0.701563    3.158065    0.535833
     24          1           0        2.200727    3.885415    0.174553
     25          7           0        3.640890    1.857408    0.688752
     26          6           0        2.324944    1.930889    0.781004
     27          7           0        1.522469    0.889681    1.180287
     28          1           0        0.525588    1.036319    1.221445
     29          6           0        1.977682   -0.374993    1.539801
     30          8           0        1.169064   -1.245217    1.885626
     31          6           0        3.389467   -0.469214    1.445684
     32          7           0        4.240393   -1.534261    1.707423
     33          6           0        5.432329   -1.065566    1.454802
     34          1           0        6.357210   -1.634890    1.553474
     35          1           0        7.053857    0.689460   -0.100537
     36          1           0        6.237348    2.004372    0.414503
     37          1           0        7.189934    1.179283    1.450257
     38          1           0       -4.382812    2.208173    0.599312
     39          1           0       -4.324722    2.477278    2.339671
     40          1           0       -2.894821    2.782119    1.352857
     41          1           0       -4.562656   -2.325846    2.198350
     42          6           0       -3.830928   -1.531414    2.051085
     43          8           0       -1.956550   -2.976373    2.211952
     44          6           0       -2.436782   -1.854165    2.054454
     45          1           0       -0.604353   -0.964747    1.855761
     46          7           0       -1.596914   -0.776225    1.859745
     47          8           0       -1.142609    1.420351    1.504934
     48          6           0       -1.961440    0.533148    1.669452
     49          1           0       -5.265099    0.034241    1.856861
     50          6           0       -4.217434   -0.263474    1.867923
     51          6           0       -3.760292    2.148859    1.479654
     52          7           0       -3.322922    0.764431    1.679129
     53          1           0       -6.617764    2.994177   -1.687934
     54          1           0       -5.286999    3.165701   -0.759623
     55          1           0       -6.718132    2.786946   -0.072261
     56          1           0       -2.853706   -3.396405   -1.447527
     57          1           0       -4.555572   -3.330113   -1.544209
     58          7           0       -3.687969   -2.845225   -1.428661
     59          6           0       -3.646448   -1.522339   -1.257115
     60          6           0       -4.586319    0.652538   -1.037366
     61          7           0       -3.406838    1.277012   -0.884721
     62          1           0       -1.408694    0.825672   -0.818922
     63          6           0       -2.405077    0.401303   -0.934686
     64          7           0       -2.444611   -0.924039   -1.106429
     65          1           0       -7.796708    0.353289   -1.273945
     66          6           0       -6.720249    0.185558   -1.228859
     67          7           0       -6.143123   -0.985608   -1.342809
     68          6           0       -4.789986   -0.703750   -1.223199
     69          6           0       -6.139213    2.656766   -0.877285
     70          7           0       -5.837823    1.221488   -1.042008
 ---------------------------------------------------------------------

 SCF Done:  E(RwB97XD) =  -2048.65363720     A.U. after   15 cycles

 The electronic state is 1-A.
 Alpha  occ. eigenvalues --  -19.25058 -19.21144 -19.20718 -14.52901 -14.51308
 Alpha  occ. eigenvalues --  -14.49329 -14.49281 -14.48186 -14.46956 -14.46794
 Alpha  occ. eigenvalues --  -14.46718 -14.45494 -14.44512 -14.44223 -14.43002
 Alpha  occ. eigenvalues --  -14.41710 -14.41690 -14.41422 -14.41269 -14.40855
 Alpha  occ. eigenvalues --  -10.44578 -10.41071 -10.40060 -10.39241 -10.38305
 Alpha  occ. eigenvalues --  -10.38077 -10.37334 -10.36911 -10.36012 -10.35916
 Alpha  occ. eigenvalues --  -10.34594 -10.34552 -10.34551 -10.33850 -10.33832
 Alpha  occ. eigenvalues --  -10.33374 -10.33350 -10.32783 -10.31296 -10.30960
 Alpha  occ. eigenvalues --  -10.30038 -10.29014 -10.28387  -1.18716  -1.15542
 Alpha  occ. eigenvalues --   -1.13508  -1.12176  -1.11898  -1.10987  -1.09569
 Alpha  occ. eigenvalues --   -1.08818  -1.08368  -1.05683  -1.05026  -1.01627
 Alpha  occ. eigenvalues --   -1.01257  -1.01168  -0.99941  -0.98805  -0.97859
 Alpha  occ. eigenvalues --   -0.97178  -0.96887  -0.93356  -0.90097  -0.87913
 Alpha  occ. eigenvalues --   -0.86461  -0.86443  -0.84024  -0.83934  -0.82526
 Alpha  occ. eigenvalues --   -0.82048  -0.78012  -0.77251  -0.75225  -0.75014
 Alpha  occ. eigenvalues --   -0.73824  -0.73505  -0.72483  -0.71693  -0.70645
 Alpha  occ. eigenvalues --   -0.67999  -0.67104  -0.67070  -0.65696  -0.65199
 Alpha  occ. eigenvalues --   -0.64535  -0.63506  -0.63195  -0.62726  -0.62155
 Alpha  occ. eigenvalues --   -0.61956  -0.61609  -0.60882  -0.60695  -0.59845
 Alpha  occ. eigenvalues --   -0.59041  -0.58825  -0.58468  -0.57629  -0.56349
 Alpha  occ. eigenvalues --   -0.56247  -0.55980  -0.55632  -0.54446  -0.54244
 Alpha  occ. eigenvalues --   -0.53822  -0.53622  -0.53205  -0.53000  -0.52980
 Alpha  occ. eigenvalues --   -0.52436  -0.52228  -0.51440  -0.51082  -0.50409
 Alpha  occ. eigenvalues --   -0.50315  -0.50066  -0.49496  -0.49140  -0.49112
 Alpha  occ. eigenvalues --   -0.48676  -0.48288  -0.47993  -0.47505  -0.47135
 Alpha  occ. eigenvalues --   -0.46997  -0.46556  -0.44331  -0.43422  -0.43022
 Alpha  occ. eigenvalues --   -0.40753  -0.40548  -0.38929  -0.38563  -0.37921
 Alpha  occ. eigenvalues --   -0.37678  -0.37543  -0.36727  -0.35634  -0.34875
 Alpha  occ. eigenvalues --   -0.34728  -0.34652  -0.33970  -0.33785  -0.32977
 Alpha  occ. eigenvalues --   -0.32500  -0.32358  -0.31970  -0.31783  -0.30914
 Alpha  occ. eigenvalues --   -0.29839  -0.29255  -0.27716  -0.24114
 Alpha virt. eigenvalues --    0.03326   0.04074   0.06335   0.06538   0.07664
 Alpha virt. eigenvalues --    0.09641   0.09836   0.10676   0.11787   0.11872
 Alpha virt. eigenvalues --    0.12217   0.13614   0.14088   0.14850   0.15224

 Mulliken charges:
               1
     1  N   -0.294275
     2  C    0.207517
     3  C    0.068172
     4  N   -0.242090
     5  C    0.135232
     6  H    0.025270
     7  N   -0.273557
     8  C    0.118969
     9  H   -0.006780
    10  N   -0.255003
    11  C    0.205103
    12  C    0.059675
    13  N   -0.046618
    14  H    0.111650
    15  H    0.084786
    16  H    0.020306
    17  H    0.027716
    18  H    0.005724
    19  N   -0.299691
    20  C    0.209725
    21  C    0.202594
    22  N   -0.091340
    23  H    0.120825
    24  H    0.122228
    25  N   -0.245530
    26  C    0.153731
    27  N   -0.095846
    28  H    0.119729
    29  C    0.166505
    30  O   -0.318215
    31  C    0.013452
    32  N   -0.208672
    33  C    0.101381
    34  H    0.020917
    35  H   -0.009664
    36  H    0.034394
    37  H    0.020314
    38  H    0.011812
    39  H    0.040365
    40  H    0.071889
    41  H    0.022834
    42  C   -0.101003
    43  O   -0.271761
    44  C    0.174463
    45  H    0.128317
    46  N   -0.106962
    47  O   -0.341662
    48  C    0.296544
    49  H    0.041302
    50  C    0.159964
    51  C    0.084212
    52  N   -0.261260
    53  H    0.033634
    54  H    0.056620
    55  H    0.026250
    56  H    0.123956
    57  H    0.120775
    58  N   -0.059561
    59  C    0.116023
    60  C    0.222140
    61  N   -0.287513
    62  H    0.027688
    63  C    0.172505
    64  N   -0.307019
    65  H    0.039086
    66  C    0.132736
    67  N   -0.253037
    68  C    0.044370
    69  C    0.189056
    70  N   -0.315398
 Sum of Mulliken charges =  -0.00000

 Dipole moment (field-independent basis, Debye):
    X=             -4.4424    Y=              7.6453    Z=             -2.9839  Tot=              9.3322
 Quadrupole moment (field-independent basis, Debye-Ang):
   XX=           -144.9643   YY=           -233.8398   ZZ=           -258.7913
   XY=             -8.1799   XZ=             -6.8916   YZ=             18.0453

 Normal termination of Gaussian 16 at Thu Jan 25 12:14:15 2018.
