 Gaussian 16, Revision A.03,
 Gaussian 16:  EM64L-G16RevA.03 25-Dec-2016

 ---------------------------------------
 #p wb97xd/cc-pvdz sp scf=(maxcycles=20)
 ---------------------------------------

 ------------------
 Base pair stacking
 ------------------
 Symbolic Z-matrix:
 Charge =  0 Multiplicity = 1

                         Standard orientation:
 ---------------------------------------------------------------------
 Center     Atomic      Atomic             Coordinates (Angstroms)
 Number     Number       Type             X           Y           Z
 ---------------------------------------------------------------------
      1          7           0        6.246719   -0.886169   -0.667838
      2          6           0        7.488519   -0.215107   -1.098651
      3          6           0        4.137080   -1.457705   -0.422692
      4          7           0        4.867418   -2.310611    0.392089
      5          6           0        6.109171   -1.932152    0.211785
      6          1           0        6.972531   -2.385385    0.699776
      7          7           0        2.360573   -0.386781   -1.545239
      8          6           0        3.288015    0.395168   -2.107373
      9          1           0        2.906429    1.147830   -2.795952
     10          7           0        4.609855    0.386994   -1.947375
     11          6           0        4.973592   -0.574164   -1.082341
     12          6           0        2.758597   -1.344315   -0.679342
     13          7           0        1.834298   -2.125859   -0.117185
     14          1           0        2.083470   -2.847553    0.529562
     15          1           0        0.861789   -2.016688   -0.323219
     16          1           0        8.093018   -0.879750   -1.538000
     17          1           0        7.267289    0.512538   -1.747264
     18          1           0        7.950294    0.178338   -0.303691
     19          7           0        3.953554    1.377850    1.243189
     20          6           0        2.638745    1.598081    0.910309
     21          6           0        5.110854    2.093446    0.669363
     22          7           0        0.251196    3.308527   -0.943257
     23          1           0       -0.743721    3.312524   -1.040116
     24          1           0        0.764812    3.953391   -1.509872
     25          7           0        2.186779    2.497968    0.010327
     26          6           0        0.869713    2.476166   -0.092070
     27          7           0        0.055716    1.637999    0.630697
     28          1           0       -0.941103    1.690584    0.487362
     29          6           0        0.498955    0.704268    1.562129
     30          8           0       -0.319480   -0.004394    2.161036
     31          6           0        1.911797    0.715961    1.683112
     32          7           0        2.753294   -0.042795    2.485016
     33          6           0        3.951586    0.383487    2.190767
     34          1           0        4.872089    0.005605    2.637029
     35          1           0        5.718595    1.440474    0.218712
     36          1           0        4.788361    2.762728    0.001286
     37          1           0        5.608367    2.563883    1.397358
     38          1           0       -5.744806    1.995702   -1.150950
     39          1           0       -5.951868    2.995781    0.284891
     40          1           0       -4.404925    2.980522   -0.562522
     41          1           0       -5.992252   -1.393261    2.254968
     42          6           0       -5.276142   -0.674045    1.857294
     43          8           0       -3.394350   -1.717748    2.855622
     44          6           0       -3.886727   -0.826685    2.163977
     45          1           0       -2.078412    0.062119    1.805695
     46          7           0       -3.067043    0.136573    1.611257
     47          8           0       -2.645647    1.995729    0.377105
     48          6           0       -3.447017    1.192390    0.821071
     49          1           0       -6.722237    0.506059    0.826780
     50          6           0       -5.677383    0.345603    1.089224
     51          6           0       -5.256107    2.383931   -0.269750
     52          7           0       -4.802731    1.271864    0.570208
     53          1           0       -5.154873    0.844035   -3.709812
     54          1           0       -3.958677    1.644292   -2.941176
     55          1           0       -5.459667    1.609340   -2.300968
     56          1           0       -1.339411   -3.834829    0.604820
     57          1           0       -3.015390   -3.991961    0.328215
     58          7           0       -2.178853   -3.454407    0.216552
     59          6           0       -2.183639   -2.282447   -0.421919
     60          6           0       -3.182936   -0.483399   -1.616324
     61          7           0       -2.044526    0.216778   -1.751216
     62          1           0       -0.063910    0.071872   -1.244509
     63          6           0       -1.029156   -0.428638   -1.180810
     64          7           0       -1.022333   -1.602513   -0.540853
     65          1           0       -6.329860   -1.154047   -1.931406
     66          6           0       -5.265433   -1.165595   -1.695170
     67          7           0       -4.657488   -2.125380   -1.041791
     68          6           0       -3.336471   -1.705372   -0.984854
     69          6           0       -4.779228    1.087471   -2.815597
     70          7           0       -4.433345   -0.140172   -2.073141
 ---------------------------------------------------------------------

 SCF Done:  E(RwB97XD) =  -2048.72372852     A.U. after   15 cycles

 The electronic state is 1-A.
 Alpha  occ. eigenvalues --  -19.25381 -19.21796 -19.20597 -14.52250 -14.51820
 Alpha  occ. eigenvalues --  -14.50066 -14.48509 -14.47467 -14.46786 -14.46749
 Alpha  occ. eigenvalues --  -14.46498 -14.44520 -14.43467 -14.43342 -14.43058
 Alpha  occ. eigenvalues --  -14.42599 -14.41871 -14.41765 -14.41068 -14.40661
 Alpha  occ. eigenvalues --  -10.45098 -10.41028 -10.39809 -10.38835 -10.38126
 Alpha  occ. eigenvalues --  -10.37403 -10.37149 -10.36405 -10.36335 -10.35249
 Alpha  occ. eigenvalues --  -10.35211 -10.34919 -10.34468 -10.34108 -10.33988
 Alpha  occ. eigenvalues --  -10.33427 -10.33124 -10.32239 -10.31754 -10.30671
 Alpha  occ. eigenvalues --  -10.30306 -10.29616 -10.27921  -1.19127  -1.14472
 Alpha  occ. eigenvalues --   -1.13104  -1.12738  -1.12609  -1.10415  -1.09155
 Alpha  occ. eigenvalues --   -1.08431  -1.08201  -1.05985  -1.03740  -1.02268
 Alpha  occ. eigenvalues --   -1.01440  -1.00234  -0.99572  -0.98356  -0.98151
 Alpha  occ. eigenvalues --   -0.96335  -0.95885  -0.93612  -0.90811  -0.87316
 Alpha  occ. eigenvalues --   -0.85870  -0.85105  -0.83869  -0.83543  -0.83469
 Alpha  occ. eigenvalues --   -0.82158  -0.78648  -0.76164  -0.74448  -0.73976
 Alpha  occ. eigenvalues --   -0.73959  -0.73447  -0.73184  -0.72086  -0.69677
 Alpha  occ. eigenvalues --   -0.67373  -0.67191  -0.66640  -0.65833  -0.64533
 Alpha  occ. eigenvalues --   -0.63829  -0.63779  -0.63273  -0.62832  -0.62463
 Alpha  occ. eigenvalues --   -0.61551  -0.61221  -0.59875  -0.59315  -0.58857
 Alpha  occ. eigenvalues --   -0.58583  -0.58168  -0.57558  -0.57485  -0.56407
 Alpha  occ. eigenvalues --   -0.55999  -0.55695  -0.55595  -0.54784  -0.54163
 Alpha  occ. eigenvalues --   -0.53855  -0.53397  -0.53061  -0.52904  -0.52596
 Alpha  occ. eigenvalues --   -0.52449  -0.51966  -0.51507  -0.51226  -0.50260
 Alpha  occ. eigenvalues --   -0.49964  -0.49908  -0.49284  -0.49113  -0.49074
 Alpha  occ. eigenvalues --   -0.48513  -0.48349  -0.48082  -0.47978  -0.47579
 Alpha  occ. eigenvalues --   -0.47243  -0.46068  -0.45332  -0.43589  -0.42666
 Alpha  occ. eigenvalues --   -0.42013  -0.39901  -0.39113  -0.38176  -0.37172
 Alpha  occ. eigenvalues --   -0.37056  -0.37035  -0.36776  -0.35886  -0.34650
 Alpha  occ. eigenvalues --   -0.34563  -0.34027  -0.33763  -0.33410  -0.32984
 Alpha  occ. eigenvalues --   -0.32568  -0.32450  -0.31752  -0.31493  -0.31351
 Alpha  occ. eigenvalues --   -0.31214  -0.28627  -0.26813  -0.25295
 Alpha virt. eigenvalues --    0.02646   0.05510   0.06797   0.06957   0.09201
 Alpha virt. eigenvalues --    0.09495   0.09822   0.10357   0.11276   0.12184
 Alpha virt. eigenvalues --    0.12882   0.13483   0.14397   0.14847   0.15009

 Mulliken charges:
               1
     1  N   -0.307561
     2  C    0.178939
     3  C    0.057144
     4  N   -0.245231
     5  C    0.120028
     6  H    0.028370
     7  N   -0.277079
     8  C    0.142792
     9  H    0.011533
    10  N   -0.280619
    11  C    0.211901
    12  C    0.079057
    13  N   -0.038767
    14  H    0.110352
    15  H    0.090859
    16  H    0.031597
    17  H    0.037812
    18  H    0.026113
    19  N   -0.293003
    20  C    0.239943
    21  C    0.204481
    22  N   -0.115243
    23  H    0.116237
    24  H    0.117311
    25  N   -0.298354
    26  C    0.223342
    27  N   -0.141824
    28  H    0.126800
    29  C    0.167931
    30  O   -0.323886
    31  C   -0.005011
    32  N   -0.223860
    33  C    0.129660
    34  H    0.022294
    35  H   -0.008941
    36  H    0.032742
    37  H    0.019843
    38  H    0.045602
    39  H    0.059438
    40  H    0.073935
    41  H    0.026541
    42  C   -0.068918
    43  O   -0.267486
    44  C    0.165887
    45  H    0.133968
    46  N   -0.123510
    47  O   -0.336032
    48  C    0.330647
    49  H    0.041117
    50  C    0.149825
    51  C    0.047086
    52  N   -0.277797
    53  H    0.031656
    54  H    0.040469
    55  H   -0.013452
    56  H    0.119777
    57  H    0.120391
    58  N   -0.053022
    59  C    0.123709
    60  C    0.205656
    61  N   -0.259877
    62  H    0.036097
    63  C    0.145398
    64  N   -0.304491
    65  H    0.029482
    66  C    0.120059
    67  N   -0.242263
    68  C    0.024900
    69  C    0.204104
    70  N   -0.296600
 Sum of Mulliken charges =  -0.00000

 Dipole moment (field-independent basis, Debye):
    X=             -3.8443    Y=              4.8290    Z=             -5.8568  Tot=              8.5088
 Quadrupole moment (field-independent basis, Debye-Ang):
   XX=           -145.2586   YY=           -224.8310   ZZ=           -261.9537
   XY=            -13.1952   XZ=             17.8206   YZ=             -3.5617

 Normal termination of Gaussian 16 at Fri Jan 26 02:34:43 2018.
