 Gaussian 16, Revision A.03,
 Gaussian 16:  EM64L-G16RevA.03 25-Dec-2016

 ---------------------------------------
 #p wb97xd/cc-pvdz sp scf=(maxcycles=20)
 ---------------------------------------

 ------------------
 Base pair stacking
 ------------------
 Symbolic Z-matrix:
 Charge =  0 Multiplicity = 1

                         Standard orientation:
 ---------------------------------------------------------------------
 Center     Atomic      Atomic             Coordinates (Angstroms)
 Number     Number       Type             X           Y           Z
 ---------------------------------------------------------------------
      1          7           0        4.512356    0.079436    1.949037
      2          6           0        5.758174   -0.708851    2.016559
      3          6           0        2.398763    0.670731    1.806220
      4          7           0        3.125201    1.848336    1.907624
      5          6           0        4.369487    1.444963    1.989612
      6          1           0        5.231023    2.106897    2.082037
      7          7           0        0.626720   -0.873289    1.609190
      8          6           0        1.558566   -1.831361    1.645742
      9          1           0        1.180564   -2.850539    1.577574
     10          7           0        2.881041   -1.720014    1.753342
     11          6           0        3.240149   -0.427908    1.830365
     12          6           0        1.020145    0.416656    1.688825
     13          7           0        0.091436    1.374446    1.652511
     14          1           0        0.337126    2.342821    1.708406
     15          1           0       -0.881026    1.156828    1.568245
     16          1           0        6.227236   -0.520216    2.879447
     17          1           0        5.540480   -1.682935    1.962640
     18          1           0        6.354565   -0.459589    1.253556
     19          7           0        5.706127   -0.066257   -0.949621
     20          6           0        4.391114   -0.451162   -1.052789
     21          6           0        6.847698   -0.977269   -0.731505
     22          7           0        1.980303   -2.951101   -1.056655
     23          1           0        0.988090   -3.018833   -1.157490
     24          1           0        2.481219   -3.805185   -0.914030
     25          7           0        3.924676   -1.716116   -0.972868
     26          6           0        2.611652   -1.768551   -1.110143
     27          7           0        1.814580   -0.667606   -1.310451
     28          1           0        0.819616   -0.802232   -1.404674
     29          6           0        2.272908    0.643293   -1.395995
     30          8           0        1.469142    1.565984   -1.578618
     31          6           0        3.681615    0.715606   -1.250369
     32          7           0        4.534043    1.810989   -1.270836
     33          6           0        5.721549    1.300125   -1.089035
     34          1           0        6.646107    1.877018   -1.048123
     35          1           0        7.312681   -0.733952    0.119025
     36          1           0        6.514395   -1.917202   -0.670672
     37          1           0        7.488076   -0.900597   -1.494946
     38          1           0       -4.097288   -2.072227   -1.151924
     39          1           0       -3.996235   -1.984365   -2.908828
     40          1           0       -2.589184   -2.483186   -1.969290
     41          1           0       -4.257947    2.691414   -1.806495
     42          6           0       -3.526601    1.883108   -1.804848
     43          8           0       -1.655068    3.329504   -1.624873
     44          6           0       -2.134157    2.198935   -1.708964
     45          1           0       -0.303271    1.286476   -1.649284
     46          7           0       -1.294632    1.103315   -1.715468
     47          8           0       -0.839642   -1.119957   -1.800481
     48          6           0       -1.658052   -0.217255   -1.802413
     49          1           0       -4.958337    0.311478   -1.965800
     50          6           0       -3.911991    0.604574   -1.890953
     51          6           0       -3.454046   -1.836777   -1.986706
     52          7           0       -3.017901   -0.440887   -1.891815
     53          1           0       -6.915995   -3.227822    1.113293
     54          1           0       -5.553662   -3.297045    0.218108
     55          1           0       -6.959341   -2.833314   -0.469712
     56          1           0       -3.138378    3.127438    1.750375
     57          1           0       -4.842663    3.059260    1.779500
     58          7           0       -3.972098    2.586581    1.638430
     59          6           0       -3.926120    1.292481    1.315384
     60          6           0       -4.860233   -0.837039    0.811086
     61          7           0       -3.676855   -1.445674    0.627744
     62          1           0       -1.677112   -1.000235    0.684447
     63          6           0       -2.676444   -0.587008    0.814222
     64          7           0       -2.720438    0.709503    1.137815
     65          1           0       -8.076604   -0.550542    0.969284
     66          6           0       -6.999027   -0.384342    0.981485
     67          7           0       -6.424890    0.762530    1.251150
     68          6           0       -5.068722    0.489422    1.146572
     69          6           0       -6.408885   -2.800814    0.364631
     70          7           0       -6.111789   -1.396078    0.705903
 ---------------------------------------------------------------------

 SCF Done:  E(RwB97XD) =  -2048.72106896     A.U. after   15 cycles

 The electronic state is 1-A.
 Alpha  occ. eigenvalues --  -19.25005 -19.21178 -19.20759 -14.52761 -14.51368
 Alpha  occ. eigenvalues --  -14.49575 -14.49160 -14.48243 -14.46969 -14.46863
 Alpha  occ. eigenvalues --  -14.46618 -14.45449 -14.44626 -14.44476 -14.43130
 Alpha  occ. eigenvalues --  -14.42018 -14.41623 -14.41576 -14.41525 -14.41107
 Alpha  occ. eigenvalues --  -10.44554 -10.41269 -10.40142 -10.39278 -10.38429
 Alpha  occ. eigenvalues --  -10.38028 -10.37460 -10.36784 -10.36212 -10.36204
 Alpha  occ. eigenvalues --  -10.34820 -10.34421 -10.34373 -10.34036 -10.33918
 Alpha  occ. eigenvalues --  -10.33757 -10.32988 -10.32814 -10.31994 -10.31058
 Alpha  occ. eigenvalues --  -10.30094 -10.29119 -10.28552  -1.18591  -1.15454
 Alpha  occ. eigenvalues --   -1.13519  -1.12190  -1.11772  -1.11177  -1.09652
 Alpha  occ. eigenvalues --   -1.08719  -1.08280  -1.05811  -1.05118  -1.01575
 Alpha  occ. eigenvalues --   -1.01206  -1.01137  -0.99808  -0.98897  -0.97563
 Alpha  occ. eigenvalues --   -0.97288  -0.97086  -0.93488  -0.90042  -0.87889
 Alpha  occ. eigenvalues --   -0.86235  -0.85313  -0.84242  -0.83666  -0.82535
 Alpha  occ. eigenvalues --   -0.82285  -0.77954  -0.77245  -0.75240  -0.75069
 Alpha  occ. eigenvalues --   -0.73769  -0.73531  -0.72415  -0.71731  -0.70637
 Alpha  occ. eigenvalues --   -0.67636  -0.67068  -0.67000  -0.65645  -0.64863
 Alpha  occ. eigenvalues --   -0.64482  -0.63447  -0.63133  -0.62759  -0.61948
 Alpha  occ. eigenvalues --   -0.61238  -0.61050  -0.60632  -0.60416  -0.59855
 Alpha  occ. eigenvalues --   -0.59028  -0.58716  -0.58351  -0.57330  -0.56224
 Alpha  occ. eigenvalues --   -0.55864  -0.55608  -0.55501  -0.54517  -0.54291
 Alpha  occ. eigenvalues --   -0.53967  -0.53803  -0.53423  -0.53124  -0.52970
 Alpha  occ. eigenvalues --   -0.52474  -0.52172  -0.51221  -0.50977  -0.50493
 Alpha  occ. eigenvalues --   -0.50357  -0.49761  -0.49661  -0.49332  -0.49257
 Alpha  occ. eigenvalues --   -0.49019  -0.48718  -0.48017  -0.47535  -0.47296
 Alpha  occ. eigenvalues --   -0.47063  -0.46337  -0.44810  -0.44568  -0.43017
 Alpha  occ. eigenvalues --   -0.41005  -0.40515  -0.38845  -0.38337  -0.37914
 Alpha  occ. eigenvalues --   -0.37708  -0.37591  -0.37172  -0.35554  -0.34897
 Alpha  occ. eigenvalues --   -0.34491  -0.34146  -0.34012  -0.33821  -0.33199
 Alpha  occ. eigenvalues --   -0.33107  -0.32412  -0.32011  -0.31598  -0.31255
 Alpha  occ. eigenvalues --   -0.30927  -0.29452  -0.27104  -0.25100
 Alpha virt. eigenvalues --    0.03695   0.04082   0.06565   0.07278   0.08705
 Alpha virt. eigenvalues --    0.09035   0.09485   0.10293   0.10442   0.12325
 Alpha virt. eigenvalues --    0.12887   0.13493   0.14070   0.14622   0.14889

 Mulliken charges:
               1
     1  N   -0.293517
     2  C    0.206671
     3  C    0.052315
     4  N   -0.241317
     5  C    0.142841
     6  H    0.025756
     7  N   -0.277921
     8  C    0.114350
     9  H   -0.002472
    10  N   -0.266273
    11  C    0.217005
    12  C    0.073959
    13  N   -0.050940
    14  H    0.114314
    15  H    0.085985
    16  H    0.024867
    17  H    0.036132
    18  H   -0.018246
    19  N   -0.302323
    20  C    0.218367
    21  C    0.187698
    22  N   -0.098821
    23  H    0.118901
    24  H    0.119100
    25  N   -0.273899
    26  C    0.201538
    27  N   -0.112618
    28  H    0.119467
    29  C    0.172958
    30  O   -0.317225
    31  C    0.004145
    32  N   -0.209289
    33  C    0.099660
    34  H    0.023118
    35  H    0.012156
    36  H    0.035169
    37  H    0.024985
    38  H    0.053059
    39  H    0.041497
    40  H    0.069773
    41  H    0.021691
    42  C   -0.097006
    43  O   -0.274245
    44  C    0.178397
    45  H    0.129430
    46  N   -0.115630
    47  O   -0.342301
    48  C    0.309533
    49  H    0.042073
    50  C    0.152619
    51  C    0.055747
    52  N   -0.262113
    53  H    0.036757
    54  H    0.050200
    55  H    0.028555
    56  H    0.124666
    57  H    0.120763
    58  N   -0.059427
    59  C    0.110020
    60  C    0.225716
    61  N   -0.287960
    62  H    0.038357
    63  C    0.162371
    64  N   -0.306897
    65  H    0.039536
    66  C    0.137316
    67  N   -0.255200
    68  C    0.043202
    69  C    0.176496
    70  N   -0.313588
 Sum of Mulliken charges =  -0.00000

 Dipole moment (field-independent basis, Debye):
    X=             -4.5997    Y=             -7.9619    Z=              1.1235  Tot=              9.2635
 Quadrupole moment (field-independent basis, Debye-Ang):
   XX=           -144.5551   YY=           -240.9543   ZZ=           -250.1190
   XY=              3.9116   XZ=             10.7541   YZ=             20.5008

 Normal termination of Gaussian 16 at Thu Jan 25 08:28:30 2018.
