 Gaussian 16, Revision A.03,
 Gaussian 16:  EM64L-G16RevA.03 25-Dec-2016

 ---------------------------------------
 #p wb97xd/cc-pvdz sp scf=(maxcycles=20)
 ---------------------------------------

 ------------------
 Base pair stacking
 ------------------
 Symbolic Z-matrix:
 Charge =  0 Multiplicity = 1

                         Standard orientation:
 ---------------------------------------------------------------------
 Center     Atomic      Atomic             Coordinates (Angstroms)
 Number     Number       Type             X           Y           Z
 ---------------------------------------------------------------------
      1          7           0       -4.453516    2.322201   -0.231647
      2          6           0       -5.671361    2.510407   -1.043707
      3          6           0       -2.366737    2.033793    0.400382
      4          7           0       -3.122180    2.075719    1.563258
      5          6           0       -4.349151    2.247787    1.135938
      6          1           0       -5.224752    2.327947    1.780803
      7          7           0       -0.560721    1.876494   -1.108421
      8          6           0       -1.461436    2.032530   -2.084091
      9          1           0       -1.057089    2.027552   -3.095397
     10          7           0       -2.780462    2.193049   -1.998473
     11          6           0       -3.173549    2.184364   -0.714020
     12          6           0       -0.987896    1.872172    0.173210
     13          7           0       -0.090294    1.716536    1.148534
     14          1           0       -0.361567    1.707097    2.111623
     15          1           0        0.883391    1.604123    0.949906
     16          1           0       -6.106614    3.376756   -0.798411
     17          1           0       -5.427783    2.523577   -2.013057
     18          1           0       -6.308422    1.758954   -0.872030
     19          7           0       -5.740271   -1.144001    0.068347
     20          6           0       -4.431136   -1.376478   -0.278309
     21          6           0       -6.896697   -1.250233   -0.843837
     22          7           0       -2.059849   -2.246579   -2.661946
     23          1           0       -1.068507   -2.366894   -2.706550
     24          1           0       -2.574576   -2.405589   -3.504852
     25          7           0       -3.984862   -1.738104   -1.500654
     26          6           0       -2.672387   -1.888124   -1.523426
     27          7           0       -1.857482   -1.698948   -0.433636
     28          1           0       -0.864451   -1.836102   -0.543345
     29          6           0       -2.294900   -1.326802    0.833656
     30          8           0       -1.476150   -1.182431    1.749937
     31          6           0       -3.702763   -1.161887    0.873739
     32          7           0       -4.537815   -0.801924    1.922555
     33          6           0       -5.733780   -0.804368    1.399235
     34          1           0       -6.649297   -0.565144    1.941346
     35          1           0       -7.360579   -0.366854   -0.900914
     36          1           0       -6.578396   -1.517554   -1.752395
     37          1           0       -7.533311   -1.939085   -0.498832
     38          1           0        4.031063   -2.047639   -1.900515
     39          1           0        3.937134   -3.666608   -1.211499
     40          1           0        2.519358   -2.952994   -1.980940
     41          1           0        4.268614   -1.022281    2.794025
     42          6           0        3.524666   -1.297345    2.046291
     43          8           0        1.675483   -0.625947    3.371760
     44          6           0        2.137048   -1.095315    2.331839
     45          1           0        0.291870   -1.349185    1.483778
     46          7           0        1.280447   -1.476706    1.318909
     47          8           0        0.790893   -2.321005   -0.731629
     48          6           0        1.623374   -2.013902    0.103436
     49          1           0        4.932069   -1.992972    0.603682
     50          6           0        3.890218   -1.819331    0.869635
     51          6           0        3.394311   -2.748791   -1.381861
     52          7           0        2.979835   -2.178025   -0.097273
     53          1           0        7.018106    1.214376   -3.300555
     54          1           0        5.619640    0.392533   -3.476537
     55          1           0        6.978839   -0.395168   -3.033643
     56          1           0        3.087777    1.523358    2.986145
     57          1           0        4.792924    1.477619    2.964370
     58          7           0        3.931170    1.415492    2.459656
     59          6           0        3.908802    1.198412    1.143009
     60          6           0        4.881512    0.820889   -0.995451
     61          7           0        3.709498    0.742151   -1.647072
     62          1           0        1.702085    0.857383   -1.250073
     63          6           0        2.693658    0.906911   -0.802194
     64          7           0        2.714006    1.124438    0.516842
     65          1           0        8.091944    0.804503   -0.614578
     66          6           0        7.011580    0.854155   -0.475703
     67          7           0        6.416664    1.058904    0.674014
     68          6           0        5.065779    1.040156    0.358612
     69          6           0        6.465622    0.458937   -2.948309
     70          7           0        6.142984    0.701551   -1.528787
 ---------------------------------------------------------------------

 SCF Done:  E(RwB97XD) =  -2048.74454268     A.U. after   15 cycles

 The electronic state is 1-A.
 Alpha  occ. eigenvalues --  -19.25354 -19.22000 -19.20911 -14.52295 -14.51855
 Alpha  occ. eigenvalues --  -14.49524 -14.48856 -14.47553 -14.47376 -14.47133
 Alpha  occ. eigenvalues --  -14.46900 -14.45140 -14.44352 -14.44173 -14.42528
 Alpha  occ. eigenvalues --  -14.42350 -14.41505 -14.41269 -14.41054 -14.40713
 Alpha  occ. eigenvalues --  -10.44936 -10.41570 -10.39920 -10.39685 -10.38587
 Alpha  occ. eigenvalues --  -10.37709 -10.37080 -10.36889 -10.35894 -10.35753
 Alpha  occ. eigenvalues --  -10.34915 -10.34509 -10.33960 -10.33951 -10.33815
 Alpha  occ. eigenvalues --  -10.33570 -10.33430 -10.32398 -10.31838 -10.31292
 Alpha  occ. eigenvalues --  -10.30259 -10.28718 -10.28614  -1.18917  -1.15019
 Alpha  occ. eigenvalues --   -1.13571  -1.12926  -1.11409  -1.11158  -1.09241
 Alpha  occ. eigenvalues --   -1.08901  -1.08652  -1.05378  -1.04645  -1.02067
 Alpha  occ. eigenvalues --   -1.00730  -1.00690  -1.00018  -0.98951  -0.97246
 Alpha  occ. eigenvalues --   -0.96992  -0.96714  -0.93038  -0.90445  -0.87460
 Alpha  occ. eigenvalues --   -0.85740  -0.84755  -0.84079  -0.83250  -0.82974
 Alpha  occ. eigenvalues --   -0.82523  -0.78331  -0.76822  -0.75114  -0.74741
 Alpha  occ. eigenvalues --   -0.73950  -0.73086  -0.72876  -0.71288  -0.70154
 Alpha  occ. eigenvalues --   -0.67758  -0.66632  -0.66502  -0.66019  -0.64763
 Alpha  occ. eigenvalues --   -0.63955  -0.63635  -0.62918  -0.62893  -0.62124
 Alpha  occ. eigenvalues --   -0.60573  -0.60351  -0.60059  -0.59400  -0.59057
 Alpha  occ. eigenvalues --   -0.58842  -0.58596  -0.58095  -0.56760  -0.56023
 Alpha  occ. eigenvalues --   -0.55891  -0.55679  -0.55075  -0.54625  -0.54331
 Alpha  occ. eigenvalues --   -0.54161  -0.53640  -0.53503  -0.53304  -0.52819
 Alpha  occ. eigenvalues --   -0.52619  -0.51897  -0.51884  -0.50891  -0.50654
 Alpha  occ. eigenvalues --   -0.50462  -0.49982  -0.49752  -0.49285  -0.49108
 Alpha  occ. eigenvalues --   -0.48963  -0.48635  -0.48507  -0.47463  -0.47242
 Alpha  occ. eigenvalues --   -0.47143  -0.46031  -0.45111  -0.44769  -0.42982
 Alpha  occ. eigenvalues --   -0.41317  -0.40561  -0.39151  -0.37821  -0.37693
 Alpha  occ. eigenvalues --   -0.37551  -0.37318  -0.37192  -0.35647  -0.34642
 Alpha  occ. eigenvalues --   -0.34348  -0.34226  -0.33886  -0.33532  -0.33309
 Alpha  occ. eigenvalues --   -0.33015  -0.32647  -0.32114  -0.31524  -0.31174
 Alpha  occ. eigenvalues --   -0.30659  -0.29469  -0.26639  -0.25321
 Alpha virt. eigenvalues --    0.03647   0.04154   0.06613   0.07693   0.08555
 Alpha virt. eigenvalues --    0.09198   0.09526   0.10608   0.10750   0.12093
 Alpha virt. eigenvalues --    0.12967   0.13779   0.14210   0.14440   0.14677

 Mulliken charges:
               1
     1  N   -0.305561
     2  C    0.189856
     3  C    0.030534
     4  N   -0.233147
     5  C    0.144189
     6  H    0.024462
     7  N   -0.295316
     8  C    0.128539
     9  H    0.009871
    10  N   -0.285066
    11  C    0.244212
    12  C    0.081819
    13  N   -0.050428
    14  H    0.119986
    15  H    0.090330
    16  H    0.026752
    17  H    0.036167
    18  H    0.003622
    19  N   -0.304796
    20  C    0.252541
    21  C    0.180901
    22  N   -0.122613
    23  H    0.118701
    24  H    0.119974
    25  N   -0.310758
    26  C    0.252615
    27  N   -0.144891
    28  H    0.120365
    29  C    0.187683
    30  O   -0.319900
    31  C   -0.012795
    32  N   -0.209083
    33  C    0.101624
    34  H    0.022710
    35  H    0.017231
    36  H    0.033132
    37  H    0.028079
    38  H    0.053854
    39  H    0.054824
    40  H    0.073803
    41  H    0.014497
    42  C   -0.092922
    43  O   -0.284384
    44  C    0.182328
    45  H    0.129598
    46  N   -0.117773
    47  O   -0.352009
    48  C    0.338877
    49  H    0.044887
    50  C    0.162966
    51  C    0.045944
    52  N   -0.273461
    53  H    0.035562
    54  H    0.041651
    55  H    0.027692
    56  H    0.125673
    57  H    0.118411
    58  N   -0.040938
    59  C    0.057309
    60  C    0.229985
    61  N   -0.270223
    62  H    0.034234
    63  C    0.158430
    64  N   -0.300667
    65  H    0.037909
    66  C    0.135376
    67  N   -0.257664
    68  C    0.048195
    69  C    0.178290
    70  N   -0.311792
 Sum of Mulliken charges =  -0.00000

 Dipole moment (field-independent basis, Debye):
    X=              4.3342    Y=             -2.5884    Z=             -7.5111  Tot=              9.0500
 Quadrupole moment (field-independent basis, Debye-Ang):
   XX=           -145.1864   YY=           -239.7957   ZZ=           -245.4780
   XY=            -11.6220   XZ=             -2.9493   YZ=             17.6524

 Normal termination of Gaussian 16 at Thu Jan 25 13:27:13 2018.
