 Gaussian 16, Revision A.03,
 Gaussian 16:  EM64L-G16RevA.03 25-Dec-2016

 ---------------------------------------
 #p wb97xd/cc-pvdz sp scf=(maxcycles=20)
 ---------------------------------------

 ------------------
 Base pair stacking
 ------------------
 Symbolic Z-matrix:
 Charge =  0 Multiplicity = 1

                         Standard orientation:
 ---------------------------------------------------------------------
 Center     Atomic      Atomic             Coordinates (Angstroms)
 Number     Number       Type             X           Y           Z
 ---------------------------------------------------------------------
      1          7           0        4.484793   -1.476700   -1.499502
      2          6           0        5.721707   -1.000949   -2.148900
      3          6           0        2.379895   -1.756863   -0.926606
      4          7           0        3.115211   -2.635895   -0.144717
      5          6           0        4.353909   -2.431918   -0.521171
      6          1           0        5.219665   -2.955514   -0.114637
      7          7           0        0.597615   -0.550994   -1.892147
      8          6           0        1.519629    0.065106   -2.639063
      9          1           0        1.133510    0.809581   -3.333993
     10          7           0        2.840798   -0.099567   -2.656349
     11          6           0        3.210397   -1.035590   -1.766572
     12          6           0        1.001444   -1.487724   -1.006409
     13          7           0        0.082561   -2.103821   -0.259926
     14          1           0        0.336148   -2.803798    0.408614
     15          1           0       -0.890109   -1.886854   -0.343435
     16          1           0        6.176038   -1.766357   -2.604869
     17          1           0        5.496018   -0.298760   -2.823532
     18          1           0        6.334776   -0.614150   -1.460034
     19          7           0        5.724967    0.744450    0.709008
     20          6           0        4.412495    1.119236    0.550871
     21          6           0        6.872882    1.330316   -0.011920
     22          7           0        2.018672    3.119427   -0.975742
     23          1           0        1.026840    3.239251   -0.941573
     24          1           0        2.525489    3.709004   -1.605231
     25          7           0        3.954704    2.077977   -0.282978
     26          6           0        2.641948    2.209314   -0.212131
     27          7           0        1.837250    1.460056    0.611642
     28          1           0        0.843122    1.629020    0.599926
     29          6           0        2.286601    0.468253    1.477820
     30          8           0        1.476437   -0.150069    2.179270
     31          6           0        3.694923    0.315597    1.412871
     32          7           0        4.539888   -0.546370    2.098391
     33          6           0        5.731004   -0.256588    1.649513
     34          1           0        6.651665   -0.744228    1.971793
     35          1           0        7.337002    0.618306   -0.537686
     36          1           0        6.546016    2.041778   -0.632599
     37          1           0        7.512015    1.729900    0.644328
     38          1           0       -4.064822    2.508243   -0.395925
     39          1           0       -3.966020    3.504778    1.053838
     40          1           0       -2.554730    3.323826    0.011285
     41          1           0       -4.258362   -0.878317    3.015864
     42          6           0       -3.521556   -0.240621    2.527308
     43          8           0       -1.659685   -1.508109    3.271661
     44          6           0       -2.131199   -0.556478    2.649667
     45          1           0       -0.294110    0.123444    2.057090
     46          7           0       -1.284267    0.313925    1.993641
     47          8           0       -0.814311    2.129789    0.713422
     48          6           0       -1.638811    1.417690    1.259106
     49          1           0       -4.942762    1.112690    1.693931
     50          6           0       -3.898350    0.829345    1.817512
     51          6           0       -3.423973    2.824981    0.413424
     52          7           0       -2.997207    1.656189    1.187741
     53          1           0       -6.955935    1.468376   -3.136501
     54          1           0       -5.577555    2.162514   -2.607039
     55          1           0       -6.965538    2.363835   -1.772146
     56          1           0       -3.132059   -3.340483    1.025032
     57          1           0       -4.837159   -3.302622    0.988821
     58          7           0       -3.968512   -2.884918    0.720142
     59          6           0       -3.928462   -1.769925   -0.012214
     60          6           0       -4.872625    0.052526   -1.215953
     61          7           0       -3.691699    0.591131   -1.562006
     62          1           0       -1.689330    0.231993   -1.312717
     63          6           0       -2.687050   -0.136084   -1.077499
     64          7           0       -2.725105   -1.253135   -0.343779
     65          1           0       -8.088616   -0.233540   -1.049362
     66          6           0       -7.009958   -0.363475   -0.956823
     67          7           0       -6.430388   -1.344107   -0.308633
     68          6           0       -5.075082   -1.092333   -0.465056
     69          6           0       -6.430745    1.724715   -2.325045
     70          7           0       -6.127116    0.518639   -1.530565
 ---------------------------------------------------------------------

 SCF Done:  E(RwB97XD) =  -2048.74928692     A.U. after   15 cycles

 The electronic state is 1-A.
 Alpha  occ. eigenvalues --  -19.25136 -19.21414 -19.20785 -14.52551 -14.51580
 Alpha  occ. eigenvalues --  -14.49546 -14.49106 -14.48075 -14.47079 -14.46947
 Alpha  occ. eigenvalues --  -14.46721 -14.45313 -14.44526 -14.44469 -14.42946
 Alpha  occ. eigenvalues --  -14.42171 -14.41552 -14.41545 -14.41413 -14.41027
 Alpha  occ. eigenvalues --  -10.44698 -10.41394 -10.39994 -10.39469 -10.38466
 Alpha  occ. eigenvalues --  -10.37891 -10.37313 -10.36855 -10.36126 -10.36089
 Alpha  occ. eigenvalues --  -10.34850 -10.34286 -10.34112 -10.33968 -10.33846
 Alpha  occ. eigenvalues --  -10.33804 -10.33727 -10.32654 -10.31947 -10.31366
 Alpha  occ. eigenvalues --  -10.30157 -10.29021 -10.28549  -1.18690  -1.15258
 Alpha  occ. eigenvalues --   -1.13477  -1.12392  -1.11678  -1.11135  -1.09468
 Alpha  occ. eigenvalues --   -1.08737  -1.08416  -1.05697  -1.04914  -1.01725
 Alpha  occ. eigenvalues --   -1.01050  -1.00954  -0.99840  -0.98861  -0.97393
 Alpha  occ. eigenvalues --   -0.97145  -0.96985  -0.93365  -0.90179  -0.87710
 Alpha  occ. eigenvalues --   -0.86013  -0.84879  -0.84274  -0.83367  -0.82691
 Alpha  occ. eigenvalues --   -0.82572  -0.78072  -0.77077  -0.75046  -0.75005
 Alpha  occ. eigenvalues --   -0.73802  -0.73399  -0.72560  -0.71595  -0.70437
 Alpha  occ. eigenvalues --   -0.67631  -0.66857  -0.66827  -0.65783  -0.64755
 Alpha  occ. eigenvalues --   -0.64267  -0.63286  -0.63246  -0.62784  -0.61979
 Alpha  occ. eigenvalues --   -0.60884  -0.60693  -0.60354  -0.59685  -0.59270
 Alpha  occ. eigenvalues --   -0.58925  -0.58758  -0.58414  -0.57084  -0.56059
 Alpha  occ. eigenvalues --   -0.55718  -0.55410  -0.55217  -0.54609  -0.54468
 Alpha  occ. eigenvalues --   -0.54216  -0.53720  -0.53403  -0.53113  -0.52912
 Alpha  occ. eigenvalues --   -0.52602  -0.52122  -0.51442  -0.50809  -0.50615
 Alpha  occ. eigenvalues --   -0.50388  -0.50219  -0.49455  -0.49399  -0.49210
 Alpha  occ. eigenvalues --   -0.48856  -0.48795  -0.48204  -0.47467  -0.47279
 Alpha  occ. eigenvalues --   -0.47191  -0.46095  -0.45106  -0.44881  -0.42962
 Alpha  occ. eigenvalues --   -0.41421  -0.40698  -0.38935  -0.37927  -0.37799
 Alpha  occ. eigenvalues --   -0.37588  -0.37545  -0.37317  -0.35569  -0.34788
 Alpha  occ. eigenvalues --   -0.34487  -0.34193  -0.33891  -0.33849  -0.33126
 Alpha  occ. eigenvalues --   -0.32949  -0.32559  -0.32064  -0.31637  -0.31337
 Alpha  occ. eigenvalues --   -0.30941  -0.29510  -0.26889  -0.25308
 Alpha virt. eigenvalues --    0.03809   0.04064   0.06534   0.07432   0.08627
 Alpha virt. eigenvalues --    0.09219   0.09538   0.10337   0.10475   0.12274
 Alpha virt. eigenvalues --    0.13132   0.13613   0.14085   0.14608   0.14910

 Mulliken charges:
               1
     1  N   -0.298863
     2  C    0.202428
     3  C    0.040725
     4  N   -0.237570
     5  C    0.143667
     6  H    0.025698
     7  N   -0.287645
     8  C    0.119765
     9  H    0.005511
    10  N   -0.274142
    11  C    0.232712
    12  C    0.078268
    13  N   -0.050292
    14  H    0.116666
    15  H    0.087595
    16  H    0.027787
    17  H    0.037948
    18  H   -0.017825
    19  N   -0.301614
    20  C    0.236775
    21  C    0.181302
    22  N   -0.113639
    23  H    0.118519
    24  H    0.119572
    25  N   -0.296617
    26  C    0.235465
    27  N   -0.131259
    28  H    0.119434
    29  C    0.179918
    30  O   -0.318193
    31  C   -0.005679
    32  N   -0.209639
    33  C    0.099994
    34  H    0.022871
    35  H    0.016866
    36  H    0.034396
    37  H    0.027633
    38  H    0.053705
    39  H    0.049425
    40  H    0.072305
    41  H    0.018858
    42  C   -0.097913
    43  O   -0.277555
    44  C    0.179260
    45  H    0.129460
    46  N   -0.117525
    47  O   -0.346859
    48  C    0.322199
    49  H    0.043380
    50  C    0.156011
    51  C    0.047288
    52  N   -0.265360
    53  H    0.037076
    54  H    0.045136
    55  H    0.028235
    56  H    0.126294
    57  H    0.119721
    58  N   -0.052365
    59  C    0.092079
    60  C    0.222589
    61  N   -0.274761
    62  H    0.036358
    63  C    0.160267
    64  N   -0.305380
    65  H    0.038880
    66  C    0.136528
    67  N   -0.256152
    68  C    0.046321
    69  C    0.176317
    70  N   -0.312358
 Sum of Mulliken charges =  -0.00000

 Dipole moment (field-independent basis, Debye):
    X=             -4.5300    Y=              5.7717    Z=             -5.3913  Tot=              9.1049
 Quadrupole moment (field-independent basis, Debye-Ang):
   XX=           -145.0330   YY=           -224.3158   ZZ=           -264.0583
   XY=            -10.5060   XZ=             -5.4035   YZ=             -1.5543

 Normal termination of Gaussian 16 at Thu Jan 25 00:32:59 2018.
