 Gaussian 16, Revision A.03,
 Gaussian 16:  EM64L-G16RevA.03 25-Dec-2016

 ---------------------------------------
 #p wb97xd/cc-pvdz sp scf=(maxcycles=20)
 ---------------------------------------

 ------------------
 Base pair stacking
 ------------------
 Symbolic Z-matrix:
 Charge =  0 Multiplicity = 1

                         Standard orientation:
 ---------------------------------------------------------------------
 Center     Atomic      Atomic             Coordinates (Angstroms)
 Number     Number       Type             X           Y           Z
 ---------------------------------------------------------------------
      1          7           0       -4.162283    2.337804   -0.048293
      2          6           0       -5.377418    2.589700   -0.847044
      3          6           0       -2.080009    1.981996    0.563964
      4          7           0       -2.834040    1.971902    1.728457
      5          6           0       -4.058357    2.186665    1.312988
      6          1           0       -4.932206    2.245130    1.962537
      7          7           0       -0.277554    1.879243   -0.953786
      8          6           0       -1.176209    2.102979   -1.918112
      9          1           0       -0.772555    2.147200   -2.928741
     10          7           0       -2.492461    2.279464   -1.821931
     11          6           0       -2.884937    2.206400   -0.539330
     12          6           0       -0.704037    1.811253    0.326277
     13          7           0        0.191516    1.587988    1.290286
     14          1           0       -0.079345    1.529909    2.251785
     15          1           0        1.163166    1.471223    1.084398
     16          1           0       -5.798678    3.448047   -0.553865
     17          1           0       -5.134187    2.652286   -1.814534
     18          1           0       -6.026260    1.840146   -0.716015
     19          7           0       -6.011263   -0.930496   -0.043017
     20          6           0       -4.704149   -1.144871   -0.408468
     21          6           0       -7.159345   -0.878193   -0.970299
     22          7           0       -2.327085   -1.730669   -2.871841
     23          1           0       -1.338445   -1.868482   -2.925002
     24          1           0       -2.835751   -1.756529   -3.732827
     25          7           0       -4.252627   -1.342154   -1.665950
     26          6           0       -2.943927   -1.520533   -1.699126
     27          7           0       -2.137306   -1.507115   -0.587060
     28          1           0       -1.146630   -1.652491   -0.707035
     29          6           0       -2.580240   -1.305955    0.716480
     30          8           0       -1.768858   -1.312571    1.650477
     31          6           0       -3.984138   -1.112849    0.768122
     32          7           0       -4.822352   -0.883000    1.850460
     33          6           0       -6.011959   -0.781656    1.322449
     34          1           0       -6.927658   -0.598023    1.885507
     35          1           0       -7.601335    0.015860   -0.906086
     36          1           0       -6.837103   -1.023029   -1.904876
     37          1           0       -7.816125   -1.592427   -0.730877
     38          1           0        3.757694   -1.794509   -2.041232
     39          1           0        3.617279   -3.491388   -1.587907
     40          1           0        2.225854   -2.641127   -2.260481
     41          1           0        3.965731   -1.445820    2.752690
     42          6           0        3.224066   -1.594145    1.967731
     43          8           0        1.376332   -1.069370    3.359711
     44          6           0        1.838471   -1.399331    2.267764
     45          1           0       -0.002374   -1.484786    1.377657
     46          7           0        0.984702   -1.612759    1.204392
     47          8           0        0.498724   -2.147689   -0.948483
     48          6           0        1.328650   -1.982169   -0.071844
     49          1           0        4.630942   -2.115277    0.452836
     50          6           0        3.590539   -1.954536    0.732249
     51          6           0        3.098499   -2.545341   -1.631627
     52          7           0        2.683029   -2.150613   -0.282806
     53          1           0        7.288546    1.218454   -3.189810
     54          1           0        5.877069    0.429826   -3.408713
     55          1           0        7.223809   -0.402517   -3.011725
     56          1           0        3.367109    1.243634    3.109971
     57          1           0        5.071302    1.172087    3.083284
     58          7           0        4.208384    1.151498    2.577140
     59          6           0        4.181828    1.007526    1.250588
     60          6           0        5.147232    0.732775   -0.906783
     61          7           0        3.973759    0.708595   -1.560067
     62          1           0        1.968655    0.833678   -1.154462
     63          6           0        2.961137    0.842757   -0.705965
     64          7           0        2.985670    0.987073    0.623006
     65          1           0        8.357204    0.644502   -0.531958
     66          6           0        7.277844    0.703595   -0.389015
     67          7           0        6.686907    0.854221    0.771059
     68          6           0        5.335708    0.874296    0.457033
     69          6           0        6.724296    0.453649   -2.878839
     70          7           0        6.406351    0.622930   -1.447664
 ---------------------------------------------------------------------

 SCF Done:  E(RwB97XD) =  -2048.75081479     A.U. after   15 cycles

 The electronic state is 1-A.
 Alpha  occ. eigenvalues --  -19.25202 -19.21713 -19.20856 -14.52410 -14.51665
 Alpha  occ. eigenvalues --  -14.49727 -14.48850 -14.48053 -14.47256 -14.47124
 Alpha  occ. eigenvalues --  -14.46872 -14.45242 -14.44646 -14.44454 -14.42832
 Alpha  occ. eigenvalues --  -14.42416 -14.41737 -14.41451 -14.41133 -14.40924
 Alpha  occ. eigenvalues --  -10.44790 -10.41609 -10.39962 -10.39668 -10.38590
 Alpha  occ. eigenvalues --  -10.37838 -10.37335 -10.36706 -10.36128 -10.35968
 Alpha  occ. eigenvalues --  -10.35060 -10.34164 -10.34060 -10.33973 -10.33882
 Alpha  occ. eigenvalues --  -10.33685 -10.33611 -10.32668 -10.31976 -10.31161
 Alpha  occ. eigenvalues --  -10.30123 -10.28863 -10.28734  -1.18751  -1.15173
 Alpha  occ. eigenvalues --   -1.13619  -1.12638  -1.11453  -1.11285  -1.09475
 Alpha  occ. eigenvalues --   -1.08886  -1.08483  -1.05567  -1.04931  -1.01876
 Alpha  occ. eigenvalues --   -1.00922  -1.00864  -1.00020  -0.99037  -0.97366
 Alpha  occ. eigenvalues --   -0.97145  -0.96920  -0.93241  -0.90203  -0.87662
 Alpha  occ. eigenvalues --   -0.85870  -0.84878  -0.84143  -0.83337  -0.82702
 Alpha  occ. eigenvalues --   -0.82551  -0.78133  -0.77039  -0.75199  -0.74949
 Alpha  occ. eigenvalues --   -0.73977  -0.73202  -0.72690  -0.71434  -0.70398
 Alpha  occ. eigenvalues --   -0.67797  -0.66832  -0.66622  -0.65890  -0.64856
 Alpha  occ. eigenvalues --   -0.64198  -0.63412  -0.63043  -0.62935  -0.62152
 Alpha  occ. eigenvalues --   -0.60717  -0.60516  -0.60015  -0.59614  -0.58923
 Alpha  occ. eigenvalues --   -0.58827  -0.58550  -0.58308  -0.56856  -0.55981
 Alpha  occ. eigenvalues --   -0.55855  -0.55827  -0.55231  -0.54628  -0.54357
 Alpha  occ. eigenvalues --   -0.54168  -0.53642  -0.53518  -0.53214  -0.52825
 Alpha  occ. eigenvalues --   -0.52621  -0.51895  -0.51617  -0.50902  -0.50713
 Alpha  occ. eigenvalues --   -0.50536  -0.50113  -0.49707  -0.49377  -0.49231
 Alpha  occ. eigenvalues --   -0.48912  -0.48661  -0.48405  -0.47390  -0.47282
 Alpha  occ. eigenvalues --   -0.47217  -0.45900  -0.45410  -0.45019  -0.42825
 Alpha  occ. eigenvalues --   -0.41492  -0.40753  -0.39071  -0.37917  -0.37706
 Alpha  occ. eigenvalues --   -0.37609  -0.37565  -0.37341  -0.35404  -0.34914
 Alpha  occ. eigenvalues --   -0.34582  -0.34274  -0.33741  -0.33650  -0.33288
 Alpha  occ. eigenvalues --   -0.33159  -0.32805  -0.32189  -0.31394  -0.31275
 Alpha  occ. eigenvalues --   -0.30818  -0.29780  -0.26433  -0.25815
 Alpha virt. eigenvalues --    0.03470   0.04268   0.06810   0.07640   0.08585
 Alpha virt. eigenvalues --    0.09039   0.09326   0.10385   0.10509   0.12523
 Alpha virt. eigenvalues --    0.13389   0.13681   0.13952   0.14314   0.14635

 Mulliken charges:
               1
     1  N   -0.303112
     2  C    0.193092
     3  C    0.031431
     4  N   -0.235491
     5  C    0.147088
     6  H    0.027007
     7  N   -0.294408
     8  C    0.126106
     9  H    0.009328
    10  N   -0.282718
    11  C    0.240646
    12  C    0.080207
    13  N   -0.055823
    14  H    0.120423
    15  H    0.091907
    16  H    0.026106
    17  H    0.035716
    18  H    0.000784
    19  N   -0.305098
    20  C    0.243000
    21  C    0.178943
    22  N   -0.120307
    23  H    0.119209
    24  H    0.119823
    25  N   -0.309535
    26  C    0.251853
    27  N   -0.142472
    28  H    0.120546
    29  C    0.187484
    30  O   -0.317429
    31  C   -0.010465
    32  N   -0.212896
    33  C    0.103076
    34  H    0.024452
    35  H    0.020861
    36  H    0.032914
    37  H    0.028839
    38  H    0.056045
    39  H    0.052612
    40  H    0.072049
    41  H    0.013358
    42  C   -0.083367
    43  O   -0.282455
    44  C    0.179111
    45  H    0.130752
    46  N   -0.125016
    47  O   -0.352449
    48  C    0.343843
    49  H    0.044970
    50  C    0.150061
    51  C    0.042337
    52  N   -0.272828
    53  H    0.035275
    54  H    0.041518
    55  H    0.028954
    56  H    0.126662
    57  H    0.119794
    58  N   -0.051334
    59  C    0.076354
    60  C    0.233808
    61  N   -0.272527
    62  H    0.036301
    63  C    0.157159
    64  N   -0.301494
    65  H    0.039084
    66  C    0.139447
    67  N   -0.258222
    68  C    0.043668
    69  C    0.178561
    70  N   -0.313117
 Sum of Mulliken charges =  -0.00000

 Dipole moment (field-independent basis, Debye):
    X=              4.4742    Y=             -1.3944    Z=             -7.8375  Tot=              9.1317
 Quadrupole moment (field-independent basis, Debye-Ang):
   XX=           -144.4286   YY=           -243.5190   ZZ=           -242.7841
   XY=            -13.3010   XZ=             -0.6047   YZ=             18.1535

 Normal termination of Gaussian 16 at Thu Jan 25 09:40:52 2018.
