 Gaussian 16, Revision A.03,
 Gaussian 16:  EM64L-G16RevA.03 25-Dec-2016

 ---------------------------------------
 #p wb97xd/cc-pvdz sp scf=(maxcycles=20)
 ---------------------------------------

 ------------------
 Base pair stacking
 ------------------
 Symbolic Z-matrix:
 Charge =  0 Multiplicity = 1

                         Standard orientation:
 ---------------------------------------------------------------------
 Center     Atomic      Atomic             Coordinates (Angstroms)
 Number     Number       Type             X           Y           Z
 ---------------------------------------------------------------------
      1          7           0        6.780501   -0.593264   -0.448208
      2          6           0        8.007775    0.161945   -0.766718
      3          6           0        4.688388   -1.262267   -0.335001
      4          7           0        5.425876   -2.165496    0.416680
      5          6           0        6.656783   -1.726292    0.318393
      6          1           0        7.521614   -2.194603    0.789228
      7          7           0        2.907115   -0.149244   -1.407946
      8          6           0        3.820176    0.718003   -1.857134
      9          1           0        3.430993    1.521517   -2.480969
     10          7           0        5.135632    0.741602   -1.652392
     11          6           0        5.509686   -0.287524   -0.874314
     12          6           0        3.315233   -1.173623   -0.627443
     13          7           0        2.405294   -2.040364   -0.178075
     14          1           0        2.662324   -2.813686    0.402544
     15          1           0        1.436169   -1.946325   -0.406360
     16          1           0        8.651490   -0.433119   -1.248078
     17          1           0        7.778475    0.942388   -1.347630
     18          1           0        8.428519    0.490287    0.078956
     19          7           0        3.356610    1.393061    1.425083
     20          6           0        2.045215    1.597881    1.069611
     21          6           0        4.502210    2.203816    0.965773
     22          7           0       -0.348612    3.397866   -0.688618
     23          1           0       -1.339376    3.375604   -0.819497
     24          1           0        0.156695    4.114318   -1.170350
     25          7           0        1.586566    2.566395    0.247626
     26          6           0        0.275244    2.507399    0.097372
     27          7           0       -0.527328    1.572269    0.704745
     28          1           0       -1.520458    1.602893    0.532371
     29          6           0       -0.077045    0.566634    1.554348
     30          8           0       -0.885282   -0.227493    2.051197
     31          6           0        1.329737    0.617178    1.725450
     32          7           0        2.174934   -0.187125    2.477526
     33          6           0        3.364133    0.309465    2.269122
     34          1           0        4.284371   -0.077685    2.707924
     35          1           0        5.149060    1.621591    0.474440
     36          1           0        4.174689    2.924505    0.356179
     37          1           0        4.957711    2.616705    1.753713
     38          1           0       -6.278722    1.896733   -1.235500
     39          1           0       -6.569984    2.739984    0.283950
     40          1           0       -4.997827    2.865466   -0.505950
     41          1           0       -6.499032   -1.822751    1.808095
     42          6           0       -5.799729   -1.041954    1.508826
     43          8           0       -3.910472   -2.111672    2.464634
     44          6           0       -4.415667   -1.174239    1.847546
     45          1           0       -2.633467   -0.189323    1.642581
     46          7           0       -3.617671   -0.131545    1.421849
     47          8           0       -3.231411    1.855782    0.392992
     48          6           0       -4.014022    0.983634    0.726984
     49          1           0       -7.258201    0.182352    0.549800
     50          6           0       -6.216576    0.034265    0.831647
     51          6           0       -5.833578    2.212233   -0.303631
     52          7           0       -5.363280    1.038800    0.437731
     53          1           0       -4.579433    1.019764   -3.702982
     54          1           0       -3.440415    1.781768   -2.817507
     55          1           0       -4.958208    1.628736   -2.237006
     56          1           0       -0.719643   -3.926490    0.259598
     57          1           0       -2.378622   -4.115592   -0.089885
     58          7           0       -1.560853   -3.539700   -0.118426
     59          6           0       -1.591810   -2.310666   -0.637755
     60          6           0       -2.623315   -0.438406   -1.682920
     61          7           0       -1.509729    0.312408   -1.707896
     62          1           0        0.458195    0.189149   -1.148721
     63          6           0       -0.488089   -0.349746   -1.168741
     64          7           0       -0.455058   -1.580750   -0.648057
     65          1           0       -5.729918   -1.187360   -2.173083
     66          6           0       -4.673796   -1.184049   -1.901892
     67          7           0       -4.049269   -2.181804   -1.325596
     68          6           0       -2.748277   -1.722169   -1.181067
     69          6           0       -4.241908    1.185906   -2.776448
     70          7           0       -3.871342   -0.096579   -2.147239
 ---------------------------------------------------------------------

 SCF Done:  E(RwB97XD) =  -2048.73724220     A.U. after   15 cycles

 The electronic state is 1-A.
 Alpha  occ. eigenvalues --  -19.26026 -19.21991 -19.20541 -14.52725 -14.51261
 Alpha  occ. eigenvalues --  -14.50293 -14.48289 -14.47897 -14.46520 -14.46385
 Alpha  occ. eigenvalues --  -14.46363 -14.44015 -14.43260 -14.42943 -14.42870
 Alpha  occ. eigenvalues --  -14.42845 -14.42147 -14.41795 -14.41286 -14.40584
 Alpha  occ. eigenvalues --  -10.45645 -10.40911 -10.40062 -10.38345 -10.38056
 Alpha  occ. eigenvalues --  -10.37725 -10.36705 -10.36665 -10.36152 -10.35798
 Alpha  occ. eigenvalues --  -10.35564 -10.34754 -10.34571 -10.34203 -10.34083
 Alpha  occ. eigenvalues --  -10.33013 -10.32999 -10.32230 -10.31106 -10.31095
 Alpha  occ. eigenvalues --  -10.30026 -10.29721 -10.27884  -1.19670  -1.13908
 Alpha  occ. eigenvalues --   -1.13067  -1.12974  -1.12870  -1.10332  -1.09596
 Alpha  occ. eigenvalues --   -1.08363  -1.07720  -1.06262  -1.03269  -1.02614
 Alpha  occ. eigenvalues --   -1.01740  -0.99653  -0.99469  -0.98385  -0.98285
 Alpha  occ. eigenvalues --   -0.96174  -0.95380  -0.93881  -0.91201  -0.86509
 Alpha  occ. eigenvalues --   -0.85343  -0.85196  -0.84027  -0.83775  -0.83614
 Alpha  occ. eigenvalues --   -0.81882  -0.79024  -0.75706  -0.74347  -0.74159
 Alpha  occ. eigenvalues --   -0.73562  -0.73473  -0.73351  -0.72372  -0.69104
 Alpha  occ. eigenvalues --   -0.67616  -0.67134  -0.66680  -0.65451  -0.64615
 Alpha  occ. eigenvalues --   -0.63993  -0.63545  -0.62937  -0.62512  -0.61944
 Alpha  occ. eigenvalues --   -0.61460  -0.61385  -0.59667  -0.59373  -0.58532
 Alpha  occ. eigenvalues --   -0.58249  -0.58059  -0.57642  -0.56899  -0.56580
 Alpha  occ. eigenvalues --   -0.56311  -0.56023  -0.55757  -0.54505  -0.54140
 Alpha  occ. eigenvalues --   -0.54104  -0.53403  -0.53119  -0.53067  -0.52551
 Alpha  occ. eigenvalues --   -0.52143  -0.51771  -0.51438  -0.51314  -0.51201
 Alpha  occ. eigenvalues --   -0.50294  -0.49892  -0.49493  -0.48758  -0.48573
 Alpha  occ. eigenvalues --   -0.48387  -0.48144  -0.48123  -0.48031  -0.47743
 Alpha  occ. eigenvalues --   -0.47296  -0.46077  -0.45269  -0.44239  -0.43043
 Alpha  occ. eigenvalues --   -0.41877  -0.39586  -0.39495  -0.38509  -0.37170
 Alpha  occ. eigenvalues --   -0.37058  -0.36377  -0.36219  -0.35906  -0.34990
 Alpha  occ. eigenvalues --   -0.34783  -0.34087  -0.33292  -0.33159  -0.33004
 Alpha  occ. eigenvalues --   -0.32576  -0.32338  -0.31917  -0.31805  -0.31728
 Alpha  occ. eigenvalues --   -0.31502  -0.28197  -0.26973  -0.25262
 Alpha virt. eigenvalues --    0.02769   0.05552   0.06563   0.07997   0.08834
 Alpha virt. eigenvalues --    0.08898   0.09880   0.10161   0.11386   0.11998
 Alpha virt. eigenvalues --    0.12513   0.13209   0.14737   0.14901   0.15119

 Mulliken charges:
               1
     1  N   -0.307770
     2  C    0.179199
     3  C    0.045469
     4  N   -0.251866
     5  C    0.128844
     6  H    0.030355
     7  N   -0.267088
     8  C    0.125517
     9  H    0.017423
    10  N   -0.281458
    11  C    0.211570
    12  C    0.083548
    13  N   -0.033335
    14  H    0.107714
    15  H    0.088845
    16  H    0.030619
    17  H    0.036736
    18  H    0.026241
    19  N   -0.296708
    20  C    0.245119
    21  C    0.198286
    22  N   -0.110656
    23  H    0.112974
    24  H    0.115874
    25  N   -0.294814
    26  C    0.216066
    27  N   -0.127542
    28  H    0.126989
    29  C    0.150639
    30  O   -0.325323
    31  C    0.006489
    32  N   -0.226440
    33  C    0.117899
    34  H    0.024764
    35  H    0.013236
    36  H    0.029395
    37  H    0.019171
    38  H    0.060526
    39  H    0.061923
    40  H    0.076581
    41  H    0.030723
    42  C   -0.075998
    43  O   -0.263673
    44  C    0.179110
    45  H    0.132615
    46  N   -0.123078
    47  O   -0.342425
    48  C    0.335407
    49  H    0.043317
    50  C    0.146588
    51  C    0.050235
    52  N   -0.284422
    53  H    0.031165
    54  H    0.038258
    55  H   -0.037902
    56  H    0.117052
    57  H    0.121787
    58  N   -0.063044
    59  C    0.138729
    60  C    0.212932
    61  N   -0.279935
    62  H    0.030480
    63  C    0.167368
    64  N   -0.308075
    65  H    0.024220
    66  C    0.118404
    67  N   -0.246782
    68  C    0.029564
    69  C    0.205402
    70  N   -0.293031
 Sum of Mulliken charges =  -0.00000

 Dipole moment (field-independent basis, Debye):
    X=             -3.7129    Y=              5.2329    Z=             -5.2186  Tot=              8.2706
 Quadrupole moment (field-independent basis, Debye-Ang):
   XX=           -141.7786   YY=           -225.6595   ZZ=           -259.9391
   XY=            -16.6866   XZ=             22.4184   YZ=             -0.3246

 Normal termination of Gaussian 16 at Fri Jan 26 12:39:35 2018.
