 Gaussian 16, Revision A.03,
 Gaussian 16:  EM64L-G16RevA.03 25-Dec-2016

 ---------------------------------------
 #p wb97xd/cc-pvdz sp scf=(maxcycles=20)
 ---------------------------------------

 ------------------
 Base pair stacking
 ------------------
 Symbolic Z-matrix:
 Charge =  0 Multiplicity = 1

                         Standard orientation:
 ---------------------------------------------------------------------
 Center     Atomic      Atomic             Coordinates (Angstroms)
 Number     Number       Type             X           Y           Z
 ---------------------------------------------------------------------
      1          7           0       -5.678454    1.053903   -0.950557
      2          6           0       -6.927721    0.400201   -1.386473
      3          6           0       -3.559407    1.565763   -0.659095
      4          7           0       -4.286985    2.495101    0.070069
      5          6           0       -5.534513    2.149530   -0.134714
      6          1           0       -6.397792    2.663660    0.288801
      7          7           0       -1.783883    0.362180   -1.639837
      8          6           0       -2.718506   -0.421701   -2.187187
      9          1           0       -2.340115   -1.230593   -2.810705
     10          7           0       -4.044128   -0.356698   -2.080467
     11          6           0       -4.403422    0.671012   -1.293602
     12          6           0       -2.177570    1.387532   -0.853225
     13          7           0       -1.246104    2.171132   -0.305953
     14          1           0       -1.491866    2.941770    0.283055
     15          1           0       -0.271392    2.014673   -0.465961
     16          1           0       -7.490022    1.055590   -1.890916
     17          1           0       -6.710016   -0.375515   -1.978070
     18          1           0       -7.433232    0.075893   -0.586929
     19          7           0       -4.561719   -1.106396    1.109469
     20          6           0       -3.245311   -1.381607    0.827700
     21          6           0       -5.724942   -1.754102    0.470638
     22          7           0       -0.861405   -3.163765   -0.961889
     23          1           0        0.135515   -3.212840   -1.016497
     24          1           0       -1.379284   -3.771475   -1.564555
     25          7           0       -2.796906   -2.282705   -0.072849
     26          6           0       -1.477042   -2.321179   -0.118710
     27          7           0       -0.657217   -1.537942    0.657135
     28          1           0        0.341382   -1.634651    0.555060
     29          6           0       -1.096710   -0.604114    1.590236
     30          8           0       -0.273080    0.052187    2.239568
     31          6           0       -2.512494   -0.551409    1.650833
     32          7           0       -3.351936    0.229285    2.433615
     33          6           0       -4.554796   -0.133453    2.078996
     34          1           0       -5.475295    0.278122    2.494395
     35          1           0       -6.281538   -1.063701    0.009809
     36          1           0       -5.405118   -2.423666   -0.198437
     37          1           0       -6.274939   -2.215693    1.165794
     38          1           0        5.192437   -2.132390   -0.884475
     39          1           0        5.290215   -3.171216    0.535358
     40          1           0        3.783961   -3.064812   -0.376374
     41          1           0        5.448603    1.168463    2.606282
     42          6           0        4.717841    0.492528    2.162050
     43          8           0        2.844903    1.602913    3.103452
     44          6           0        3.324995    0.704315    2.412924
     45          1           0        1.494662   -0.090066    1.957766
     46          7           0        2.486282   -0.207154    1.803802
     47          8           0        2.033095   -2.017819    0.510228
     48          6           0        2.850842   -1.262894    1.006260
     49          1           0        6.151041   -0.732773    1.166861
     50          6           0        5.104337   -0.528559    1.388348
     51          6           0        4.648378   -2.515528   -0.034020
     52          7           0        4.211023   -1.401196    0.811409
     53          1           0        5.755333   -1.270336   -3.422362
     54          1           0        4.502108   -1.976266   -2.652173
     55          1           0        5.978486   -1.952370   -1.956597
     56          1           0        1.960538    3.811020    0.430555
     57          1           0        3.650376    3.890834    0.211028
     58          7           0        2.798966    3.376844    0.100880
     59          6           0        2.783438    2.166294   -0.460828
     60          6           0        3.758145    0.259223   -1.497520
     61          7           0        2.600021   -0.407851   -1.632404
     62          1           0        0.608764   -0.160739   -1.214749
     63          6           0        1.589107    0.308645   -1.144971
     64          7           0        1.602614    1.521264   -0.581989
     65          1           0        6.937604    0.796953   -1.729985
     66          6           0        5.866311    0.861265   -1.537262
     67          7           0        5.270986    1.882365   -0.971037
     68          6           0        3.933905    1.513614   -0.939731
     69          6           0        5.337773   -1.441601   -2.529998
     70          7           0        5.010901   -0.156760   -1.881664
 ---------------------------------------------------------------------

 SCF Done:  E(RwB97XD) =  -2048.70722321     A.U. after   15 cycles

 The electronic state is 1-A.
 Alpha  occ. eigenvalues --  -19.24777 -19.21388 -19.20427 -14.52520 -14.51691
 Alpha  occ. eigenvalues --  -14.49743 -14.48735 -14.47413 -14.47178 -14.46581
 Alpha  occ. eigenvalues --  -14.46525 -14.45154 -14.43978 -14.43960 -14.43154
 Alpha  occ. eigenvalues --  -14.42242 -14.41660 -14.41492 -14.41019 -14.40763
 Alpha  occ. eigenvalues --  -10.44581 -10.40897 -10.39471 -10.39457 -10.38061
 Alpha  occ. eigenvalues --  -10.37857 -10.37061 -10.37023 -10.36354 -10.35596
 Alpha  occ. eigenvalues --  -10.34885 -10.34552 -10.34223 -10.34150 -10.33931
 Alpha  occ. eigenvalues --  -10.33876 -10.33325 -10.32365 -10.32265 -10.30598
 Alpha  occ. eigenvalues --  -10.30342 -10.29296 -10.27999  -1.18640  -1.15220
 Alpha  occ. eigenvalues --   -1.13060  -1.12367  -1.12309  -1.10466  -1.08934
 Alpha  occ. eigenvalues --   -1.08576  -1.08361  -1.05903  -1.04403  -1.01903
 Alpha  occ. eigenvalues --   -1.01304  -1.01043  -0.99544  -0.98323  -0.98042
 Alpha  occ. eigenvalues --   -0.96558  -0.96447  -0.93551  -0.90381  -0.88161
 Alpha  occ. eigenvalues --   -0.86639  -0.85214  -0.83923  -0.83616  -0.82873
 Alpha  occ. eigenvalues --   -0.82249  -0.78206  -0.76829  -0.74674  -0.74443
 Alpha  occ. eigenvalues --   -0.73844  -0.73411  -0.72765  -0.71924  -0.70306
 Alpha  occ. eigenvalues --   -0.67370  -0.67116  -0.66773  -0.66072  -0.64479
 Alpha  occ. eigenvalues --   -0.64258  -0.63836  -0.63605  -0.62807  -0.62408
 Alpha  occ. eigenvalues --   -0.61585  -0.61254  -0.60440  -0.59942  -0.59383
 Alpha  occ. eigenvalues --   -0.59026  -0.58313  -0.58161  -0.57504  -0.56436
 Alpha  occ. eigenvalues --   -0.55792  -0.55576  -0.55262  -0.54875  -0.53896
 Alpha  occ. eigenvalues --   -0.53876  -0.53524  -0.53285  -0.52904  -0.52746
 Alpha  occ. eigenvalues --   -0.52649  -0.51995  -0.51570  -0.51085  -0.50146
 Alpha  occ. eigenvalues --   -0.50059  -0.49758  -0.49579  -0.49252  -0.48818
 Alpha  occ. eigenvalues --   -0.48449  -0.48300  -0.48021  -0.47911  -0.47265
 Alpha  occ. eigenvalues --   -0.46971  -0.46034  -0.45434  -0.43632  -0.42283
 Alpha  occ. eigenvalues --   -0.41865  -0.40535  -0.38676  -0.37921  -0.37759
 Alpha  occ. eigenvalues --   -0.37286  -0.36965  -0.36524  -0.35862  -0.34778
 Alpha  occ. eigenvalues --   -0.34630  -0.34422  -0.33792  -0.33585  -0.32740
 Alpha  occ. eigenvalues --   -0.32367  -0.32108  -0.31871  -0.31698  -0.31114
 Alpha  occ. eigenvalues --   -0.30926  -0.29376  -0.27241  -0.24619
 Alpha virt. eigenvalues --    0.03621   0.04232   0.06945   0.07422   0.08882
 Alpha virt. eigenvalues --    0.09231   0.09889   0.10327   0.10439   0.12344
 Alpha virt. eigenvalues --    0.12886   0.13785   0.14368   0.14808   0.14862

 Mulliken charges:
               1
     1  N   -0.309008
     2  C    0.209347
     3  C    0.062690
     4  N   -0.239155
     5  C    0.116394
     6  H    0.026189
     7  N   -0.281073
     8  C    0.144992
     9  H    0.003922
    10  N   -0.267701
    11  C    0.211028
    12  C    0.071419
    13  N   -0.041287
    14  H    0.111524
    15  H    0.088390
    16  H    0.021040
    17  H    0.033407
    18  H    0.029366
    19  N   -0.289140
    20  C    0.222938
    21  C    0.226462
    22  N   -0.111386
    23  H    0.117295
    24  H    0.117951
    25  N   -0.284311
    26  C    0.214270
    27  N   -0.128400
    28  H    0.114556
    29  C    0.173155
    30  O   -0.323609
    31  C   -0.000569
    32  N   -0.216192
    33  C    0.124943
    34  H    0.018052
    35  H   -0.068117
    36  H    0.040367
    37  H    0.024926
    38  H   -0.010617
    39  H    0.052232
    40  H    0.080370
    41  H    0.024061
    42  C   -0.080563
    43  O   -0.270642
    44  C    0.161188
    45  H    0.131305
    46  N   -0.111498
    47  O   -0.339165
    48  C    0.326605
    49  H    0.036900
    50  C    0.156053
    51  C    0.054058
    52  N   -0.265423
    53  H    0.020015
    54  H    0.032773
    55  H    0.020737
    56  H    0.122351
    57  H    0.120419
    58  N   -0.052138
    59  C    0.109141
    60  C    0.208395
    61  N   -0.257720
    62  H    0.022015
    63  C    0.158004
    64  N   -0.295435
    65  H    0.035526
    66  C    0.118357
    67  N   -0.245390
    68  C    0.040893
    69  C    0.251425
    70  N   -0.318907
 Sum of Mulliken charges =  -0.00000

 Dipole moment (field-independent basis, Debye):
    X=              4.1015    Y=             -4.8387    Z=             -6.3855  Tot=              9.0005
 Quadrupole moment (field-independent basis, Debye-Ang):
   XX=           -145.7428   YY=           -224.3481   ZZ=           -264.9450
   XY=            -12.4785   XZ=            -11.2018   YZ=              2.5495

 Normal termination of Gaussian 16 at Thu Jan 25 05:20:41 2018.
