 Gaussian 16, Revision A.03,
 Gaussian 16:  EM64L-G16RevA.03 25-Dec-2016

 ---------------------------------------
 #p wb97xd/cc-pvdz sp scf=(maxcycles=20)
 ---------------------------------------

 ------------------
 Base pair stacking
 ------------------
 Symbolic Z-matrix:
 Charge =  0 Multiplicity = 1

                         Standard orientation:
 ---------------------------------------------------------------------
 Center     Atomic      Atomic             Coordinates (Angstroms)
 Number     Number       Type             X           Y           Z
 ---------------------------------------------------------------------
      1          7           0       -5.393982    0.793910   -1.214788
      2          6           0       -6.644383    0.042834   -1.439246
      3          6           0       -3.273593    1.359911   -1.070216
      4          7           0       -4.000529    2.476204   -0.682688
      5          6           0       -5.248898    2.090523   -0.785299
      6          1           0       -6.111995    2.717010   -0.558318
      7          7           0       -1.498559   -0.101918   -1.594872
      8          6           0       -2.434321   -1.013478   -1.879418
      9          1           0       -2.056595   -1.980154   -2.209753
     10          7           0       -3.760409   -0.910699   -1.817475
     11          6           0       -4.118820    0.315109   -1.401104
     12          6           0       -1.891388    1.121758   -1.178486
     13          7           0       -0.958767    2.033043   -0.893963
     14          1           0       -1.203866    2.951782   -0.582386
     15          1           0        0.016178    1.828608   -0.982493
     16          1           0       -7.194365    0.508131   -2.132934
     17          1           0       -6.427368   -0.881374   -1.752062
     18          1           0       -7.162305   -0.009115   -0.585401
     19          7           0       -4.852635   -0.680161    1.133529
     20          6           0       -3.535181   -1.017435    0.936991
     21          6           0       -6.011319   -1.394891    0.561417
     22          7           0       -1.141504   -3.087590   -0.493583
     23          1           0       -0.144774   -3.161878   -0.509041
     24          1           0       -1.655415   -3.768826   -1.015631
     25          7           0       -3.081467   -2.050120    0.194194
     26          6           0       -1.762011   -2.118328    0.195924
     27          7           0       -0.947383   -1.243163    0.872664
     28          1           0        0.051313   -1.371633    0.817380
     29          6           0       -1.392389   -0.173448    1.643087
     30          8           0       -0.573179    0.557346    2.213668
     31          6           0       -2.807803   -0.087275    1.650805
     32          7           0       -3.651622    0.815780    2.282754
     33          6           0       -4.851676    0.425735    1.948171
     34          1           0       -5.774255    0.910682    2.269032
     35          1           0       -6.539178   -0.770873   -0.013720
     36          1           0       -5.687540   -2.161974    0.009134
     37          1           0       -6.590920   -1.738282    1.299623
     38          1           0        4.929053   -2.163483   -0.379846
     39          1           0        4.963451   -2.981421    1.180425
     40          1           0        3.486420   -2.985002    0.216203
     41          1           0        5.159110    1.614257    2.590390
     42          6           0        4.426469    0.892868    2.228373
     43          8           0        2.552622    2.163765    2.935927
     44          6           0        3.032088    1.164205    2.401348
     45          1           0        1.198259    0.343543    2.011579
     46          7           0        2.191014    0.187346    1.907802
     47          8           0        1.734720   -1.787091    0.882802
     48          6           0        2.554577   -0.981441    1.287074
     49          1           0        5.859836   -0.491846    1.470857
     50          6           0        4.812044   -0.238497    1.626766
     51          6           0        4.352720   -2.406336    0.500450
     52          7           0        3.916354   -1.171215    1.157565
     53          1           0        6.044664   -2.256252   -2.663008
     54          1           0        4.775748   -2.675361   -1.726910
     55          1           0        6.244077   -2.440879   -1.053789
     56          1           0        2.254893    3.803882   -0.668552
     57          1           0        3.947859    3.800773   -0.878150
     58          7           0        3.092831    3.283073   -0.832144
     59          6           0        3.072068    1.957113   -0.982407
     60          6           0        4.040172   -0.185332   -1.348997
     61          7           0        2.877264   -0.854386   -1.282377
     62          1           0        0.883774   -0.476811   -0.992473
     63          6           0        1.867757   -0.014906   -1.060851
     64          7           0        1.886514    1.313440   -0.910064
     65          1           0        7.227209    0.233603   -1.694614
     66          6           0        6.154427    0.361513   -1.547287
     67          7           0        5.562504    1.512577   -1.341455
     68          6           0        4.221628    1.180090   -1.214048
     69          6           0        5.615095   -2.134159   -1.768267
     70          7           0        5.293210   -0.708417   -1.564155
 ---------------------------------------------------------------------

 SCF Done:  E(RwB97XD) =  -2048.56527540     A.U. after   16 cycles

 The electronic state is 1-A.
 Alpha  occ. eigenvalues --  -19.24526 -19.21180 -19.20249 -14.53022 -14.51205
 Alpha  occ. eigenvalues --  -14.49614 -14.48778 -14.47979 -14.46992 -14.46411
 Alpha  occ. eigenvalues --  -14.46121 -14.45526 -14.44344 -14.44141 -14.43427
 Alpha  occ. eigenvalues --  -14.42183 -14.41425 -14.41180 -14.40910 -14.40899
 Alpha  occ. eigenvalues --  -10.44318 -10.40466 -10.39906 -10.39251 -10.38202
 Alpha  occ. eigenvalues --  -10.37858 -10.37386 -10.36847 -10.36418 -10.35956
 Alpha  occ. eigenvalues --  -10.35068 -10.34838 -10.34068 -10.34024 -10.33800
 Alpha  occ. eigenvalues --  -10.33486 -10.32660 -10.32653 -10.32324 -10.30130
 Alpha  occ. eigenvalues --  -10.29291 -10.29120 -10.28010  -1.18571  -1.15796
 Alpha  occ. eigenvalues --   -1.13278  -1.12238  -1.12170  -1.10443  -1.09377
 Alpha  occ. eigenvalues --   -1.08604  -1.08321  -1.05991  -1.04909  -1.02054
 Alpha  occ. eigenvalues --   -1.01542  -1.01464  -0.99596  -0.98679  -0.98232
 Alpha  occ. eigenvalues --   -0.97033  -0.96373  -0.93758  -0.90363  -0.88909
 Alpha  occ. eigenvalues --   -0.87367  -0.87279  -0.84337  -0.83589  -0.82366
 Alpha  occ. eigenvalues --   -0.81501  -0.78023  -0.77272  -0.75138  -0.74596
 Alpha  occ. eigenvalues --   -0.74173  -0.73322  -0.72565  -0.72006  -0.70794
 Alpha  occ. eigenvalues --   -0.68202  -0.67149  -0.66936  -0.66480  -0.65400
 Alpha  occ. eigenvalues --   -0.64762  -0.64245  -0.63550  -0.62806  -0.62438
 Alpha  occ. eigenvalues --   -0.62168  -0.61634  -0.61371  -0.60895  -0.59919
 Alpha  occ. eigenvalues --   -0.59204  -0.58699  -0.58284  -0.57894  -0.57091
 Alpha  occ. eigenvalues --   -0.56927  -0.56277  -0.55334  -0.54432  -0.54310
 Alpha  occ. eigenvalues --   -0.54102  -0.53664  -0.53314  -0.53004  -0.52538
 Alpha  occ. eigenvalues --   -0.52011  -0.51809  -0.51550  -0.50987  -0.50323
 Alpha  occ. eigenvalues --   -0.49877  -0.49748  -0.49496  -0.49025  -0.48747
 Alpha  occ. eigenvalues --   -0.48456  -0.47905  -0.47864  -0.47574  -0.46943
 Alpha  occ. eigenvalues --   -0.46575  -0.45986  -0.43630  -0.43279  -0.42101
 Alpha  occ. eigenvalues --   -0.41538  -0.40940  -0.38673  -0.38111  -0.37922
 Alpha  occ. eigenvalues --   -0.37549  -0.36889  -0.35933  -0.35714  -0.35393
 Alpha  occ. eigenvalues --   -0.35088  -0.34678  -0.33831  -0.33550  -0.32600
 Alpha  occ. eigenvalues --   -0.32252  -0.31928  -0.31701  -0.31166  -0.30822
 Alpha  occ. eigenvalues --   -0.30325  -0.29677  -0.27799  -0.23313
 Alpha virt. eigenvalues --    0.02893   0.04769   0.05912   0.06605   0.07690
 Alpha virt. eigenvalues --    0.09685   0.10016   0.10555   0.11530   0.12154
 Alpha virt. eigenvalues --    0.12264   0.13688   0.14079   0.14569   0.14996

 Mulliken charges:
               1
     1  N   -0.318456
     2  C    0.287441
     3  C    0.077819
     4  N   -0.240632
     5  C    0.119793
     6  H    0.025354
     7  N   -0.271429
     8  C    0.129221
     9  H   -0.003317
    10  N   -0.237584
    11  C    0.190492
    12  C    0.062197
    13  N   -0.042196
    14  H    0.110991
    15  H    0.086389
    16  H    0.008524
    17  H    0.020203
    18  H    0.003484
    19  N   -0.280157
    20  C    0.196899
    21  C    0.200110
    22  N   -0.093713
    23  H    0.117425
    24  H    0.121904
    25  N   -0.244931
    26  C    0.145721
    27  N   -0.096570
    28  H    0.117615
    29  C    0.153869
    30  O   -0.322361
    31  C    0.026772
    32  N   -0.214862
    33  C    0.115721
    34  H    0.018200
    35  H   -0.051030
    36  H    0.037486
    37  H    0.015190
    38  H   -0.075116
    39  H    0.047769
    40  H    0.083954
    41  H    0.023880
    42  C   -0.089501
    43  O   -0.268886
    44  C    0.166215
    45  H    0.129265
    46  N   -0.104526
    47  O   -0.338586
    48  C    0.309485
    49  H    0.036434
    50  C    0.157101
    51  C    0.088341
    52  N   -0.260565
    53  H    0.010746
    54  H    0.032280
    55  H    0.014492
    56  H    0.122302
    57  H    0.121561
    58  N   -0.061199
    59  C    0.117544
    60  C    0.204401
    61  N   -0.270539
    62  H    0.003119
    63  C    0.179219
    64  N   -0.297648
    65  H    0.037902
    66  C    0.123542
    67  N   -0.248140
    68  C    0.051016
    69  C    0.313367
    70  N   -0.330808
 Sum of Mulliken charges =  -0.00000

 Dipole moment (field-independent basis, Debye):
    X=              4.1630    Y=             -5.8743    Z=             -6.0321  Tot=              9.3928
 Quadrupole moment (field-independent basis, Debye-Ang):
   XX=           -144.9820   YY=           -226.0534   ZZ=           -267.4502
   XY=            -13.1299   XZ=             -4.1496   YZ=             -6.8514

 Normal termination of Gaussian 16 at Thu Jan 25 15:08:52 2018.
