 Gaussian 16, Revision A.03,
 Gaussian 16:  EM64L-G16RevA.03 25-Dec-2016

 ---------------------------------------
 #p wb97xd/cc-pvdz sp scf=(maxcycles=20)
 ---------------------------------------

 ------------------
 Base pair stacking
 ------------------
 Symbolic Z-matrix:
 Charge =  0 Multiplicity = 1

                         Standard orientation:
 ---------------------------------------------------------------------
 Center     Atomic      Atomic             Coordinates (Angstroms)
 Number     Number       Type             X           Y           Z
 ---------------------------------------------------------------------
      1          7           0       -5.391465    0.942610   -1.188130
      2          6           0       -6.642507    0.235252   -1.523642
      3          6           0       -3.270473    1.474604   -0.952200
      4          7           0       -3.996776    2.528245   -0.416442
      5          6           0       -5.245533    2.165565   -0.580021
      6          1           0       -6.108325    2.757297   -0.272815
      7          7           0       -1.496177    0.094066   -1.665621
      8          6           0       -2.432646   -0.764954   -2.081175
      9          1           0       -2.055489   -1.677157   -2.541515
     10          7           0       -3.758810   -0.666811   -2.013777
     11          6           0       -4.116478    0.489808   -1.431760
     12          6           0       -1.888266    1.248717   -1.084113
     13          7           0       -0.954947    2.107477   -0.668642
     14          1           0       -1.199481    2.974332   -0.232764
     15          1           0        0.019967    1.913751   -0.778843
     16          1           0       -7.186416    0.795377   -2.148620
     17          1           0       -6.426049   -0.636747   -1.961698
     18          1           0       -7.166352    0.065989   -0.688820
     19          7           0       -4.855411   -0.812582    1.106988
     20          6           0       -3.538535   -1.138123    0.888103
     21          6           0       -6.015802   -1.495497    0.500510
     22          7           0       -1.149091   -3.126254   -0.660966
     23          1           0       -0.152392   -3.199207   -0.683677
     24          1           0       -1.664544   -3.778212   -1.217721
     25          7           0       -3.087020   -2.128593    0.088631
     26          6           0       -1.767549   -2.196285    0.082371
     27          7           0       -0.950912   -1.359008    0.803188
     28          1           0        0.047633   -1.483886    0.737753
     29          6           0       -1.393634   -0.333071    1.632234
     30          8           0       -0.572724    0.365850    2.239166
     31          6           0       -2.809031   -0.247989    1.649219
     32          7           0       -3.650980    0.618931    2.332195
     33          6           0       -4.852030    0.247242    1.980724
     34          1           0       -5.773661    0.713622    2.330539
     35          1           0       -6.545653   -0.841250   -0.038020
     36          1           0       -5.693662   -2.231194   -0.093822
     37          1           0       -6.592923   -1.878856    1.220765
     38          1           0        4.921617   -2.207386   -0.516647
     39          1           0        4.961262   -3.109176    0.996576
     40          1           0        3.481102   -3.060733    0.038381
     41          1           0        5.160542    1.402854    2.654422
     42          6           0        4.426867    0.702000    2.255974
     43          8           0        2.555061    1.931692    3.037839
     44          6           0        3.033006    0.962955    2.448003
     45          1           0        1.198094    0.164065    2.019986
     46          7           0        2.190533    0.014137    1.904638
     47          8           0        1.731327   -1.901637    0.774973
     48          6           0        2.552332   -1.118916    1.219920
     49          1           0        5.858053   -0.638796    1.419440
     50          6           0        4.810732   -0.394733    1.592324
     51          6           0        4.348208   -2.498103    0.350957
     52          7           0        3.913708   -1.300820    1.075859
     53          1           0        6.047815   -1.917929   -2.977972
     54          1           0        4.771362   -2.459390   -2.117973
     55          1           0        6.235787   -2.327289   -1.409370
     56          1           0        2.262233    3.816849   -0.176695
     57          1           0        3.956578    3.836711   -0.373985
     58          7           0        3.099749    3.320949   -0.406473
     59          6           0        3.076149    2.029282   -0.741465
     60          6           0        4.040495   -0.044225   -1.398992
     61          7           0        2.875220   -0.711543   -1.434254
     62          1           0        0.880917   -0.370750   -1.106797
     63          6           0        1.866679    0.092412   -1.103475
     64          7           0        1.888269    1.386363   -0.767649
     65          1           0        7.231005    0.406870   -1.662303
     66          6           0        6.157615    0.516941   -1.505237
     67          7           0        5.567661    1.629996   -1.143642
     68          6           0        4.224992    1.288054   -1.072609
     69          6           0        5.612546   -1.920945   -2.077687
     70          7           0        5.293427   -0.536728   -1.677534
 ---------------------------------------------------------------------

 SCF Done:  E(RwB97XD) =  -2048.65668683     A.U. after   15 cycles

 The electronic state is 1-A.
 Alpha  occ. eigenvalues --  -19.24746 -19.21285 -19.20288 -14.52825 -14.51412
 Alpha  occ. eigenvalues --  -14.49632 -14.48803 -14.47824 -14.47056 -14.46454
 Alpha  occ. eigenvalues --  -14.46284 -14.45376 -14.44211 -14.44141 -14.43309
 Alpha  occ. eigenvalues --  -14.42154 -14.41470 -14.41259 -14.41184 -14.40867
 Alpha  occ. eigenvalues --  -10.44476 -10.40630 -10.39768 -10.39350 -10.38041
 Alpha  occ. eigenvalues --  -10.37916 -10.37234 -10.36919 -10.36383 -10.35838
 Alpha  occ. eigenvalues --  -10.34837 -10.34762 -10.34122 -10.34094 -10.33828
 Alpha  occ. eigenvalues --  -10.33482 -10.33438 -10.32535 -10.32191 -10.30206
 Alpha  occ. eigenvalues --  -10.30101 -10.29238 -10.27960  -1.18614  -1.15514
 Alpha  occ. eigenvalues --   -1.13098  -1.12267  -1.12228  -1.10474  -1.09217
 Alpha  occ. eigenvalues --   -1.08484  -1.08349  -1.05976  -1.04734  -1.01824
 Alpha  occ. eigenvalues --   -1.01385  -1.01324  -0.99509  -0.98378  -0.98143
 Alpha  occ. eigenvalues --   -0.96855  -0.96431  -0.93665  -0.90248  -0.88269
 Alpha  occ. eigenvalues --   -0.86911  -0.86198  -0.84057  -0.83723  -0.82647
 Alpha  occ. eigenvalues --   -0.81906  -0.78094  -0.77089  -0.74944  -0.74536
 Alpha  occ. eigenvalues --   -0.73947  -0.73336  -0.72618  -0.71948  -0.70551
 Alpha  occ. eigenvalues --   -0.67770  -0.66962  -0.66906  -0.66096  -0.64813
 Alpha  occ. eigenvalues --   -0.64534  -0.63871  -0.63537  -0.62624  -0.62380
 Alpha  occ. eigenvalues --   -0.61738  -0.61541  -0.61089  -0.60669  -0.59704
 Alpha  occ. eigenvalues --   -0.59013  -0.58542  -0.58183  -0.57668  -0.56676
 Alpha  occ. eigenvalues --   -0.56418  -0.55913  -0.55307  -0.54394  -0.54153
 Alpha  occ. eigenvalues --   -0.53898  -0.53568  -0.53143  -0.53075  -0.52588
 Alpha  occ. eigenvalues --   -0.52456  -0.51953  -0.51694  -0.50920  -0.50257
 Alpha  occ. eigenvalues --   -0.50186  -0.49770  -0.49613  -0.49055  -0.48760
 Alpha  occ. eigenvalues --   -0.48463  -0.48086  -0.47953  -0.47822  -0.47278
 Alpha  occ. eigenvalues --   -0.46818  -0.46197  -0.44201  -0.43844  -0.42565
 Alpha  occ. eigenvalues --   -0.41585  -0.40808  -0.38649  -0.38019  -0.37826
 Alpha  occ. eigenvalues --   -0.37491  -0.36935  -0.36258  -0.35868  -0.35195
 Alpha  occ. eigenvalues --   -0.34868  -0.34500  -0.33874  -0.33665  -0.32653
 Alpha  occ. eigenvalues --   -0.32304  -0.32135  -0.31692  -0.31291  -0.31008
 Alpha  occ. eigenvalues --   -0.30578  -0.29642  -0.27704  -0.23859
 Alpha virt. eigenvalues --    0.02974   0.04723   0.06260   0.06804   0.08047
 Alpha virt. eigenvalues --    0.09593   0.10225   0.10399   0.11388   0.12120
 Alpha virt. eigenvalues --    0.12284   0.13817   0.14150   0.14813   0.15095

 Mulliken charges:
               1
     1  N   -0.311578
     2  C    0.246087
     3  C    0.071741
     4  N   -0.239128
     5  C    0.120342
     6  H    0.025669
     7  N   -0.276097
     8  C    0.135539
     9  H   -0.003425
    10  N   -0.247166
    11  C    0.202963
    12  C    0.065969
    13  N   -0.041796
    14  H    0.111673
    15  H    0.086611
    16  H    0.014253
    17  H    0.025484
    18  H    0.016061
    19  N   -0.285735
    20  C    0.208459
    21  C    0.211186
    22  N   -0.100148
    23  H    0.117422
    24  H    0.120142
    25  N   -0.258328
    26  C    0.168257
    27  N   -0.107299
    28  H    0.116937
    29  C    0.159305
    30  O   -0.323131
    31  C    0.016664
    32  N   -0.214253
    33  C    0.115979
    34  H    0.018181
    35  H   -0.056289
    36  H    0.038818
    37  H    0.020215
    38  H   -0.059211
    39  H    0.051136
    40  H    0.083059
    41  H    0.023920
    42  C   -0.087714
    43  O   -0.269099
    44  C    0.163383
    45  H    0.129424
    46  N   -0.104991
    47  O   -0.340730
    48  C    0.315647
    49  H    0.037461
    50  C    0.156437
    51  C    0.085981
    52  N   -0.261480
    53  H    0.017316
    54  H    0.032780
    55  H    0.018263
    56  H    0.122626
    57  H    0.120920
    58  N   -0.057036
    59  C    0.110887
    60  C    0.204893
    61  N   -0.268195
    62  H    0.008674
    63  C    0.172544
    64  N   -0.296284
    65  H    0.037217
    66  C    0.122883
    67  N   -0.248103
    68  C    0.050566
    69  C    0.283718
    70  N   -0.326474
 Sum of Mulliken charges =  -0.00000

 Dipole moment (field-independent basis, Debye):
    X=              4.1626    Y=             -5.4922    Z=             -6.0841  Tot=              9.1928
 Quadrupole moment (field-independent basis, Debye-Ang):
   XX=           -145.2610   YY=           -224.6978   ZZ=           -267.0166
   XY=            -13.0258   XZ=             -5.0412   YZ=             -3.2299

 Normal termination of Gaussian 16 at Thu Jan 25 10:32:48 2018.
