 Gaussian 16, Revision A.03,
 Gaussian 16:  EM64L-G16RevA.03 25-Dec-2016

 ---------------------------------------
 #p wb97xd/cc-pvdz sp scf=(maxcycles=20)
 ---------------------------------------

 ------------------
 Base pair stacking
 ------------------
 Symbolic Z-matrix:
 Charge =  0 Multiplicity = 1

                         Standard orientation:
 ---------------------------------------------------------------------
 Center     Atomic      Atomic             Coordinates (Angstroms)
 Number     Number       Type             X           Y           Z
 ---------------------------------------------------------------------
      1          7           0        4.793787   -1.218837   -1.492000
      2          6           0        6.040616   -0.626886   -2.014497
      3          6           0        2.678067   -1.617987   -1.042863
      4          7           0        3.405970   -2.600775   -0.387856
      5          6           0        4.651474   -2.320956   -0.684666
      6          1           0        5.514346   -2.890647   -0.338471
      7          7           0        0.903163   -0.298198   -1.861911
      8          6           0        1.835586    0.443408   -2.468699
      9          1           0        1.456598    1.284447   -3.047749
     10          7           0        3.159639    0.302764   -2.467591
     11          6           0        3.519835   -0.758918   -1.727654
     12          6           0        1.297719   -1.359436   -1.124907
     13          7           0        0.368456   -2.100947   -0.518433
     14          1           0        0.614928   -2.895725    0.037255
     15          1           0       -0.605242   -1.887418   -0.598810
     16          1           0        6.523836   -1.302217   -2.571831
     17          1           0        5.822159    0.171466   -2.574889
     18          1           0        6.624317   -0.347286   -1.252189
     19          7           0        5.437780    0.737074    0.890690
     20          6           0        4.122541    1.102569    0.733790
     21          6           0        6.589625    1.393269    0.240015
     22          7           0        1.725831    3.175417   -0.687777
     23          1           0        0.731647    3.277089   -0.665437
     24          1           0        2.234938    3.818548   -1.260409
     25          7           0        3.665149    2.114418   -0.034985
     26          6           0        2.349215    2.219884    0.018095
     27          7           0        1.541211    1.398286    0.766173
     28          1           0        0.544807    1.552395    0.746428
     29          6           0        1.990099    0.350907    1.564515
     30          8           0        1.176821   -0.330990    2.200393
     31          6           0        3.401791    0.225206    1.517719
     32          7           0        4.247517   -0.673015    2.153980
     33          6           0        5.442186   -0.331920    1.753169
     34          1           0        6.364416   -0.828339    2.057027
     35          1           0        7.075947    0.730205   -0.327994
     36          1           0        6.263077    2.144478   -0.332092
     37          1           0        7.208874    1.751890    0.937666
     38          1           0       -4.356717    2.428949   -0.282850
     39          1           0       -4.303302    3.314532    1.239492
     40          1           0       -2.868913    3.234502    0.216023
     41          1           0       -4.560234   -1.208211    2.859797
     42          6           0       -3.824820   -0.524203    2.436086
     43          8           0       -1.956847   -1.815591    3.121760
     44          6           0       -2.432001   -0.827048    2.563378
     45          1           0       -0.595338   -0.076216    2.062153
     46          7           0       -1.587127    0.103304    1.992519
     47          8           0       -1.122753    2.017680    0.862594
     48          6           0       -1.945715    1.253831    1.335817
     49          1           0       -5.251965    0.866230    1.677325
     50          6           0       -4.205565    0.590403    1.801051
     51          6           0       -3.737357    2.693438    0.561248
     52          7           0       -3.306269    1.476186    1.254215
     53          1           0       -6.646472    1.785944   -3.020156
     54          1           0       -5.299088    2.405574   -2.339924
     55          1           0       -6.715962    2.449719   -1.530858
     56          1           0       -2.859480   -3.574709    0.442144
     57          1           0       -4.563053   -3.556138    0.354964
     58          7           0       -3.694877   -3.088106    0.186279
     59          6           0       -3.654115   -1.869247   -0.355827
     60          6           0       -4.596208    0.109462   -1.282590
     61          7           0       -3.415959    0.713775   -1.497638
     62          1           0       -1.415598    0.348123   -1.241816
     63          6           0       -2.412684   -0.067399   -1.102532
     64          7           0       -2.451465   -1.288477   -0.559350
     65          1           0       -7.809562   -0.246105   -1.272700
     66          6           0       -6.731943   -0.373667   -1.165864
     67          7           0       -6.153557   -1.437423   -0.664309
     68          6           0       -4.799265   -1.144188   -0.732464
     69          6           0       -6.151826    1.915799   -2.160818
     70          7           0       -5.849285    0.602011   -1.560446
 ---------------------------------------------------------------------

 SCF Done:  E(RwB97XD) =  -2048.73152942     A.U. after   15 cycles

 The electronic state is 1-A.
 Alpha  occ. eigenvalues --  -19.25174 -19.21333 -19.20722 -14.52641 -14.51558
 Alpha  occ. eigenvalues --  -14.49311 -14.49261 -14.48009 -14.47016 -14.46812
 Alpha  occ. eigenvalues --  -14.46703 -14.45326 -14.44386 -14.44350 -14.42923
 Alpha  occ. eigenvalues --  -14.41939 -14.41590 -14.41478 -14.41328 -14.40975
 Alpha  occ. eigenvalues --  -10.44698 -10.41201 -10.39910 -10.39405 -10.38347
 Alpha  occ. eigenvalues --  -10.37905 -10.37184 -10.37002 -10.36059 -10.35933
 Alpha  occ. eigenvalues --  -10.34614 -10.34475 -10.34296 -10.34045 -10.33880
 Alpha  occ. eigenvalues --  -10.33757 -10.33652 -10.32599 -10.31633 -10.31492
 Alpha  occ. eigenvalues --  -10.30133 -10.29039 -10.28373  -1.18744  -1.15288
 Alpha  occ. eigenvalues --   -1.13365  -1.12335  -1.11827  -1.10956  -1.09381
 Alpha  occ. eigenvalues --   -1.08663  -1.08462  -1.05701  -1.04820  -1.01727
 Alpha  occ. eigenvalues --   -1.01064  -1.00999  -0.99766  -0.98700  -0.97555
 Alpha  occ. eigenvalues --   -0.96993  -0.96885  -0.93359  -0.90223  -0.87701
 Alpha  occ. eigenvalues --   -0.86124  -0.85140  -0.84148  -0.83559  -0.82725
 Alpha  occ. eigenvalues --   -0.82516  -0.78113  -0.77050  -0.74968  -0.74911
 Alpha  occ. eigenvalues --   -0.73708  -0.73466  -0.72576  -0.71633  -0.70413
 Alpha  occ. eigenvalues --   -0.67580  -0.66927  -0.66827  -0.65796  -0.64704
 Alpha  occ. eigenvalues --   -0.64277  -0.63364  -0.63274  -0.62679  -0.61881
 Alpha  occ. eigenvalues --   -0.61080  -0.61023  -0.60485  -0.60108  -0.59653
 Alpha  occ. eigenvalues --   -0.58927  -0.58742  -0.58374  -0.57225  -0.56114
 Alpha  occ. eigenvalues --   -0.55709  -0.55556  -0.55131  -0.54413  -0.54355
 Alpha  occ. eigenvalues --   -0.54094  -0.53793  -0.53384  -0.53107  -0.52936
 Alpha  occ. eigenvalues --   -0.52605  -0.52294  -0.51465  -0.51031  -0.50510
 Alpha  occ. eigenvalues --   -0.50254  -0.50082  -0.49503  -0.49177  -0.49040
 Alpha  occ. eigenvalues --   -0.48779  -0.48682  -0.48138  -0.47538  -0.47477
 Alpha  occ. eigenvalues --   -0.47143  -0.46313  -0.44673  -0.44491  -0.43134
 Alpha  occ. eigenvalues --   -0.41289  -0.40665  -0.38901  -0.38013  -0.37807
 Alpha  occ. eigenvalues --   -0.37545  -0.37481  -0.37084  -0.35717  -0.34664
 Alpha  occ. eigenvalues --   -0.34609  -0.34318  -0.33955  -0.33889  -0.32994
 Alpha  occ. eigenvalues --   -0.32653  -0.32458  -0.31975  -0.31754  -0.31031
 Alpha  occ. eigenvalues --   -0.30659  -0.29347  -0.27325  -0.24688
 Alpha virt. eigenvalues --    0.03380   0.04247   0.06394   0.06896   0.08294
 Alpha virt. eigenvalues --    0.09612   0.09747   0.10630   0.11132   0.12135
 Alpha virt. eigenvalues --    0.12465   0.13720   0.14106   0.15042   0.15082

 Mulliken charges:
               1
     1  N   -0.297946
     2  C    0.200794
     3  C    0.055286
     4  N   -0.238321
     5  C    0.137140
     6  H    0.025515
     7  N   -0.281633
     8  C    0.117225
     9  H    0.001491
    10  N   -0.266944
    11  C    0.224379
    12  C    0.068388
    13  N   -0.045125
    14  H    0.114154
    15  H    0.085811
    16  H    0.027130
    17  H    0.035617
    18  H   -0.006516
    19  N   -0.298571
    20  C    0.232472
    21  C    0.189116
    22  N   -0.109382
    23  H    0.118689
    24  H    0.120078
    25  N   -0.282083
    26  C    0.212507
    27  N   -0.120599
    28  H    0.120298
    29  C    0.174574
    30  O   -0.319517
    31  C   -0.001659
    32  N   -0.208454
    33  C    0.101645
    34  H    0.020713
    35  H   -0.001099
    36  H    0.036085
    37  H    0.027198
    38  H    0.028679
    39  H    0.049665
    40  H    0.074515
    41  H    0.021330
    42  C   -0.103971
    43  O   -0.274174
    44  C    0.173199
    45  H    0.127992
    46  N   -0.108161
    47  O   -0.344965
    48  C    0.310027
    49  H    0.042773
    50  C    0.163782
    51  C    0.061964
    52  N   -0.263130
    53  H    0.036905
    54  H    0.050490
    55  H    0.027451
    56  H    0.125396
    57  H    0.119463
    58  N   -0.051292
    59  C    0.099707
    60  C    0.214534
    61  N   -0.272848
    62  H    0.028747
    63  C    0.166805
    64  N   -0.305250
    65  H    0.038269
    66  C    0.131707
    67  N   -0.253857
    68  C    0.048671
    69  C    0.178788
    70  N   -0.311670
 Sum of Mulliken charges =  -0.00000

 Dipole moment (field-independent basis, Debye):
    X=             -4.4326    Y=              5.9761    Z=             -5.1990  Tot=              9.0770
 Quadrupole moment (field-independent basis, Debye-Ang):
   XX=           -145.4495   YY=           -224.0449   ZZ=           -265.5314
   XY=            -10.8612   XZ=             -2.7007   YZ=              2.1821

 Normal termination of Gaussian 16 at Fri Jan 26 07:47:19 2018.
