 Gaussian 16, Revision A.03,
 Gaussian 16:  EM64L-G16RevA.03 25-Dec-2016

 ---------------------------------------
 #p wb97xd/cc-pvdz sp scf=(maxcycles=20)
 ---------------------------------------

 ------------------
 Base pair stacking
 ------------------
 Symbolic Z-matrix:
 Charge =  0 Multiplicity = 1

                         Standard orientation:
 ---------------------------------------------------------------------
 Center     Atomic      Atomic             Coordinates (Angstroms)
 Number     Number       Type             X           Y           Z
 ---------------------------------------------------------------------
      1          7           0        5.073494   -2.045948   -0.370575
      2          6           0        6.311041   -2.062244   -1.174460
      3          6           0        2.965001   -1.958867    0.249074
      4          7           0        3.706228   -2.098801    1.413433
      5          6           0        4.946849   -2.145669    0.993515
      6          1           0        5.817124   -2.253091    1.641613
      7          7           0        1.172796   -1.723364   -1.266017
      8          6           0        2.094043   -1.706199   -2.234820
      9          1           0        1.703474   -1.601009   -3.246083
     10          7           0        3.419098   -1.799033   -2.142435
     11          6           0        3.794010   -1.924761   -0.858668
     12          6           0        1.582042   -1.851109    0.015111
     13          7           0        0.663941   -1.868448    0.983587
     14          1           0        0.921445   -1.961190    1.946034
     15          1           0       -0.312046   -1.789370    0.780245
     16          1           0        6.794386   -2.925319   -1.027309
     17          1           0        6.081476   -1.970821   -2.142994
     18          1           0        6.899391   -1.301699   -0.899867
     19          7           0        5.161213    1.492089    0.272195
     20          6           0        3.845134    1.688738   -0.070321
     21          6           0        6.321052    1.776207   -0.596560
     22          7           0        1.457360    2.704670   -2.378604
     23          1           0        0.461237    2.771701   -2.428494
     24          1           0        1.972632    2.995294   -3.185296
     25          7           0        3.394038    2.170676   -1.248582
     26          6           0        2.075326    2.245789   -1.279760
     27          7           0        1.259004    1.877620   -0.237842
     28          1           0        0.261048    1.969203   -0.350332
     29          6           0        1.701312    1.379242    0.983567
     30          8           0        0.880758    1.076467    1.858648
     31          6           0        3.115899    1.292791    1.032055
     32          7           0        3.957228    0.856339    2.046243
     33          6           0        5.157672    0.992334    1.551604
     34          1           0        6.078704    0.742197    2.079237
     35          1           0        6.837976    0.934927   -0.750966
     36          1           0        5.999223    2.133749   -1.472256
     37          1           0        6.910453    2.453495   -0.157572
     38          1           0       -4.620036    2.060273   -1.771403
     39          1           0       -4.632792    3.585452   -0.889192
     40          1           0       -3.164639    3.055002   -1.710466
     41          1           0       -4.857202    0.456035    2.758130
     42          6           0       -4.121383    0.863322    2.064651
     43          8           0       -2.252745    0.143407    3.336278
     44          6           0       -2.727999    0.708881    2.351820
     45          1           0       -0.890446    1.171469    1.578677
     46          7           0       -1.882652    1.260518    1.410367
     47          8           0       -1.417860    2.376442   -0.512104
     48          6           0       -2.241264    1.921576    0.262346
     49          1           0       -5.548997    1.647261    0.688730
     50          6           0       -4.502164    1.503244    0.952844
     51          6           0       -4.033524    2.728505   -1.158590
     52          7           0       -3.602385    2.029889    0.055405
     53          1           0       -6.402625   -1.239697   -3.515764
     54          1           0       -5.053969   -0.322587   -3.562119
     55          1           0       -6.463827    0.324637   -3.054708
     56          1           0       -2.543904   -2.086710    2.765829
     57          1           0       -4.248279   -2.137853    2.714968
     58          7           0       -3.385259   -1.964432    2.239219
     59          6           0       -3.358671   -1.586912    0.959396
     60          6           0       -4.324112   -1.007719   -1.136833
     61          7           0       -3.150499   -0.781817   -1.750018
     62          1           0       -1.145179   -0.827873   -1.329055
     63          6           0       -2.137781   -0.989397   -0.910835
     64          7           0       -2.162367   -1.367535    0.371345
     65          1           0       -7.534445   -1.224732   -0.822373
     66          6           0       -6.454972   -1.228120   -0.668527
     67          7           0       -5.863993   -1.537093    0.459726
     68          6           0       -4.512652   -1.401382    0.176565
     69          6           0       -5.901299   -0.502206   -3.063231
     70          7           0       -5.583352   -0.897550   -1.677369
 ---------------------------------------------------------------------

 SCF Done:  E(RwB97XD) =  -2048.73249291     A.U. after   15 cycles

 The electronic state is 1-A.
 Alpha  occ. eigenvalues --  -19.25567 -19.21787 -19.20818 -14.52156 -14.52066
 Alpha  occ. eigenvalues --  -14.49177 -14.49043 -14.47467 -14.47042 -14.46796
 Alpha  occ. eigenvalues --  -14.46717 -14.44836 -14.43841 -14.43636 -14.42399
 Alpha  occ. eigenvalues --  -14.42173 -14.41331 -14.41226 -14.41072 -14.40636
 Alpha  occ. eigenvalues --  -10.45119 -10.41388 -10.39922 -10.39014 -10.38448
 Alpha  occ. eigenvalues --  -10.37462 -10.37282 -10.36533 -10.35713 -10.35294
 Alpha  occ. eigenvalues --  -10.35039 -10.34609 -10.34165 -10.33752 -10.33630
 Alpha  occ. eigenvalues --  -10.33596 -10.33412 -10.31932 -10.31581 -10.31567
 Alpha  occ. eigenvalues --  -10.30474 -10.28762 -10.28341  -1.19135  -1.14706
 Alpha  occ. eigenvalues --   -1.13408  -1.13041  -1.11583  -1.10889  -1.09052
 Alpha  occ. eigenvalues --   -1.08738  -1.08560  -1.05354  -1.04039  -1.02252
 Alpha  occ. eigenvalues --   -1.00676  -1.00385  -0.99890  -0.98735  -0.97220
 Alpha  occ. eigenvalues --   -0.96863  -0.96190  -0.92995  -0.90705  -0.87093
 Alpha  occ. eigenvalues --   -0.85504  -0.84542  -0.84179  -0.83410  -0.83015
 Alpha  occ. eigenvalues --   -0.82616  -0.78604  -0.76371  -0.74904  -0.74311
 Alpha  occ. eigenvalues --   -0.73794  -0.73179  -0.73015  -0.71327  -0.69695
 Alpha  occ. eigenvalues --   -0.67596  -0.66581  -0.66287  -0.66082  -0.64588
 Alpha  occ. eigenvalues --   -0.63827  -0.63477  -0.62951  -0.62781  -0.61954
 Alpha  occ. eigenvalues --   -0.60599  -0.60541  -0.59841  -0.59226  -0.58958
 Alpha  occ. eigenvalues --   -0.58670  -0.58519  -0.58057  -0.56834  -0.56037
 Alpha  occ. eigenvalues --   -0.55895  -0.55657  -0.54911  -0.54837  -0.54323
 Alpha  occ. eigenvalues --   -0.54036  -0.53795  -0.53230  -0.53177  -0.52596
 Alpha  occ. eigenvalues --   -0.52257  -0.52146  -0.52081  -0.51072  -0.50590
 Alpha  occ. eigenvalues --   -0.50448  -0.49829  -0.49636  -0.49249  -0.49059
 Alpha  occ. eigenvalues --   -0.49038  -0.48556  -0.48168  -0.47481  -0.47250
 Alpha  occ. eigenvalues --   -0.47045  -0.46275  -0.44844  -0.43842  -0.43435
 Alpha  occ. eigenvalues --   -0.41287  -0.40194  -0.39244  -0.37823  -0.37576
 Alpha  occ. eigenvalues --   -0.37448  -0.37129  -0.36900  -0.35671  -0.34701
 Alpha  occ. eigenvalues --   -0.34047  -0.33916  -0.33546  -0.33474  -0.33211
 Alpha  occ. eigenvalues --   -0.32867  -0.32308  -0.31913  -0.31759  -0.31037
 Alpha  occ. eigenvalues --   -0.30612  -0.28675  -0.26933  -0.24712
 Alpha virt. eigenvalues --    0.02537   0.04893   0.06931   0.07157   0.08826
 Alpha virt. eigenvalues --    0.09592   0.09821   0.10990   0.11156   0.11542
 Alpha virt. eigenvalues --    0.12623   0.13922   0.14201   0.14344   0.15382

 Mulliken charges:
               1
     1  N   -0.305389
     2  C    0.183864
     3  C    0.039507
     4  N   -0.230603
     5  C    0.127185
     6  H    0.023158
     7  N   -0.293323
     8  C    0.131940
     9  H    0.010583
    10  N   -0.286372
    11  C    0.244720
    12  C    0.079378
    13  N   -0.040935
    14  H    0.116835
    15  H    0.086900
    16  H    0.027445
    17  H    0.035964
    18  H    0.011905
    19  N   -0.304366
    20  C    0.257205
    21  C    0.185902
    22  N   -0.124494
    23  H    0.117719
    24  H    0.119682
    25  N   -0.310096
    26  C    0.249611
    27  N   -0.144929
    28  H    0.121499
    29  C    0.187188
    30  O   -0.325851
    31  C   -0.017221
    32  N   -0.207827
    33  C    0.113511
    34  H    0.019702
    35  H    0.007438
    36  H    0.034131
    37  H    0.027554
    38  H    0.048258
    39  H    0.057640
    40  H    0.076929
    41  H    0.020440
    42  C   -0.100022
    43  O   -0.285267
    44  C    0.170933
    45  H    0.126444
    46  N   -0.103042
    47  O   -0.350801
    48  C    0.336366
    49  H    0.044258
    50  C    0.179620
    51  C    0.046445
    52  N   -0.275708
    53  H    0.036380
    54  H    0.041409
    55  H    0.026543
    56  H    0.127175
    57  H    0.113693
    58  N   -0.014126
    59  C    0.039629
    60  C    0.225766
    61  N   -0.268975
    62  H    0.028634
    63  C    0.156657
    64  N   -0.293036
    65  H    0.035432
    66  C    0.123133
    67  N   -0.252275
    68  C    0.045668
    69  C    0.176297
    70  N   -0.309617
 Sum of Mulliken charges =  -0.00000

 Dipole moment (field-independent basis, Debye):
    X=             -4.2475    Y=              3.2491    Z=             -6.9869  Tot=              8.7986
 Quadrupole moment (field-independent basis, Debye-Ang):
   XX=           -146.0264   YY=           -236.6898   ZZ=           -248.2902
   XY=             -8.8354   XZ=              8.5524   YZ=            -17.3723

 Normal termination of Gaussian 16 at Thu Jan 25 11:47:54 2018.
