 Gaussian 16, Revision A.03,
 Gaussian 16:  EM64L-G16RevA.03 25-Dec-2016

 ---------------------------------------
 #p wb97xd/cc-pvdz sp scf=(maxcycles=20)
 ---------------------------------------

 ------------------
 Base pair stacking
 ------------------
 Symbolic Z-matrix:
 Charge =  0 Multiplicity = 1

                         Standard orientation:
 ---------------------------------------------------------------------
 Center     Atomic      Atomic             Coordinates (Angstroms)
 Number     Number       Type             X           Y           Z
 ---------------------------------------------------------------------
      1          7           0       -4.150939    2.414769   -0.080463
      2          6           0       -5.357656    2.702589   -0.879832
      3          6           0       -2.076755    2.020318    0.535551
      4          7           0       -2.839502    1.982177    1.693781
      5          6           0       -4.058592    2.221344    1.276298
      6          1           0       -4.936665    2.268536    1.921056
      7          7           0       -0.264116    1.946223   -0.971697
      8          6           0       -1.153413    2.207869   -1.935167
      9          1           0       -0.741832    2.278836   -2.941062
     10          7           0       -2.468603    2.394116   -1.843069
     11          6           0       -2.871281    2.285941   -0.566121
     12          6           0       -0.700739    1.843522    0.302624
     13          7           0        0.185449    1.582398    1.265772
     14          1           0       -0.093096    1.497777    2.223096
     15          1           0        1.157465    1.462515    1.063370
     16          1           0       -5.772928    3.555686   -0.563685
     17          1           0       -5.106656    2.792168   -1.843221
     18          1           0       -6.014550    1.955741   -0.776339
     19          7           0       -6.015081   -0.966241   -0.034338
     20          6           0       -4.709634   -1.201649   -0.392727
     21          6           0       -7.167026   -0.964722   -0.958313
     22          7           0       -2.343261   -1.925513   -2.829542
     23          1           0       -1.354922   -2.066857   -2.879067
     24          1           0       -2.855548   -1.998856   -3.685639
     25          7           0       -4.263510   -1.468972   -1.639147
     26          6           0       -2.955060   -1.649953   -1.667781
     27          7           0       -2.143763   -1.575296   -0.561550
     28          1           0       -1.153684   -1.727900   -0.677373
     29          6           0       -2.581113   -1.301554    0.730597
     30          8           0       -1.765824   -1.256802    1.660137
     31          6           0       -3.984672   -1.104760    0.777242
     32          7           0       -4.818210   -0.814375    1.848596
     33          6           0       -6.009965   -0.741629    1.320715
     34          1           0       -6.923197   -0.526231    1.876485
     35          1           0       -7.608243   -0.068140   -0.942123
     36          1           0       -6.848777   -1.161605   -1.884715
     37          1           0       -7.823182   -1.664013   -0.676776
     38          1           0        3.744928   -1.947813   -2.021983
     39          1           0        3.605461   -3.616732   -1.474332
     40          1           0        2.211706   -2.804119   -2.187402
     41          1           0        3.973270   -1.333018    2.744192
     42          6           0        3.228236   -1.524220    1.971799
     43          8           0        1.386648   -0.921332    3.340083
     44          6           0        1.844025   -1.311912    2.266285
     45          1           0       -0.000593   -1.445331    1.389973
     46          7           0        0.985682   -1.583531    1.219998
     47          8           0        0.490374   -2.237071   -0.897731
     48          6           0        1.324064   -2.023675   -0.035121
     49          1           0        4.628456   -2.129968    0.482419
     50          6           0        3.589320   -1.953102    0.756773
     51          6           0        3.087031   -2.674162   -1.568486
     52          7           0        2.677449   -2.204658   -0.242008
     53          1           0        7.311809    1.280236   -3.172637
     54          1           0        5.894593    0.512365   -3.425541
     55          1           0        7.230368   -0.344680   -3.044453
     56          1           0        3.344011    1.152112    3.096785
     57          1           0        5.047598    1.064880    3.080118
     58          7           0        4.188319    1.068049    2.567432
     59          6           0        4.170279    0.964697    1.236956
     60          6           0        5.149054    0.746246   -0.920820
     61          7           0        3.980293    0.753309   -1.582923
     62          1           0        1.973504    0.885485   -1.188053
     63          6           0        2.962663    0.871299   -0.732389
     64          7           0        2.978676    0.974932    0.600491
     65          1           0        8.355167    0.615462   -0.525923
     66          6           0        7.275382    0.680659   -0.388969
     67          7           0        6.677275    0.801719    0.770906
     68          6           0        5.328715    0.844444    0.447975
     69          6           0        6.738037    0.511857   -2.889135
     70          7           0        6.411064    0.640668   -1.455784
 ---------------------------------------------------------------------

 SCF Done:  E(RwB97XD) =  -2048.74617609     A.U. after   15 cycles

 The electronic state is 1-A.
 Alpha  occ. eigenvalues --  -19.25270 -19.21928 -19.20895 -14.52351 -14.51744
 Alpha  occ. eigenvalues --  -14.49712 -14.48756 -14.47898 -14.47356 -14.47180
 Alpha  occ. eigenvalues --  -14.46946 -14.45204 -14.44571 -14.44378 -14.42670
 Alpha  occ. eigenvalues --  -14.42460 -14.41732 -14.41326 -14.40997 -14.40793
 Alpha  occ. eigenvalues --  -10.44865 -10.41660 -10.39870 -10.39821 -10.38625
 Alpha  occ. eigenvalues --  -10.37802 -10.37275 -10.36692 -10.36044 -10.35831
 Alpha  occ. eigenvalues --  -10.35073 -10.34286 -10.34161 -10.33852 -10.33814
 Alpha  occ. eigenvalues --  -10.33574 -10.33484 -10.32610 -10.31933 -10.31115
 Alpha  occ. eigenvalues --  -10.30104 -10.28754 -10.28740  -1.18828  -1.15119
 Alpha  occ. eigenvalues --   -1.13649  -1.12825  -1.11355  -1.11286  -1.09428
 Alpha  occ. eigenvalues --   -1.08939  -1.08558  -1.05440  -1.04870  -1.01991
 Alpha  occ. eigenvalues --   -1.00830  -1.00771  -1.00083  -0.99065  -0.97367
 Alpha  occ. eigenvalues --   -0.97061  -0.96827  -0.93109  -0.90280  -0.87600
 Alpha  occ. eigenvalues --   -0.85809  -0.84876  -0.84040  -0.83331  -0.82838
 Alpha  occ. eigenvalues --   -0.82460  -0.78214  -0.76981  -0.75222  -0.74878
 Alpha  occ. eigenvalues --   -0.74027  -0.73082  -0.72799  -0.71312  -0.70332
 Alpha  occ. eigenvalues --   -0.67841  -0.66778  -0.66503  -0.65979  -0.64863
 Alpha  occ. eigenvalues --   -0.64137  -0.63515  -0.62977  -0.62914  -0.62204
 Alpha  occ. eigenvalues --   -0.60622  -0.60439  -0.59950  -0.59530  -0.58977
 Alpha  occ. eigenvalues --   -0.58866  -0.58612  -0.58064  -0.56744  -0.56076
 Alpha  occ. eigenvalues --   -0.55904  -0.55738  -0.55158  -0.54670  -0.54387
 Alpha  occ. eigenvalues --   -0.54130  -0.53594  -0.53587  -0.53279  -0.52767
 Alpha  occ. eigenvalues --   -0.52714  -0.51823  -0.51787  -0.50900  -0.50729
 Alpha  occ. eigenvalues --   -0.50452  -0.50037  -0.49820  -0.49394  -0.49129
 Alpha  occ. eigenvalues --   -0.48935  -0.48643  -0.48523  -0.47479  -0.47282
 Alpha  occ. eigenvalues --   -0.47132  -0.45913  -0.45326  -0.44919  -0.42797
 Alpha  occ. eigenvalues --   -0.41398  -0.40697  -0.39137  -0.37929  -0.37690
 Alpha  occ. eigenvalues --   -0.37597  -0.37510  -0.37224  -0.35480  -0.34882
 Alpha  occ. eigenvalues --   -0.34506  -0.34327  -0.33742  -0.33523  -0.33336
 Alpha  occ. eigenvalues --   -0.33104  -0.32926  -0.32213  -0.31330  -0.31164
 Alpha  occ. eigenvalues --   -0.30699  -0.29756  -0.26391  -0.25759
 Alpha virt. eigenvalues --    0.03440   0.04203   0.06889   0.07753   0.08561
 Alpha virt. eigenvalues --    0.08993   0.09314   0.10474   0.10616   0.12500
 Alpha virt. eigenvalues --    0.13223   0.13767   0.14011   0.14306   0.14679

 Mulliken charges:
               1
     1  N   -0.305105
     2  C    0.189077
     3  C    0.028889
     4  N   -0.234414
     5  C    0.147282
     6  H    0.026498
     7  N   -0.296078
     8  C    0.127757
     9  H    0.009960
    10  N   -0.284694
    11  C    0.242681
    12  C    0.081284
    13  N   -0.056311
    14  H    0.121535
    15  H    0.093257
    16  H    0.025700
    17  H    0.035126
    18  H    0.007302
    19  N   -0.306487
    20  C    0.247840
    21  C    0.179450
    22  N   -0.121976
    23  H    0.119248
    24  H    0.119950
    25  N   -0.311603
    26  C    0.253874
    27  N   -0.144968
    28  H    0.120678
    29  C    0.190112
    30  O   -0.317838
    31  C   -0.012927
    32  N   -0.213120
    33  C    0.103777
    34  H    0.024469
    35  H    0.020471
    36  H    0.032737
    37  H    0.028798
    38  H    0.055696
    39  H    0.054049
    40  H    0.072545
    41  H    0.012438
    42  C   -0.082221
    43  O   -0.284945
    44  C    0.181558
    45  H    0.130650
    46  N   -0.124971
    47  O   -0.353736
    48  C    0.346890
    49  H    0.045140
    50  C    0.152374
    51  C    0.043376
    52  N   -0.275358
    53  H    0.034955
    54  H    0.041338
    55  H    0.028712
    56  H    0.125941
    57  H    0.119909
    58  N   -0.049155
    59  C    0.065628
    60  C    0.234674
    61  N   -0.271394
    62  H    0.035038
    63  C    0.158191
    64  N   -0.299939
    65  H    0.038895
    66  C    0.139224
    67  N   -0.258709
    68  C    0.044989
    69  C    0.178948
    70  N   -0.312961
 Sum of Mulliken charges =  -0.00000

 Dipole moment (field-independent basis, Debye):
    X=              4.3904    Y=             -2.0386    Z=             -7.7640  Tot=              9.1494
 Quadrupole moment (field-independent basis, Debye-Ang):
   XX=           -144.3317   YY=           -242.2181   ZZ=           -243.1511
   XY=            -13.2005   XZ=             -0.6404   YZ=             17.4459

 Normal termination of Gaussian 16 at Thu Jan 25 14:15:32 2018.
