 Gaussian 16, Revision A.03,
 Gaussian 16:  EM64L-G16RevA.03 25-Dec-2016

 ---------------------------------------
 #p wb97xd/cc-pvdz sp scf=(maxcycles=20)
 ---------------------------------------

 ------------------
 Base pair stacking
 ------------------
 Symbolic Z-matrix:
 Charge =  0 Multiplicity = 1

                         Standard orientation:
 ---------------------------------------------------------------------
 Center     Atomic      Atomic             Coordinates (Angstroms)
 Number     Number       Type             X           Y           Z
 ---------------------------------------------------------------------
      1          7           0       -6.528084   -0.799691    0.538691
      2          6           0       -7.766827   -0.137656    0.991739
      3          6           0       -4.423418   -1.388312    0.291299
      4          7           0       -5.152480   -2.175341   -0.588354
      5          6           0       -6.391289   -1.789212   -0.404092
      6          1           0       -7.252905   -2.196240   -0.934079
      7          7           0       -2.650449   -0.420343    1.508904
      8          6           0       -3.575480    0.338820    2.105178
      9          1           0       -3.194429    1.039552    2.846833
     10          7           0       -4.894352    0.362262    1.923715
     11          6           0       -5.257687   -0.535478    0.992871
     12          6           0       -3.047978   -1.313867    0.576885
     13          7           0       -2.126075   -2.072590   -0.019446
     14          1           0       -2.375000   -2.747238   -0.715224
     15          1           0       -1.155700   -1.992566    0.208828
     16          1           0       -8.388700   -0.819236    1.377608
     17          1           0       -7.545789    0.543261    1.689313
     18          1           0       -8.208946    0.313340    0.216407
     19          7           0       -3.639378    1.533101   -1.287010
     20          6           0       -2.325022    1.723450   -0.934450
     21          6           0       -4.785910    2.293471   -0.750352
     22          7           0        0.076613    3.406219    0.926247
     23          1           0        1.069317    3.384302    1.041544
     24          1           0       -0.428507    4.077611    1.469220
     25          7           0       -1.863829    2.629790   -0.045696
     26          6           0       -0.549987    2.573129    0.081712
     27          7           0        0.252622    1.696673   -0.607601
     28          1           0        1.247784    1.724274   -0.446835
     29          6           0       -0.200249    0.755567   -1.526888
     30          8           0        0.608272    0.011128   -2.095095
     31          6           0       -1.609754    0.804423   -1.674441
     32          7           0       -2.458000    0.052250   -2.475456
     33          6           0       -3.648727    0.518507   -2.212832
     34          1           0       -4.571454    0.157008   -2.667988
     35          1           0       -5.420096    1.667951   -0.297219
     36          1           0       -4.456516    2.967911   -0.090884
     37          1           0       -5.256542    2.761644   -1.497432
     38          1           0        6.027908    1.929789    1.273905
     39          1           0        6.289348    2.891844   -0.178939
     40          1           0        4.727566    2.938809    0.639591
     41          1           0        6.239794   -1.538822   -2.053316
     42          6           0        5.537473   -0.791140   -1.684593
     43          8           0        3.644937   -1.803065   -2.695251
     44          6           0        4.150022   -0.911255   -2.013814
     45          1           0        2.361687    0.035826   -1.708479
     46          7           0        3.348373    0.086639   -1.497274
     47          8           0        2.958086    1.983602   -0.311357
     48          6           0        3.744059    1.148437   -0.722964
     49          1           0        6.997885    0.370092   -0.652832
     50          6           0        5.953780    0.233417   -0.931226
     51          6           0        5.566481    2.312188    0.375616
     52          7           0        5.096734    1.195152   -0.448605
     53          1           0        4.844563    0.547706    3.868990
     54          1           0        3.673892    1.414787    3.134289
     55          1           0        5.184924    1.396713    2.517419
     56          1           0        1.033395   -3.782777   -0.798708
     57          1           0        2.701835   -3.984359   -0.505824
     58          7           0        1.871710   -3.441626   -0.373296
     59          6           0        1.883235   -2.313223    0.339276
     60          6           0        2.888956   -0.610809    1.662918
     61          7           0        1.759084    0.097570    1.824236
     62          1           0       -0.214533    0.017427    1.277407
     63          6           0        0.744005   -0.493479    1.197192
     64          7           0        0.730447   -1.623659    0.482993
     65          1           0        6.019551   -1.350974    1.984853
     66          6           0        4.959277   -1.330182    1.731242
     67          7           0        4.348195   -2.236173    1.007744
     68          6           0        3.034835   -1.792111    0.956673
     69          6           0        4.487985    0.853993    2.986360
     70          7           0        4.136387   -0.317806    2.160967
 ---------------------------------------------------------------------

 SCF Done:  E(RwB97XD) =  -2048.74380096     A.U. after   15 cycles

 The electronic state is 1-A.
 Alpha  occ. eigenvalues --  -19.25781 -19.21989 -19.20585 -14.52484 -14.51438
 Alpha  occ. eigenvalues --  -14.50101 -14.48465 -14.47710 -14.46735 -14.46475
 Alpha  occ. eigenvalues --  -14.46330 -14.44140 -14.43065 -14.43022 -14.42906
 Alpha  occ. eigenvalues --  -14.42716 -14.41972 -14.41824 -14.41122 -14.40666
 Alpha  occ. eigenvalues --  -10.45421 -10.41030 -10.39993 -10.38388 -10.38113
 Alpha  occ. eigenvalues --  -10.37516 -10.36801 -10.36427 -10.35898 -10.35860
 Alpha  occ. eigenvalues --  -10.35352 -10.34598 -10.34545 -10.34152 -10.34030
 Alpha  occ. eigenvalues --  -10.33263 -10.33111 -10.32147 -10.31259 -10.30878
 Alpha  occ. eigenvalues --  -10.30229 -10.29748 -10.27924  -1.19420  -1.14059
 Alpha  occ. eigenvalues --   -1.13105  -1.12928  -1.12664  -1.10413  -1.09376
 Alpha  occ. eigenvalues --   -1.08436  -1.07776  -1.06027  -1.03301  -1.02475
 Alpha  occ. eigenvalues --   -1.01473  -0.99789  -0.99568  -0.98367  -0.98175
 Alpha  occ. eigenvalues --   -0.96311  -0.95441  -0.93643  -0.90963  -0.86629
 Alpha  occ. eigenvalues --   -0.85238  -0.85124  -0.83923  -0.83829  -0.83477
 Alpha  occ. eigenvalues --   -0.82107  -0.78837  -0.75764  -0.74410  -0.73990
 Alpha  occ. eigenvalues --   -0.73618  -0.73419  -0.73318  -0.72140  -0.69173
 Alpha  occ. eigenvalues --   -0.67398  -0.67190  -0.66555  -0.65478  -0.64455
 Alpha  occ. eigenvalues --   -0.63786  -0.63642  -0.62966  -0.62501  -0.61904
 Alpha  occ. eigenvalues --   -0.61543  -0.61208  -0.59566  -0.59335  -0.58502
 Alpha  occ. eigenvalues --   -0.58198  -0.58099  -0.57488  -0.57120  -0.56397
 Alpha  occ. eigenvalues --   -0.56165  -0.55892  -0.55716  -0.54412  -0.54253
 Alpha  occ. eigenvalues --   -0.53770  -0.53447  -0.52962  -0.52912  -0.52631
 Alpha  occ. eigenvalues --   -0.52289  -0.51768  -0.51545  -0.51252  -0.51095
 Alpha  occ. eigenvalues --   -0.50105  -0.49954  -0.49397  -0.48896  -0.48704
 Alpha  occ. eigenvalues --   -0.48474  -0.48278  -0.48069  -0.47974  -0.47775
 Alpha  occ. eigenvalues --   -0.47328  -0.45987  -0.45267  -0.43916  -0.43007
 Alpha  occ. eigenvalues --   -0.41998  -0.39541  -0.39372  -0.38268  -0.37146
 Alpha  occ. eigenvalues --   -0.37100  -0.36618  -0.36396  -0.35986  -0.34808
 Alpha  occ. eigenvalues --   -0.34603  -0.34032  -0.33407  -0.33133  -0.33045
 Alpha  occ. eigenvalues --   -0.32596  -0.32171  -0.31906  -0.31759  -0.31530
 Alpha  occ. eigenvalues --   -0.31333  -0.28299  -0.26812  -0.25291
 Alpha virt. eigenvalues --    0.02604   0.05788   0.06810   0.07482   0.09178
 Alpha virt. eigenvalues --    0.09395   0.09758   0.10192   0.11426   0.12081
 Alpha virt. eigenvalues --    0.12769   0.13413   0.14411   0.14964   0.15079

 Mulliken charges:
               1
     1  N   -0.308158
     2  C    0.178223
     3  C    0.047715
     4  N   -0.248814
     5  C    0.123727
     6  H    0.029131
     7  N   -0.276383
     8  C    0.136703
     9  H    0.015038
    10  N   -0.283283
    11  C    0.215822
    12  C    0.087661
    13  N   -0.036502
    14  H    0.109333
    15  H    0.089263
    16  H    0.031184
    17  H    0.036782
    18  H    0.025053
    19  N   -0.297674
    20  C    0.248457
    21  C    0.194047
    22  N   -0.116821
    23  H    0.115157
    24  H    0.117336
    25  N   -0.300404
    26  C    0.226504
    27  N   -0.138764
    28  H    0.126184
    29  C    0.163438
    30  O   -0.325259
    31  C   -0.000995
    32  N   -0.227862
    33  C    0.125932
    34  H    0.024170
    35  H    0.010985
    36  H    0.030748
    37  H    0.019851
    38  H    0.057652
    39  H    0.062840
    40  H    0.075678
    41  H    0.027958
    42  C   -0.066002
    43  O   -0.266366
    44  C    0.170229
    45  H    0.133929
    46  N   -0.124386
    47  O   -0.340913
    48  C    0.336367
    49  H    0.041449
    50  C    0.145928
    51  C    0.041069
    52  N   -0.280718
    53  H    0.033460
    54  H    0.040932
    55  H   -0.020625
    56  H    0.118144
    57  H    0.120685
    58  N   -0.053927
    59  C    0.128280
    60  C    0.211225
    61  N   -0.270954
    62  H    0.031459
    63  C    0.156593
    64  N   -0.307132
    65  H    0.026521
    66  C    0.123319
    67  N   -0.243773
    68  C    0.021696
    69  C    0.197202
    70  N   -0.295343
 Sum of Mulliken charges =  -0.00000

 Dipole moment (field-independent basis, Debye):
    X=              3.8502    Y=              4.9401    Z=              5.4637  Tot=              8.3115
 Quadrupole moment (field-independent basis, Debye-Ang):
   XX=           -143.6265   YY=           -225.5563   ZZ=           -259.3959
   XY=             13.1610   XZ=             21.1964   YZ=              4.0712

 Normal termination of Gaussian 16 at Wed Jan 24 19:39:58 2018.
