 Gaussian 16, Revision A.03,
 Gaussian 16:  EM64L-G16RevA.03 25-Dec-2016

 ---------------------------------------
 #p wb97xd/cc-pvdz sp scf=(maxcycles=20)
 ---------------------------------------

 ------------------
 Base pair stacking
 ------------------
 Symbolic Z-matrix:
 Charge =  0 Multiplicity = 1

                         Standard orientation:
 ---------------------------------------------------------------------
 Center     Atomic      Atomic             Coordinates (Angstroms)
 Number     Number       Type             X           Y           Z
 ---------------------------------------------------------------------
      1          7           0        5.388149   -1.321827   -0.986037
      2          6           0        6.639578   -0.788038   -1.557864
      3          6           0        3.266762   -1.715919   -0.559738
      4          7           0        3.992647   -2.527188    0.300287
      5          6           0        5.241657   -2.257300    0.009034
      6          1           0        6.104253   -2.715745    0.493479
      7          7           0        1.492946   -0.647822   -1.689213
      8          6           0        2.429866    0.004065   -2.385511
      9          1           0        2.053086    0.704857   -3.129274
     10          7           0        3.756087   -0.079363   -2.301386
     11          6           0        4.113258   -0.967179   -1.358702
     12          6           0        1.884548   -1.534337   -0.748037
     13          7           0        0.950796   -2.186039   -0.051941
     14          1           0        1.194957   -2.851287    0.654501
     15          1           0       -0.024108   -2.031620   -0.212752
     16          1           0        7.171374   -1.535738   -1.955778
     17          1           0        6.423501   -0.119037   -2.268397
     18          1           0        7.175455   -0.346292   -0.838349
     19          7           0        4.857974    1.157323    0.921972
     20          6           0        3.541023    1.432431    0.642710
     21          6           0        6.018863    1.726131    0.208172
     22          7           0        1.152029    3.100607   -1.247175
     23          1           0        0.155196    3.163744   -1.286870
     24          1           0        1.667860    3.644892   -1.909295
     25          7           0        3.089864    2.261933   -0.322909
     26          6           0        1.770198    2.321359   -0.346877
     27          7           0        0.953051    1.622690    0.508494
     28          1           0       -0.045606    1.729267    0.417463
     29          6           0        1.395402    0.763531    1.509506
     30          8           0        0.574050    0.180616    2.228070
     31          6           0        2.811011    0.689369    1.547547
     32          7           0        3.652723   -0.037622    2.378154
     33          6           0        4.854141    0.270756    1.971090
     34          1           0        5.775725   -0.121323    2.402631
     35          1           0        6.553898    0.988586   -0.202410
     36          1           0        5.696987    2.342241   -0.509503
     37          1           0        6.590889    2.234729    0.850775
     38          1           0       -4.915840    2.194462   -0.967134
     39          1           0       -4.966539    3.352057    0.360282
     40          1           0       -3.481358    3.139899   -0.567398
     41          1           0       -5.157321   -0.791777    2.797257
     42          6           0       -4.424268   -0.170082    2.283099
     43          8           0       -2.551864   -1.231580    3.280304
     44          6           0       -3.030429   -0.386099    2.524714
     45          1           0       -1.196371    0.331827    1.968693
     46          7           0       -2.188778    0.454159    1.824111
     47          8           0       -1.731024    2.139206    0.372119
     48          6           0       -2.551327    1.444884    0.946289
     49          1           0       -5.856210    0.992976    1.214146
     50          6           0       -4.808859    0.788566    1.432399
     51          6           0       -4.347933    2.638236   -0.163015
     52          7           0       -3.912634    1.591843    0.766137
     53          1           0       -6.053357    0.869346   -3.542245
     54          1           0       -4.762045    1.660677   -2.935296
     55          1           0       -6.217957    1.798006   -2.210364
     56          1           0       -2.271515   -3.584108    1.032685
     57          1           0       -3.968385   -3.652249    0.871156
     58          7           0       -3.108478   -3.189059    0.653786
     59          6           0       -3.080272   -2.093319   -0.107607
     60          6           0       -4.038667   -0.364675   -1.432370
     61          7           0       -2.869337    0.236347   -1.707815
     62          1           0       -0.873350    0.007828   -1.302328
     63          6           0       -1.862178   -0.414676   -1.129264
     64          7           0       -1.888390   -1.512301   -0.366304
     65          1           0       -7.235408   -0.843711   -1.491917
     66          6           0       -6.160851   -0.904519   -1.317056
     67          7           0       -5.573992   -1.830262   -0.598527
     68          6           0       -4.228159   -1.499720   -0.663419
     69          6           0       -5.606354    1.178737   -2.702926
     70          7           0       -5.291682    0.014915   -1.851744
 ---------------------------------------------------------------------

 SCF Done:  E(RwB97XD) =  -2048.73076974     A.U. after   15 cycles

 The electronic state is 1-A.
 Alpha  occ. eigenvalues --  -19.25117 -19.21484 -19.20432 -14.52497 -14.51769
 Alpha  occ. eigenvalues --  -14.49525 -14.48913 -14.47469 -14.47207 -14.46580
 Alpha  occ. eigenvalues --  -14.46517 -14.45116 -14.44066 -14.43945 -14.43031
 Alpha  occ. eigenvalues --  -14.41975 -14.41740 -14.41488 -14.41067 -14.40873
 Alpha  occ. eigenvalues --  -10.44769 -10.40940 -10.39547 -10.39475 -10.38081
 Alpha  occ. eigenvalues --  -10.37781 -10.37052 -10.36970 -10.36215 -10.35601
 Alpha  occ. eigenvalues --  -10.34690 -10.34566 -10.34364 -10.34280 -10.34049
 Alpha  occ. eigenvalues --  -10.33794 -10.33443 -10.32298 -10.32056 -10.31006
 Alpha  occ. eigenvalues --  -10.30340 -10.29201 -10.28027  -1.18797  -1.15124
 Alpha  occ. eigenvalues --   -1.13082  -1.12478  -1.12093  -1.10585  -1.08922
 Alpha  occ. eigenvalues --   -1.08702  -1.08386  -1.05815  -1.04418  -1.01938
 Alpha  occ. eigenvalues --   -1.01166  -1.00863  -0.99557  -0.98388  -0.97811
 Alpha  occ. eigenvalues --   -0.96586  -0.96534  -0.93465  -0.90377  -0.87593
 Alpha  occ. eigenvalues --   -0.86198  -0.85105  -0.83999  -0.83534  -0.83086
 Alpha  occ. eigenvalues --   -0.82391  -0.78272  -0.76767  -0.74645  -0.74563
 Alpha  occ. eigenvalues --   -0.73692  -0.73438  -0.72772  -0.71783  -0.70168
 Alpha  occ. eigenvalues --   -0.67390  -0.67020  -0.66525  -0.66003  -0.64405
 Alpha  occ. eigenvalues --   -0.64049  -0.63589  -0.63420  -0.62470  -0.61927
 Alpha  occ. eigenvalues --   -0.61639  -0.61098  -0.60303  -0.59834  -0.59355
 Alpha  occ. eigenvalues --   -0.58987  -0.58374  -0.58213  -0.57362  -0.56250
 Alpha  occ. eigenvalues --   -0.55629  -0.55516  -0.55271  -0.54663  -0.54014
 Alpha  occ. eigenvalues --   -0.53945  -0.53668  -0.53411  -0.52904  -0.52779
 Alpha  occ. eigenvalues --   -0.52605  -0.52240  -0.51364  -0.51282  -0.50921
 Alpha  occ. eigenvalues --   -0.50109  -0.49943  -0.49517  -0.49108  -0.48933
 Alpha  occ. eigenvalues --   -0.48651  -0.48175  -0.48112  -0.47813  -0.47688
 Alpha  occ. eigenvalues --   -0.47089  -0.46184  -0.44882  -0.43987  -0.43045
 Alpha  occ. eigenvalues --   -0.41623  -0.40516  -0.38833  -0.37824  -0.37655
 Alpha  occ. eigenvalues --   -0.37281  -0.37063  -0.36789  -0.35904  -0.34846
 Alpha  occ. eigenvalues --   -0.34485  -0.34185  -0.33854  -0.33626  -0.32812
 Alpha  occ. eigenvalues --   -0.32455  -0.32358  -0.31763  -0.31331  -0.31249
 Alpha  occ. eigenvalues --   -0.30899  -0.29445  -0.27350  -0.24429
 Alpha virt. eigenvalues --    0.02989   0.04693   0.06644   0.07139   0.08582
 Alpha virt. eigenvalues --    0.09431   0.10071   0.10594   0.10961   0.12277
 Alpha virt. eigenvalues --    0.12484   0.13925   0.14343   0.14869   0.15210

 Mulliken charges:
               1
     1  N   -0.304667
     2  C    0.195351
     3  C    0.058039
     4  N   -0.235950
     5  C    0.119817
     6  H    0.025256
     7  N   -0.283057
     8  C    0.134872
     9  H    0.005437
    10  N   -0.267580
    11  C    0.223195
    12  C    0.073050
    13  N   -0.041085
    14  H    0.113075
    15  H    0.086859
    16  H    0.022772
    17  H    0.032824
    18  H    0.029110
    19  N   -0.293095
    20  C    0.231183
    21  C    0.206997
    22  N   -0.115638
    23  H    0.117671
    24  H    0.118443
    25  N   -0.285901
    26  C    0.216019
    27  N   -0.125629
    28  H    0.117491
    29  C    0.169858
    30  O   -0.324372
    31  C   -0.000296
    32  N   -0.212994
    33  C    0.117896
    34  H    0.018600
    35  H   -0.041076
    36  H    0.038897
    37  H    0.026261
    38  H   -0.012816
    39  H    0.055749
    40  H    0.081117
    41  H    0.023575
    42  C   -0.084694
    43  O   -0.270947
    44  C    0.158467
    45  H    0.129518
    46  N   -0.105117
    47  O   -0.344967
    48  C    0.327232
    49  H    0.039532
    50  C    0.158020
    51  C    0.068812
    52  N   -0.265769
    53  H    0.029297
    54  H    0.040273
    55  H    0.031098
    56  H    0.123236
    57  H    0.119114
    58  N   -0.045258
    59  C    0.091391
    60  C    0.211605
    61  N   -0.265915
    62  H    0.018846
    63  C    0.160129
    64  N   -0.292898
    65  H    0.036168
    66  C    0.121081
    67  N   -0.248187
    68  C    0.048217
    69  C    0.209695
    70  N   -0.313239
 Sum of Mulliken charges =  -0.00000

 Dipole moment (field-independent basis, Debye):
    X=             -4.1859    Y=              4.4860    Z=             -6.4089  Tot=              8.8724
 Quadrupole moment (field-independent basis, Debye-Ang):
   XX=           -145.8184   YY=           -225.0738   ZZ=           -263.6125
   XY=            -11.4935   XZ=              7.8956   YZ=             -6.7456

 Normal termination of Gaussian 16 at Thu Jan 25 21:48:18 2018.
