 Gaussian 16, Revision A.03,
 Gaussian 16:  EM64L-G16RevA.03 25-Dec-2016

 ---------------------------------------
 #p wb97xd/cc-pvdz sp scf=(maxcycles=20)
 ---------------------------------------

 ------------------
 Base pair stacking
 ------------------
 Symbolic Z-matrix:
 Charge =  0 Multiplicity = 1

                         Standard orientation:
 ---------------------------------------------------------------------
 Center     Atomic      Atomic             Coordinates (Angstroms)
 Number     Number       Type             X           Y           Z
 ---------------------------------------------------------------------
      1          7           0       -7.021159    0.436740   -0.327005
      2          6           0       -8.234822   -0.378917   -0.526262
      3          6           0       -4.943263    1.157599   -0.331785
      4          7           0       -5.692301    2.136866    0.304394
      5          6           0       -6.914177    1.663376    0.281816
      6          1           0       -7.783965    2.171927    0.698697
      7          7           0       -3.149637   -0.050597   -1.273126
      8          6           0       -4.048135   -0.988110   -1.591483
      9          1           0       -3.648110   -1.858809   -2.109282
     10          7           0       -5.360431   -1.011433   -1.367316
     11          6           0       -5.748629    0.103544   -0.726572
     12          6           0       -3.571773    1.059290   -0.628894
     13          7           0       -2.676374    1.996256   -0.310251
     14          1           0       -2.944103    2.834041    0.166882
     15          1           0       -1.707969    1.892790   -0.537470
     16          1           0       -8.896794    0.134046   -1.072935
     17          1           0       -7.994680   -1.224370   -1.002365
     18          1           0       -8.638914   -0.601269    0.361019
     19          7           0       -3.087093   -1.275559    1.489659
     20          6           0       -1.778624   -1.489269    1.128689
     21          6           0       -4.232895   -2.113100    1.081760
     22          7           0        0.605906   -3.355291   -0.572399
     23          1           0        1.594952   -3.333560   -0.715773
     24          1           0        0.099515   -4.096093   -1.014552
     25          7           0       -1.323490   -2.492210    0.347026
     26          6           0       -0.014359   -2.432899    0.178850
     27          7           0        0.789370   -1.466178    0.732908
     28          1           0        1.780628   -1.499200    0.550503
     29          6           0        0.342691   -0.424838    1.540345
     30          8           0        1.151675    0.395942    1.990449
     31          6           0       -1.061714   -0.475277    1.730072
     32          7           0       -1.903165    0.358239    2.454024
     33          6           0       -3.091595   -0.154113    2.282744
     34          1           0       -4.009104    0.247782    2.713935
     35          1           0       -4.888878   -1.557871    0.571658
     36          1           0       -3.907958   -2.859383    0.502327
     37          1           0       -4.676800   -2.491619    1.893226
     38          1           0        6.520048   -1.847933   -1.257533
     39          1           0        6.833849   -2.618307    0.295753
     40          1           0        5.253560   -2.789009   -0.469031
     41          1           0        6.752386    2.009617    1.608120
     42          6           0        6.054498    1.211906    1.353480
     43          8           0        4.169796    2.314132    2.280893
     44          6           0        4.673624    1.351986    1.701913
     45          1           0        2.895269    0.348678    1.563582
     46          7           0        3.877219    0.286246    1.334234
     47          8           0        3.491396   -1.748699    0.402929
     48          6           0        4.272417   -0.857660    0.687059
     49          1           0        7.509379   -0.047296    0.435033
     50          6           0        6.470160    0.107842    0.721915
     51          6           0        6.087555   -2.122444   -0.306927
     52          7           0        5.618583   -0.918611    0.384876
     53          1           0        4.335385   -1.358659   -3.497020
     54          1           0        3.223285   -2.020261   -2.503221
     55          1           0        4.743578   -1.760822   -1.968928
     56          1           0        0.410629    3.987342   -0.168052
     57          1           0        2.061080    4.162614   -0.562227
     58          7           0        1.256000    3.571350   -0.503365
     59          6           0        1.308482    2.285397   -0.856560
     60          6           0        2.369695    0.313074   -1.659984
     61          7           0        1.272799   -0.457146   -1.570449
     62          1           0       -0.691133   -0.301502   -1.005337
     63          6           0        0.242709    0.249323   -1.109232
     64          7           0        0.188133    1.537366   -0.754911
     65          1           0        5.453393    1.054283   -2.287330
     66          6           0        4.400640    1.065151   -2.003546
     67          7           0        3.760509    2.117259   -1.555214
     68          6           0        2.471684    1.654153   -1.333458
     69          6           0        4.011787   -1.407893   -2.552104
     70          7           0        3.619817   -0.061420   -2.092351
 ---------------------------------------------------------------------

 SCF Done:  E(RwB97XD) =  -2048.72024660     A.U. after   15 cycles

 The electronic state is 1-A.
 Alpha  occ. eigenvalues --  -19.26198 -19.22011 -19.20489 -14.52963 -14.51067
 Alpha  occ. eigenvalues --  -14.50469 -14.48046 -14.48022 -14.46450 -14.46233
 Alpha  occ. eigenvalues --  -14.46220 -14.43875 -14.43585 -14.43157 -14.42886
 Alpha  occ. eigenvalues --  -14.42620 -14.42287 -14.41749 -14.41603 -14.40434
 Alpha  occ. eigenvalues --  -10.45850 -10.40730 -10.40127 -10.38322 -10.37965
 Alpha  occ. eigenvalues --  -10.37935 -10.36995 -10.36570 -10.36351 -10.35785
 Alpha  occ. eigenvalues --  -10.35697 -10.35015 -10.34517 -10.34439 -10.33923
 Alpha  occ. eigenvalues --  -10.32868 -10.32866 -10.32313 -10.31312 -10.31004
 Alpha  occ. eigenvalues --  -10.30334 -10.29161 -10.27811  -1.19907  -1.13778
 Alpha  occ. eigenvalues --   -1.13110  -1.13038  -1.12979  -1.10211  -1.09792
 Alpha  occ. eigenvalues --   -1.08278  -1.07704  -1.06606  -1.03285  -1.02724
 Alpha  occ. eigenvalues --   -1.02080  -0.99532  -0.99348  -0.98594  -0.98195
 Alpha  occ. eigenvalues --   -0.96031  -0.95342  -0.94213  -0.91403  -0.86389
 Alpha  occ. eigenvalues --   -0.85577  -0.85180  -0.84117  -0.83866  -0.83602
 Alpha  occ. eigenvalues --   -0.81672  -0.79202  -0.75668  -0.74520  -0.74176
 Alpha  occ. eigenvalues --   -0.73652  -0.73468  -0.73227  -0.72655  -0.69071
 Alpha  occ. eigenvalues --   -0.67879  -0.67105  -0.66750  -0.65462  -0.64744
 Alpha  occ. eigenvalues --   -0.64258  -0.63430  -0.62915  -0.62539  -0.61801
 Alpha  occ. eigenvalues --   -0.61621  -0.61341  -0.59768  -0.59404  -0.58617
 Alpha  occ. eigenvalues --   -0.58385  -0.57975  -0.57834  -0.57183  -0.56825
 Alpha  occ. eigenvalues --   -0.56530  -0.56133  -0.55496  -0.54642  -0.54500
 Alpha  occ. eigenvalues --   -0.54015  -0.53402  -0.53308  -0.53124  -0.52470
 Alpha  occ. eigenvalues --   -0.52075  -0.51870  -0.51624  -0.51317  -0.51079
 Alpha  occ. eigenvalues --   -0.50525  -0.49895  -0.49520  -0.48594  -0.48541
 Alpha  occ. eigenvalues --   -0.48408  -0.48306  -0.48083  -0.47921  -0.47588
 Alpha  occ. eigenvalues --   -0.47233  -0.46208  -0.45353  -0.44412  -0.42902
 Alpha  occ. eigenvalues --   -0.41644  -0.39808  -0.39585  -0.38766  -0.37109
 Alpha  occ. eigenvalues --   -0.36989  -0.36326  -0.35986  -0.35729  -0.35123
 Alpha  occ. eigenvalues --   -0.34987  -0.34247  -0.33337  -0.33228  -0.33141
 Alpha  occ. eigenvalues --   -0.32613  -0.32473  -0.32099  -0.31828  -0.31657
 Alpha  occ. eigenvalues --   -0.31456  -0.27884  -0.27150  -0.25180
 Alpha virt. eigenvalues --    0.02852   0.05241   0.06153   0.08027   0.08663
 Alpha virt. eigenvalues --    0.08703   0.09909   0.10229   0.11310   0.12135
 Alpha virt. eigenvalues --    0.12304   0.13144   0.14734   0.14954   0.14991

 Mulliken charges:
               1
     1  N   -0.310020
     2  C    0.179802
     3  C    0.043322
     4  N   -0.254453
     5  C    0.132793
     6  H    0.031637
     7  N   -0.256892
     8  C    0.102884
     9  H    0.021780
    10  N   -0.279928
    11  C    0.219155
    12  C    0.076928
    13  N   -0.032107
    14  H    0.107256
    15  H    0.090197
    16  H    0.030058
    17  H    0.036871
    18  H    0.027377
    19  N   -0.295423
    20  C    0.235190
    21  C    0.215459
    22  N   -0.101685
    23  H    0.110907
    24  H    0.114066
    25  N   -0.288255
    26  C    0.205473
    27  N   -0.109667
    28  H    0.124093
    29  C    0.131143
    30  O   -0.324048
    31  C    0.016358
    32  N   -0.225907
    33  C    0.112597
    34  H    0.025378
    35  H    0.011285
    36  H    0.025531
    37  H    0.017131
    38  H    0.056198
    39  H    0.062373
    40  H    0.082117
    41  H    0.032876
    42  C   -0.085919
    43  O   -0.261328
    44  C    0.185286
    45  H    0.132905
    46  N   -0.122907
    47  O   -0.346415
    48  C    0.336345
    49  H    0.045599
    50  C    0.150285
    51  C    0.058589
    52  N   -0.289531
    53  H    0.030382
    54  H    0.031407
    55  H   -0.057854
    56  H    0.115735
    57  H    0.122086
    58  N   -0.067198
    59  C    0.143379
    60  C    0.214712
    61  N   -0.282895
    62  H    0.042226
    63  C    0.160672
    64  N   -0.306087
    65  H    0.022637
    66  C    0.111962
    67  N   -0.248600
    68  C    0.035170
    69  C    0.221502
    70  N   -0.291991
 Sum of Mulliken charges =  -0.00000

 Dipole moment (field-independent basis, Debye):
    X=              3.5104    Y=             -5.3362    Z=             -5.1926  Tot=              8.2317
 Quadrupole moment (field-independent basis, Debye-Ang):
   XX=           -139.2968   YY=           -226.5908   ZZ=           -259.9032
   XY=            -19.8753   XZ=            -23.5071   YZ=             -2.2681

 Normal termination of Gaussian 16 at Thu Jan 25 09:04:50 2018.
