 Gaussian 16, Revision A.03,
 Gaussian 16:  EM64L-G16RevA.03 25-Dec-2016

 ---------------------------------------
 #p wb97xd/cc-pvdz sp scf=(maxcycles=20)
 ---------------------------------------

 ------------------
 Base pair stacking
 ------------------
 Symbolic Z-matrix:
 Charge =  0 Multiplicity = 1

                         Standard orientation:
 ---------------------------------------------------------------------
 Center     Atomic      Atomic             Coordinates (Angstroms)
 Number     Number       Type             X           Y           Z
 ---------------------------------------------------------------------
      1          7           0        5.111324   -0.603011   -1.468127
      2          6           0        6.364150    0.164857   -1.605350
      3          6           0        2.988945   -1.169249   -1.357730
      4          7           0        3.712675   -2.337745   -1.169127
      5          6           0        4.962362   -1.949838   -1.243193
      6          1           0        5.823729   -2.610413   -1.140040
      7          7           0        1.218004    0.369617   -1.599833
      8          6           0        2.156624    1.307687   -1.762916
      9          1           0        1.781710    2.316915   -1.927733
     10          7           0        3.482588    1.186832   -1.753024
     11          6           0        3.837413   -0.091666   -1.543309
     12          6           0        1.607249   -0.907034   -1.390690
     13          7           0        0.671782   -1.844851   -1.227671
     14          1           0        0.914183   -2.802825   -1.070344
     15          1           0       -0.302685   -1.621977   -1.257208
     16          1           0        6.891255   -0.189926   -2.377660
     17          1           0        6.149845    1.128230   -1.763781
     18          1           0        6.903865    0.078546   -0.767942
     19          7           0        5.134432    0.428147    1.098305
     20          6           0        3.816374    0.801628    0.992000
     21          6           0        6.286441    1.215285    0.614581
     22          7           0        1.411216    3.087788   -0.032896
     23          1           0        0.415317    3.170830   -0.010095
     24          1           0        1.919571    3.838693   -0.455335
     25          7           0        3.355921    1.941259    0.432299
     26          6           0        2.037782    2.017942    0.479687
     27          7           0        1.230501    1.053454    1.032471
     28          1           0        0.232255    1.196251    1.024498
     29          6           0        1.682522   -0.127017    1.613883
     30          8           0        0.869638   -0.932262    2.084574
     31          6           0        3.096617   -0.223621    1.570467
     32          7           0        3.945718   -1.220687    2.030666
     33          6           0        5.141354   -0.791747    1.729542
     34          1           0        6.066128   -1.327691    1.945954
     35          1           0        6.792613    0.685323   -0.064938
     36          1           0        5.957648    2.061795    0.197957
     37          1           0        6.888217    1.434476    1.381805
     38          1           0       -4.664670    2.201428    0.095783
     39          1           0       -4.650679    2.764886    1.765205
     40          1           0       -3.198331    2.908841    0.774603
     41          1           0       -4.863021   -1.993452    2.443158
     42          6           0       -4.131553   -1.229582    2.179202
     43          8           0       -2.255089   -2.609265    2.629155
     44          6           0       -2.736440   -1.534803    2.270530
     45          1           0       -0.903771   -0.676544    1.965500
     46          7           0       -1.896981   -0.498790    1.913831
     47          8           0       -1.444166    1.608541    1.198778
     48          6           0       -2.262714    0.755465    1.493562
     49          1           0       -5.567666    0.267152    1.686066
     50          6           0       -4.519236   -0.015116    1.772546
     51          6           0       -4.063740    2.299090    0.987646
     52          7           0       -3.625070    0.973089    1.431526
     53          1           0       -6.324714    2.719534   -2.117109
     54          1           0       -5.028056    2.977479   -1.160945
     55          1           0       -6.481628    2.651048   -0.494117
     56          1           0       -2.555076   -3.605718   -1.197035
     57          1           0       -4.252630   -3.557491   -1.358583
     58          7           0       -3.390893   -3.059626   -1.254804
     59          6           0       -3.358873   -1.726691   -1.196169
     60          6           0       -4.311523    0.453721   -1.197092
     61          7           0       -3.139801    1.095574   -1.057445
     62          1           0       -1.144081    0.662740   -0.883201
     63          6           0       -2.134641    0.224429   -0.996907
     64          7           0       -2.164669   -1.110952   -1.055445
     65          1           0       -7.510766    0.117309   -1.519352
     66          6           0       -6.436136   -0.039903   -1.422366
     67          7           0       -5.852336   -1.213274   -1.415015
     68          6           0       -4.505006   -0.914627   -1.272754
     69          6           0       -5.874258    2.455560   -1.264229
     70          7           0       -5.563540    1.013154   -1.294399
 ---------------------------------------------------------------------

 SCF Done:  E(RwB97XD) =  -2048.53810685     A.U. after   16 cycles

 The electronic state is 1-A.
 Alpha  occ. eigenvalues --  -19.24904 -19.21149 -19.20412 -14.53076 -14.51156
 Alpha  occ. eigenvalues --  -14.49552 -14.49003 -14.48165 -14.46959 -14.46601
 Alpha  occ. eigenvalues --  -14.46214 -14.45564 -14.44433 -14.44163 -14.43204
 Alpha  occ. eigenvalues --  -14.41986 -14.41404 -14.41109 -14.41071 -14.40988
 Alpha  occ. eigenvalues --  -10.44466 -10.40586 -10.40035 -10.39214 -10.38177
 Alpha  occ. eigenvalues --  -10.37957 -10.37354 -10.36874 -10.36115 -10.35857
 Alpha  occ. eigenvalues --  -10.34836 -10.34785 -10.34193 -10.33887 -10.33584
 Alpha  occ. eigenvalues --  -10.33153 -10.33147 -10.32766 -10.31580 -10.30011
 Alpha  occ. eigenvalues --  -10.29546 -10.29082 -10.28089  -1.18730  -1.15750
 Alpha  occ. eigenvalues --   -1.13466  -1.12167  -1.12136  -1.10652  -1.09504
 Alpha  occ. eigenvalues --   -1.08862  -1.08379  -1.05802  -1.05021  -1.01760
 Alpha  occ. eigenvalues --   -1.01475  -1.01430  -0.99904  -0.98846  -0.98273
 Alpha  occ. eigenvalues --   -0.97118  -0.96584  -0.93535  -0.90109  -0.88338
 Alpha  occ. eigenvalues --   -0.88182  -0.87009  -0.84396  -0.83607  -0.82562
 Alpha  occ. eigenvalues --   -0.81412  -0.78023  -0.77310  -0.75256  -0.74866
 Alpha  occ. eigenvalues --   -0.74072  -0.73474  -0.72523  -0.71843  -0.70780
 Alpha  occ. eigenvalues --   -0.68945  -0.67203  -0.67109  -0.65934  -0.65814
 Alpha  occ. eigenvalues --   -0.64669  -0.63666  -0.63258  -0.62831  -0.62530
 Alpha  occ. eigenvalues --   -0.62307  -0.61859  -0.61214  -0.60863  -0.59980
 Alpha  occ. eigenvalues --   -0.59044  -0.58933  -0.58486  -0.58049  -0.56973
 Alpha  occ. eigenvalues --   -0.56890  -0.56368  -0.55516  -0.54434  -0.54392
 Alpha  occ. eigenvalues --   -0.53991  -0.53805  -0.53375  -0.52984  -0.52523
 Alpha  occ. eigenvalues --   -0.52255  -0.51922  -0.51401  -0.50777  -0.50479
 Alpha  occ. eigenvalues --   -0.50281  -0.49829  -0.49633  -0.49075  -0.48941
 Alpha  occ. eigenvalues --   -0.48566  -0.48045  -0.47896  -0.47643  -0.46890
 Alpha  occ. eigenvalues --   -0.46809  -0.45867  -0.43963  -0.42831  -0.42013
 Alpha  occ. eigenvalues --   -0.41140  -0.40770  -0.38899  -0.38264  -0.37910
 Alpha  occ. eigenvalues --   -0.37702  -0.37198  -0.36191  -0.35737  -0.35602
 Alpha  occ. eigenvalues --   -0.35042  -0.34629  -0.33899  -0.33458  -0.32671
 Alpha  occ. eigenvalues --   -0.32290  -0.31886  -0.31819  -0.31487  -0.30793
 Alpha  occ. eigenvalues --   -0.29402  -0.29248  -0.27900  -0.23051
 Alpha virt. eigenvalues --    0.02776   0.04562   0.05207   0.06188   0.06940
 Alpha virt. eigenvalues --    0.09851   0.10572   0.10829   0.11076   0.12207
 Alpha virt. eigenvalues --    0.12918   0.13657   0.14101   0.14770   0.14959

 Mulliken charges:
               1
     1  N   -0.308127
     2  C    0.267901
     3  C    0.083005
     4  N   -0.241338
     5  C    0.127116
     6  H    0.025492
     7  N   -0.272800
     8  C    0.128017
     9  H   -0.001684
    10  N   -0.235981
    11  C    0.192544
    12  C    0.050996
    13  N   -0.043203
    14  H    0.110649
    15  H    0.085334
    16  H    0.013663
    17  H    0.018933
    18  H   -0.021321
    19  N   -0.290379
    20  C    0.196877
    21  C    0.185283
    22  N   -0.086242
    23  H    0.120216
    24  H    0.124010
    25  N   -0.230044
    26  C    0.114137
    27  N   -0.085727
    28  H    0.119022
    29  C    0.152049
    30  O   -0.320565
    31  C    0.028256
    32  N   -0.211501
    33  C    0.106170
    34  H    0.018777
    35  H    0.010814
    36  H    0.031940
    37  H    0.009762
    38  H   -0.039552
    39  H    0.042838
    40  H    0.078371
    41  H    0.023435
    42  C   -0.096165
    43  O   -0.269211
    44  C    0.169056
    45  H    0.128431
    46  N   -0.102506
    47  O   -0.341170
    48  C    0.298410
    49  H    0.038447
    50  C    0.159440
    51  C    0.102318
    52  N   -0.261699
    53  H    0.022164
    54  H    0.045684
    55  H    0.020399
    56  H    0.122900
    57  H    0.121379
    58  N   -0.060917
    59  C    0.119378
    60  C    0.223920
    61  N   -0.287609
    62  H    0.011538
    63  C    0.182010
    64  N   -0.303357
    65  H    0.038781
    66  C    0.128116
    67  N   -0.250387
    68  C    0.046035
    69  C    0.243856
    70  N   -0.326387
 Sum of Mulliken charges =  -0.00000

 Dipole moment (field-independent basis, Debye):
    X=             -4.3244    Y=              6.9115    Z=             -4.8304  Tot=              9.4764
 Quadrupole moment (field-independent basis, Debye-Ang):
   XX=           -145.0058   YY=           -229.3062   ZZ=           -264.9280
   XY=            -11.5680   XZ=             -2.4133   YZ=             13.3673

 Normal termination of Gaussian 16 at Thu Jan 25 16:00:41 2018.
