 Gaussian 16, Revision A.03,
 Gaussian 16:  EM64L-G16RevA.03 25-Dec-2016

 ---------------------------------------
 #p wb97xd/cc-pvdz sp scf=(maxcycles=20)
 ---------------------------------------

 ------------------
 Base pair stacking
 ------------------
 Symbolic Z-matrix:
 Charge =  0 Multiplicity = 1

                         Standard orientation:
 ---------------------------------------------------------------------
 Center     Atomic      Atomic             Coordinates (Angstroms)
 Number     Number       Type             X           Y           Z
 ---------------------------------------------------------------------
      1          7           0       -5.384500   -1.947287    0.316405
      2          6           0       -6.626639   -1.962829    1.113176
      3          6           0       -3.270903   -1.891776   -0.289356
      4          7           0       -4.008873   -1.964773   -1.461869
      5          6           0       -5.252693   -1.995286   -1.049995
      6          1           0       -6.121776   -2.053180   -1.705970
      7          7           0       -1.481828   -1.765588    1.242388
      8          6           0       -2.407847   -1.762825    2.206779
      9          1           0       -2.020442   -1.708977    3.223285
     10          7           0       -3.734341   -1.816355    2.104515
     11          6           0       -4.105077   -1.880161    0.814975
     12          6           0       -1.886935   -1.830587   -0.044757
     13          7           0       -0.964062   -1.833448   -1.008836
     14          1           0       -1.218404   -1.880402   -1.975446
     15          1           0        0.012496   -1.788786   -0.797903
     16          1           0       -7.131881   -2.806026    0.928976
     17          1           0       -6.400310   -1.916700    2.085677
     18          1           0       -7.193000   -1.176360    0.866823
     19          7           0       -4.854895    1.723125   -0.301092
     20          6           0       -3.535140    1.887699    0.044199
     21          6           0       -6.010136    2.088584    0.543043
     22          7           0       -1.129403    2.921932    2.325543
     23          1           0       -0.131899    2.955192    2.381498
     24          1           0       -1.639807    3.267773    3.113326
     25          7           0       -3.075677    2.406748    1.203303
     26          6           0       -1.755378    2.435584    1.243177
     27          7           0       -0.945186    1.990640    0.226737
     28          1           0        0.054573    2.051229    0.344118
     29          6           0       -1.396134    1.452881   -0.974640
     30          8           0       -0.580582    1.080746   -1.827356
     31          6           0       -2.812527    1.415383   -1.032164
     32          7           0       -3.661538    0.963384   -2.033053
     33          6           0       -4.859915    1.165226   -1.556225
     34          1           0       -5.785450    0.924479   -2.080347
     35          1           0       -6.558545    1.274501    0.730968
     36          1           0       -5.682095    2.474190    1.404417
     37          1           0       -6.571096    2.765788    0.068147
     38          1           0        4.924851    2.031383    1.804478
     39          1           0        4.999901    3.512896    0.853620
     40          1           0        3.507215    3.074131    1.684725
     41          1           0        5.137548    0.212913   -2.644628
     42          6           0        4.411861    0.677976   -1.977300
     43          8           0        2.527870   -0.031789   -3.231859
     44          6           0        3.015986    0.560858   -2.269930
     45          1           0        1.190740    1.124543   -1.535719
     46          7           0        2.184226    1.185386   -1.362510
     47          8           0        1.745943    2.404617    0.502574
     48          6           0        2.558031    1.885183   -0.242655
     49          1           0        5.856687    1.472365   -0.625546
     50          6           0        4.807333    1.354208   -0.892441
     51          6           0        4.367755    2.691437    1.156379
     52          7           0        3.920597    1.953718   -0.028340
     53          1           0        6.090701   -1.575940    3.545253
     54          1           0        4.766634   -0.625684    3.622354
     55          1           0        6.196085    0.003496    3.148133
     56          1           0        2.247056   -2.065485   -2.783428
     57          1           0        3.949149   -2.164242   -2.726723
     58          7           0        3.088314   -1.987102   -2.248382
     59          6           0        3.064392   -1.660896   -0.954478
     60          6           0        4.032808   -1.192714    1.167957
     61          7           0        2.862096   -0.960387    1.784286
     62          1           0        0.858716   -0.935736    1.352436
     63          6           0        1.849077   -1.106783    0.932667
     64          7           0        1.870970   -1.433453   -0.363627
     65          1           0        7.238000   -1.482744    0.859987
     66          6           0        6.159720   -1.451028    0.701090
     67          7           0        5.567246   -1.698345   -0.441487
     68          6           0        4.218380   -1.538034   -0.159397
     69          6           0        5.611757   -0.807659    3.120575
     70          7           0        5.291405   -1.138175    1.718384
 ---------------------------------------------------------------------

 SCF Done:  E(RwB97XD) =  -2048.71016230     A.U. after   15 cycles

 The electronic state is 1-A.
 Alpha  occ. eigenvalues --  -19.25640 -19.21673 -19.20824 -14.52350 -14.51784
 Alpha  occ. eigenvalues --  -14.49090 -14.49070 -14.47663 -14.47072 -14.46810
 Alpha  occ. eigenvalues --  -14.45750 -14.44529 -14.43387 -14.43083 -14.42282
 Alpha  occ. eigenvalues --  -14.42174 -14.41429 -14.41142 -14.40935 -14.40502
 Alpha  occ. eigenvalues --  -10.45240 -10.41383 -10.39938 -10.38452 -10.38312
 Alpha  occ. eigenvalues --  -10.37311 -10.37245 -10.36243 -10.35646 -10.35281
 Alpha  occ. eigenvalues --  -10.34880 -10.34553 -10.34183 -10.33626 -10.33556
 Alpha  occ. eigenvalues --  -10.33501 -10.33347 -10.31578 -10.31554 -10.31408
 Alpha  occ. eigenvalues --  -10.30600 -10.28745 -10.28292  -1.19254  -1.14445
 Alpha  occ. eigenvalues --   -1.13485  -1.13393  -1.11606  -1.10822  -1.09224
 Alpha  occ. eigenvalues --   -1.08745  -1.07975  -1.05271  -1.03595  -1.02417
 Alpha  occ. eigenvalues --   -1.00606  -1.00042  -0.99898  -0.98706  -0.97207
 Alpha  occ. eigenvalues --   -0.96797  -0.95680  -0.92898  -0.90816  -0.86794
 Alpha  occ. eigenvalues --   -0.85245  -0.84441  -0.84178  -0.83602  -0.82897
 Alpha  occ. eigenvalues --   -0.82615  -0.78756  -0.76035  -0.74852  -0.73913
 Alpha  occ. eigenvalues --   -0.73786  -0.73161  -0.73137  -0.71283  -0.69331
 Alpha  occ. eigenvalues --   -0.67571  -0.66535  -0.66379  -0.65788  -0.64552
 Alpha  occ. eigenvalues --   -0.63895  -0.63172  -0.62864  -0.62756  -0.61927
 Alpha  occ. eigenvalues --   -0.60641  -0.60457  -0.59565  -0.59291  -0.58599
 Alpha  occ. eigenvalues --   -0.58530  -0.58452  -0.57704  -0.56770  -0.56245
 Alpha  occ. eigenvalues --   -0.55948  -0.55573  -0.55403  -0.54660  -0.54309
 Alpha  occ. eigenvalues --   -0.53896  -0.53826  -0.53183  -0.52868  -0.52339
 Alpha  occ. eigenvalues --   -0.52280  -0.52070  -0.51973  -0.51137  -0.50532
 Alpha  occ. eigenvalues --   -0.50459  -0.50179  -0.49539  -0.49359  -0.49062
 Alpha  occ. eigenvalues --   -0.48863  -0.48565  -0.47938  -0.47565  -0.47201
 Alpha  occ. eigenvalues --   -0.46996  -0.46268  -0.44934  -0.43568  -0.42322
 Alpha  occ. eigenvalues --   -0.41268  -0.39857  -0.39338  -0.38145  -0.37591
 Alpha  occ. eigenvalues --   -0.37404  -0.37066  -0.36554  -0.35481  -0.34669
 Alpha  occ. eigenvalues --   -0.33880  -0.33718  -0.33596  -0.33299  -0.32938
 Alpha  occ. eigenvalues --   -0.32882  -0.32324  -0.31937  -0.31637  -0.31060
 Alpha  occ. eigenvalues --   -0.30542  -0.27408  -0.26739  -0.24800
 Alpha virt. eigenvalues --    0.02252   0.04892   0.07120   0.08211   0.08942
 Alpha virt. eigenvalues --    0.09344   0.09679   0.10886   0.11180   0.11634
 Alpha virt. eigenvalues --    0.12685   0.13964   0.14176   0.14462   0.15198

 Mulliken charges:
               1
     1  N   -0.306190
     2  C    0.179990
     3  C    0.036971
     4  N   -0.229647
     5  C    0.116430
     6  H    0.022671
     7  N   -0.293820
     8  C    0.135065
     9  H    0.011884
    10  N   -0.288723
    11  C    0.244036
    12  C    0.087195
    13  N   -0.039767
    14  H    0.116147
    15  H    0.088111
    16  H    0.027517
    17  H    0.035527
    18  H    0.017763
    19  N   -0.306713
    20  C    0.258785
    21  C    0.183537
    22  N   -0.124953
    23  H    0.117419
    24  H    0.119528
    25  N   -0.311199
    26  C    0.250310
    27  N   -0.147600
    28  H    0.120026
    29  C    0.193265
    30  O   -0.329957
    31  C   -0.024048
    32  N   -0.210005
    33  C    0.125247
    34  H    0.019125
    35  H    0.014427
    36  H    0.033111
    37  H    0.026170
    38  H    0.049587
    39  H    0.059511
    40  H    0.077458
    41  H    0.022720
    42  C   -0.082129
    43  O   -0.288309
    44  C    0.153855
    45  H    0.128597
    46  N   -0.101009
    47  O   -0.351675
    48  C    0.343666
    49  H    0.042577
    50  C    0.179015
    51  C    0.044985
    52  N   -0.279346
    53  H    0.034911
    54  H    0.040890
    55  H    0.024444
    56  H    0.126778
    57  H    0.110606
    58  N    0.003712
    59  C    0.026140
    60  C    0.231880
    61  N   -0.271689
    62  H    0.027660
    63  C    0.156283
    64  N   -0.291537
    65  H    0.033319
    66  C    0.117396
    67  N   -0.249677
    68  C    0.043271
    69  C    0.177295
    70  N   -0.308819
 Sum of Mulliken charges =  -0.00000

 Dipole moment (field-independent basis, Debye):
    X=              4.2825    Y=              3.6389    Z=              6.6173  Tot=              8.6816
 Quadrupole moment (field-independent basis, Debye-Ang):
   XX=           -145.6395   YY=           -236.8001   ZZ=           -246.8465
   XY=              6.6852   XZ=             11.6755   YZ=             16.7203

 Normal termination of Gaussian 16 at Thu Jan 25 15:32:49 2018.
