 Gaussian 16, Revision A.03,
 Gaussian 16:  EM64L-G16RevA.03 25-Dec-2016

 ---------------------------------------
 #p wb97xd/cc-pvdz sp scf=(maxcycles=20)
 ---------------------------------------

 ------------------
 Base pair stacking
 ------------------
 Symbolic Z-matrix:
 Charge =  0 Multiplicity = 1

                         Standard orientation:
 ---------------------------------------------------------------------
 Center     Atomic      Atomic             Coordinates (Angstroms)
 Number     Number       Type             X           Y           Z
 ---------------------------------------------------------------------
      1          7           0        5.103847   -0.800587   -1.451194
      2          6           0        6.356152   -0.067720   -1.720716
      3          6           0        2.981961   -1.336871   -1.233640
      4          7           0        3.706207   -2.461205   -0.864756
      5          6           0        4.955579   -2.093112   -1.010584
      6          1           0        5.817197   -2.730283   -0.809148
      7          7           0        1.210413    0.146661   -1.706611
      8          6           0        2.148464    1.044030   -2.026592
      9          1           0        1.773073    2.014240   -2.349118
     10          7           0        3.474358    0.923403   -2.008068
     11          6           0        3.829794   -0.305254   -1.597607
     12          6           0        1.600272   -1.080341   -1.297286
     13          7           0        0.665381   -1.977475   -0.977435
     14          1           0        0.908243   -2.898029   -0.669505
     15          1           0       -0.309113   -1.760133   -1.034670
     16          1           0        6.876476   -0.543675   -2.429876
     17          1           0        6.141384    0.857924   -2.030848
     18          1           0        6.902771   -0.018927   -0.884762
     19          7           0        5.141425    0.571977    1.083339
     20          6           0        3.824312    0.938333    0.945306
     21          6           0        6.296099    1.318360    0.544512
     22          7           0        1.425897    3.143798   -0.256881
     23          1           0        0.430079    3.229854   -0.243236
     24          1           0        1.936680    3.859697   -0.733649
     25          7           0        3.367344    2.032901    0.299435
     26          6           0        2.049226    2.114978    0.337180
     27          7           0        1.238792    1.196459    0.959294
     28          1           0        0.240812    1.339767    0.937693
     29          6           0        1.687186    0.062828    1.629880
     30          8           0        0.871649   -0.703117    2.158030
     31          6           0        3.101219   -0.038954    1.597882
     32          7           0        3.947345   -0.999515    2.134799
     33          6           0        5.144536   -0.596505    1.805348
     34          1           0        6.067790   -1.115889    2.064406
     35          1           0        6.803173    0.737589   -0.091402
     36          1           0        5.969892    2.131324    0.063933
     37          1           0        6.896190    1.594237    1.294578
     38          1           0       -4.651852    2.279070   -0.078360
     39          1           0       -4.641362    2.967576    1.543518
     40          1           0       -3.186102    3.033709    0.548924
     41          1           0       -4.863794   -1.725266    2.580016
     42          6           0       -4.130290   -0.984742    2.260919
     43          8           0       -2.257440   -2.329186    2.819535
     44          6           0       -2.735958   -1.284289    2.379060
     45          1           0       -0.900989   -0.454459    2.014921
     46          7           0       -1.893749   -0.279627    1.947114
     47          8           0       -1.435356    1.766664    1.075479
     48          6           0       -2.256171    0.939677    1.431852
     49          1           0       -5.562467    0.472438    1.651591
     50          6           0       -4.514767    0.195952    1.762181
     51          6           0       -4.053145    2.443213    0.805204
     52          7           0       -3.617973    1.154044    1.349656
     53          1           0       -6.334289    2.398997   -2.535291
     54          1           0       -5.029459    2.805021   -1.643844
     55          1           0       -6.477688    2.593728   -0.921305
     56          1           0       -2.562667   -3.703148   -0.636798
     57          1           0       -4.261472   -3.677864   -0.790244
     58          7           0       -3.398463   -3.171687   -0.775191
     59          6           0       -3.364777   -1.846848   -0.932755
     60          6           0       -4.315479    0.306932   -1.277914
     61          7           0       -3.142064    0.960321   -1.253222
     62          1           0       -1.145338    0.556858   -1.027576
     63          6           0       -2.137200    0.108139   -1.061004
     64          7           0       -2.168888   -1.219112   -0.902964
     65          1           0       -7.517599   -0.069977   -1.515704
     66          6           0       -6.442336   -0.211859   -1.403324
     67          7           0       -5.859521   -1.369952   -1.211394
     68          6           0       -4.510787   -1.055245   -1.130134
     69          6           0       -5.876959    2.275159   -1.654655
     70          7           0       -5.567773    0.846103   -1.454105
 ---------------------------------------------------------------------

 SCF Done:  E(RwB97XD) =  -2048.64391189     A.U. after   16 cycles

 The electronic state is 1-A.
 Alpha  occ. eigenvalues --  -19.25009 -19.21240 -19.20458 -14.52896 -14.51336
 Alpha  occ. eigenvalues --  -14.49512 -14.49015 -14.48048 -14.46991 -14.46595
 Alpha  occ. eigenvalues --  -14.46379 -14.45441 -14.44355 -14.44224 -14.43157
 Alpha  occ. eigenvalues --  -14.41942 -14.41507 -14.41261 -14.41087 -14.41082
 Alpha  occ. eigenvalues --  -10.44563 -10.40740 -10.39932 -10.39301 -10.38047
 Alpha  occ. eigenvalues --  -10.38040 -10.37241 -10.36942 -10.36175 -10.35841
 Alpha  occ. eigenvalues --  -10.34744 -10.34661 -10.34263 -10.33955 -10.33695
 Alpha  occ. eigenvalues --  -10.33560 -10.33488 -10.32652 -10.31652 -10.30375
 Alpha  occ. eigenvalues --  -10.30089 -10.29149 -10.28086  -1.18723  -1.15530
 Alpha  occ. eigenvalues --   -1.13256  -1.12243  -1.12097  -1.10673  -1.09388
 Alpha  occ. eigenvalues --   -1.08593  -1.08419  -1.05847  -1.04883  -1.01726
 Alpha  occ. eigenvalues --   -1.01302  -1.01273  -0.99687  -0.98533  -0.98056
 Alpha  occ. eigenvalues --   -0.96990  -0.96625  -0.93525  -0.90160  -0.87946
 Alpha  occ. eigenvalues --   -0.86672  -0.86654  -0.84105  -0.83761  -0.82682
 Alpha  occ. eigenvalues --   -0.81890  -0.78073  -0.77166  -0.75079  -0.74759
 Alpha  occ. eigenvalues --   -0.73831  -0.73460  -0.72564  -0.71812  -0.70593
 Alpha  occ. eigenvalues --   -0.68079  -0.67012  -0.66973  -0.65848  -0.65222
 Alpha  occ. eigenvalues --   -0.64494  -0.63558  -0.63304  -0.62520  -0.62160
 Alpha  occ. eigenvalues --   -0.62064  -0.61726  -0.61044  -0.60690  -0.59799
 Alpha  occ. eigenvalues --   -0.58910  -0.58752  -0.58325  -0.57670  -0.56556
 Alpha  occ. eigenvalues --   -0.56434  -0.56027  -0.55483  -0.54247  -0.54144
 Alpha  occ. eigenvalues --   -0.53988  -0.53605  -0.53214  -0.53020  -0.52714
 Alpha  occ. eigenvalues --   -0.52506  -0.52106  -0.51550  -0.50853  -0.50667
 Alpha  occ. eigenvalues --   -0.50305  -0.49823  -0.49657  -0.49014  -0.48896
 Alpha  occ. eigenvalues --   -0.48583  -0.48055  -0.47977  -0.47824  -0.47100
 Alpha  occ. eigenvalues --   -0.46877  -0.46430  -0.44188  -0.43298  -0.42999
 Alpha  occ. eigenvalues --   -0.41213  -0.40759  -0.38826  -0.38200  -0.37836
 Alpha  occ. eigenvalues --   -0.37626  -0.37247  -0.36516  -0.35763  -0.35306
 Alpha  occ. eigenvalues --   -0.34852  -0.34537  -0.33910  -0.33726  -0.32754
 Alpha  occ. eigenvalues --   -0.32332  -0.32175  -0.31822  -0.31530  -0.31026
 Alpha  occ. eigenvalues --   -0.29788  -0.29438  -0.27839  -0.23748
 Alpha virt. eigenvalues --    0.02849   0.04580   0.05910   0.06346   0.07392
 Alpha virt. eigenvalues --    0.09868   0.10498   0.10606   0.11553   0.12186
 Alpha virt. eigenvalues --    0.12247   0.13755   0.14142   0.14941   0.15109

 Mulliken charges:
               1
     1  N   -0.304483
     2  C    0.233644
     3  C    0.075560
     4  N   -0.239608
     5  C    0.127620
     6  H    0.025687
     7  N   -0.275858
     8  C    0.129281
     9  H   -0.004841
    10  N   -0.245519
    11  C    0.204163
    12  C    0.056177
    13  N   -0.042392
    14  H    0.111693
    15  H    0.085647
    16  H    0.018819
    17  H    0.025283
    18  H   -0.000914
    19  N   -0.291569
    20  C    0.208562
    21  C    0.198165
    22  N   -0.095686
    23  H    0.119184
    24  H    0.122203
    25  N   -0.247309
    26  C    0.149320
    27  N   -0.099158
    28  H    0.119794
    29  C    0.157305
    30  O   -0.320992
    31  C    0.018564
    32  N   -0.210964
    33  C    0.106554
    34  H    0.018863
    35  H   -0.014933
    36  H    0.034779
    37  H    0.018039
    38  H   -0.032089
    39  H    0.048158
    40  H    0.078278
    41  H    0.023343
    42  C   -0.095916
    43  O   -0.269763
    44  C    0.167205
    45  H    0.128296
    46  N   -0.103274
    47  O   -0.342460
    48  C    0.305116
    49  H    0.039575
    50  C    0.159768
    51  C    0.091966
    52  N   -0.261920
    53  H    0.026515
    54  H    0.048338
    55  H    0.023148
    56  H    0.123332
    57  H    0.120699
    58  N   -0.057264
    59  C    0.112632
    60  C    0.215549
    61  N   -0.278750
    62  H    0.014534
    63  C    0.175695
    64  N   -0.301875
    65  H    0.038166
    66  C    0.127492
    67  N   -0.250689
    68  C    0.049275
    69  C    0.226776
    70  N   -0.320536
 Sum of Mulliken charges =  -0.00000

 Dipole moment (field-independent basis, Debye):
    X=             -4.3066    Y=              6.4303    Z=             -5.0747  Tot=              9.2546
 Quadrupole moment (field-independent basis, Debye-Ang):
   XX=           -145.3106   YY=           -226.4885   ZZ=           -265.9284
   XY=            -11.8932   XZ=             -1.1190   YZ=              9.3773

 Normal termination of Gaussian 16 at Thu Jan 25 11:23:58 2018.
