 Gaussian 16, Revision A.03,
 Gaussian 16:  EM64L-G16RevA.03 25-Dec-2016

 ---------------------------------------
 #p wb97xd/cc-pvdz sp scf=(maxcycles=20)
 ---------------------------------------

 ------------------
 Base pair stacking
 ------------------
 Symbolic Z-matrix:
 Charge =  0 Multiplicity = 1

                         Standard orientation:
 ---------------------------------------------------------------------
 Center     Atomic      Atomic             Coordinates (Angstroms)
 Number     Number       Type             X           Y           Z
 ---------------------------------------------------------------------
      1          7           0       -6.216369    0.679851   -0.687892
      2          6           0       -7.447926   -0.108163   -0.888674
      3          6           0       -4.115872    1.330207   -0.640365
      4          7           0       -4.858366    2.377385   -0.114190
      5          6           0       -6.094119    1.943658   -0.163891
      6          1           0       -6.963755    2.509516    0.171507
      7          7           0       -2.324449   -0.001631   -1.401922
      8          6           0       -3.240146   -0.930118   -1.696860
      9          1           0       -2.847731   -1.849020   -2.130331
     10          7           0       -4.561590   -0.894105   -1.537493
     11          6           0       -4.939196    0.276908   -0.998447
     12          6           0       -2.736271    1.165673   -0.860723
     13          7           0       -1.823716    2.093742   -0.565619
     14          1           0       -2.083305    2.972533   -0.163673
     15          1           0       -0.849985    1.942338   -0.736133
     16          1           0       -8.064180    0.384694   -1.503094
     17          1           0       -7.216173   -0.993615   -1.290413
     18          1           0       -7.901480   -0.251586   -0.009064
     19          7           0       -3.987336   -1.035865    1.304185
     20          6           0       -2.674500   -1.295109    0.992267
     21          6           0       -5.153596   -1.755868    0.754522
     22          7           0       -0.305949   -3.132210   -0.761800
     23          1           0        0.689385   -3.158797   -0.850426
     24          1           0       -0.827397   -3.792975   -1.302348
     25          7           0       -2.232910   -2.243509    0.138118
     26          6           0       -0.914970   -2.250462    0.045361
     27          7           0       -0.090731   -1.394919    0.735440
     28          1           0        0.905945   -1.472198    0.602625
     29          6           0       -0.523182   -0.411429    1.619506
     30          8           0        0.303975    0.308990    2.191830
     31          6           0       -1.936822   -0.391781    1.729599
     32          7           0       -2.769791    0.418266    2.489128
     33          6           0       -3.973664    0.000816    2.205164
     34          1           0       -4.890156    0.415532    2.626265
     35          1           0       -5.745869   -1.113334    0.269577
     36          1           0       -4.838824   -2.460930    0.120430
     37          1           0       -5.664952   -2.183191    1.499327
     38          1           0        5.714731   -1.939854   -0.981523
     39          1           0        5.892917   -2.876462    0.500256
     40          1           0        4.352621   -2.871978   -0.359302
     41          1           0        6.000753    1.597060    2.267321
     42          6           0        5.274264    0.873490    1.897324
     43          8           0        3.405097    1.996122    2.831682
     44          6           0        3.885764    1.065374    2.185573
     45          1           0        2.063866    0.194157    1.853971
     46          7           0        3.052293    0.092829    1.671062
     47          8           0        2.605260   -1.813118    0.520099
     48          6           0        3.418238   -1.004960    0.933163
     49          1           0        6.705519   -0.378918    0.933588
     50          6           0        5.661970   -0.187541    1.180042
     51          6           0        5.212621   -2.278185   -0.087387
     52          7           0        4.773994   -1.120591    0.697050
     53          1           0        5.205532   -1.712788   -3.149377
     54          1           0        4.024266   -2.263125   -2.167621
     55          1           0        5.525845   -2.014991   -1.577918
     56          1           0        1.323070    3.988063   -0.412168
     57          1           0        2.995652    4.080008   -0.734863
     58          7           0        2.167813    3.521236   -0.674137
     59          6           0        2.190453    2.211833   -0.931290
     60          6           0        3.216570    0.152348   -1.537352
     61          7           0        2.089504   -0.573016   -1.447861
     62          1           0        0.107862   -0.312356   -0.994257
     63          6           0        1.064910    0.198595   -1.090501
     64          7           0        1.040200    1.510232   -0.832490
     65          1           0        6.351389    0.744531   -2.061180
     66          6           0        5.287422    0.810536   -1.831897
     67          7           0        4.665205    1.913000   -1.492620
     68          6           0        3.351383    1.509704   -1.303000
     69          6           0        4.835839   -1.682046   -2.220733
     70          7           0        4.471452   -0.293430   -1.878740
 ---------------------------------------------------------------------

 SCF Done:  E(RwB97XD) =  -2048.43925120     A.U. after   15 cycles

 The electronic state is 1-A.
 Alpha  occ. eigenvalues --  -19.25158 -19.21648 -19.20782 -14.52360 -14.52234
 Alpha  occ. eigenvalues --  -14.50231 -14.48421 -14.47454 -14.47289 -14.46806
 Alpha  occ. eigenvalues --  -14.46786 -14.44958 -14.43748 -14.43679 -14.43261
 Alpha  occ. eigenvalues --  -14.42693 -14.41691 -14.41550 -14.40772 -14.40703
 Alpha  occ. eigenvalues --  -10.44819 -10.41129 -10.39712 -10.39203 -10.38260
 Alpha  occ. eigenvalues --  -10.37619 -10.37456 -10.36707 -10.36486 -10.35288
 Alpha  occ. eigenvalues --  -10.34854 -10.34441 -10.34059 -10.33977 -10.33492
 Alpha  occ. eigenvalues --  -10.33120 -10.32548 -10.32239 -10.32150 -10.30701
 Alpha  occ. eigenvalues --  -10.29587 -10.29247 -10.27981  -1.19271  -1.15090
 Alpha  occ. eigenvalues --   -1.13395  -1.12852  -1.12638  -1.10506  -1.09544
 Alpha  occ. eigenvalues --   -1.08644  -1.08493  -1.06113  -1.04266  -1.03007
 Alpha  occ. eigenvalues --   -1.01765  -1.01319  -0.99814  -0.98605  -0.98368
 Alpha  occ. eigenvalues --   -0.96801  -0.96401  -0.94615  -0.93716  -0.90061
 Alpha  occ. eigenvalues --   -0.86813  -0.85334  -0.83936  -0.83694  -0.82368
 Alpha  occ. eigenvalues --   -0.81973  -0.78724  -0.76629  -0.75016  -0.74704
 Alpha  occ. eigenvalues --   -0.74323  -0.74133  -0.73637  -0.72288  -0.71434
 Alpha  occ. eigenvalues --   -0.69051  -0.67598  -0.67344  -0.66030  -0.65825
 Alpha  occ. eigenvalues --   -0.64431  -0.64093  -0.63834  -0.63119  -0.62728
 Alpha  occ. eigenvalues --   -0.61736  -0.61469  -0.60777  -0.60016  -0.59524
 Alpha  occ. eigenvalues --   -0.59310  -0.58808  -0.58381  -0.57780  -0.56942
 Alpha  occ. eigenvalues --   -0.56400  -0.56050  -0.55538  -0.54972  -0.54580
 Alpha  occ. eigenvalues --   -0.54008  -0.53737  -0.53263  -0.53082  -0.52766
 Alpha  occ. eigenvalues --   -0.52548  -0.51523  -0.51162  -0.50619  -0.50288
 Alpha  occ. eigenvalues --   -0.49851  -0.49740  -0.49470  -0.49139  -0.48798
 Alpha  occ. eigenvalues --   -0.48415  -0.48298  -0.48115  -0.47407  -0.47241
 Alpha  occ. eigenvalues --   -0.46501  -0.46390  -0.45048  -0.42814  -0.41781
 Alpha  occ. eigenvalues --   -0.40373  -0.39373  -0.39250  -0.38358  -0.37257
 Alpha  occ. eigenvalues --   -0.37145  -0.36905  -0.36610  -0.36066  -0.34666
 Alpha  occ. eigenvalues --   -0.34595  -0.34231  -0.33738  -0.33244  -0.32962
 Alpha  occ. eigenvalues --   -0.32745  -0.32430  -0.31821  -0.31359  -0.30636
 Alpha  occ. eigenvalues --   -0.30326  -0.28265  -0.26926  -0.25410
 Alpha virt. eigenvalues --    0.02474   0.05285   0.06218   0.06557   0.08912
 Alpha virt. eigenvalues --    0.09244   0.09707   0.10685   0.11011   0.11679
 Alpha virt. eigenvalues --    0.12623   0.12828   0.14304   0.14601   0.14842

 Mulliken charges:
               1
     1  N   -0.313498
     2  C    0.191609
     3  C    0.075739
     4  N   -0.246818
     5  C    0.118852
     6  H    0.028123
     7  N   -0.273133
     8  C    0.167904
     9  H    0.003433
    10  N   -0.293530
    11  C    0.203717
    12  C    0.063786
    13  N   -0.040316
    14  H    0.108237
    15  H    0.089012
    16  H    0.028669
    17  H    0.042077
    18  H    0.027038
    19  N   -0.288976
    20  C    0.208190
    21  C    0.263901
    22  N   -0.101731
    23  H    0.115380
    24  H    0.117287
    25  N   -0.296606
    26  C    0.213690
    27  N   -0.142015
    28  H    0.129655
    29  C    0.164544
    30  O   -0.320995
    31  C    0.013257
    32  N   -0.221074
    33  C    0.128021
    34  H    0.022001
    35  H   -0.055884
    36  H    0.034746
    37  H    0.006839
    38  H    0.031194
    39  H    0.036953
    40  H    0.059773
    41  H    0.028035
    42  C   -0.080842
    43  O   -0.265416
    44  C    0.173969
    45  H    0.132717
    46  N   -0.120736
    47  O   -0.320530
    48  C    0.310521
    49  H    0.041756
    50  C    0.151297
    51  C    0.080963
    52  N   -0.272897
    53  H    0.008470
    54  H    0.034275
    55  H   -0.039401
    56  H    0.119447
    57  H    0.121197
    58  N   -0.065966
    59  C    0.130933
    60  C    0.192210
    61  N   -0.251443
    62  H    0.039757
    63  C    0.138032
    64  N   -0.305921
    65  H    0.031892
    66  C    0.119588
    67  N   -0.244054
    68  C    0.041291
    69  C    0.278394
    70  N   -0.306590
 Sum of Mulliken charges =  -0.00000

 Dipole moment (field-independent basis, Debye):
    X=              3.7539    Y=             -5.2774    Z=             -6.1872  Tot=              8.9568
 Quadrupole moment (field-independent basis, Debye-Ang):
   XX=           -146.7004   YY=           -224.9379   ZZ=           -266.8887
   XY=            -15.4817   XZ=            -15.2188   YZ=             -2.3050

 Normal termination of Gaussian 16 at Thu Jan 25 15:46:23 2018.
