 Gaussian 16, Revision A.03,
 Gaussian 16:  EM64L-G16RevA.03 25-Dec-2016

 ---------------------------------------
 #p wb97xd/cc-pvdz sp scf=(maxcycles=20)
 ---------------------------------------

 ------------------
 Base pair stacking
 ------------------
 Symbolic Z-matrix:
 Charge =  0 Multiplicity = 1

                         Standard orientation:
 ---------------------------------------------------------------------
 Center     Atomic      Atomic             Coordinates (Angstroms)
 Number     Number       Type             X           Y           Z
 ---------------------------------------------------------------------
      1          7           0       -6.984420    0.388594   -0.293642
      2          6           0       -8.187463   -0.462480   -0.373379
      3          6           0       -4.915418    1.126876   -0.400734
      4          7           0       -5.678285    2.179068    0.084702
      5          6           0       -6.894258    1.692169    0.129796
      6          1           0       -7.771453    2.245221    0.466820
      7          7           0       -3.104300   -0.183284   -1.153237
      8          6           0       -3.990349   -1.168343   -1.332597
      9          1           0       -3.578142   -2.100225   -1.717237
     10          7           0       -5.302955   -1.175066   -1.109208
     11          6           0       -5.706684    0.016543   -0.638571
     12          6           0       -3.541902    1.003372   -0.678451
     13          7           0       -2.658950    1.987897   -0.498736
     14          1           0       -2.938327    2.882926   -0.149337
     15          1           0       -1.688652    1.864449   -0.707106
     16          1           0       -8.853870   -0.043062   -0.989966
     17          1           0       -7.935572   -1.365288   -0.720675
     18          1           0       -8.591632   -0.558004    0.536299
     19          7           0       -3.133030   -1.118947    1.449741
     20          6           0       -1.826234   -1.346443    1.091149
     21          6           0       -4.290630   -1.925775    1.014226
     22          7           0        0.536123   -3.210762   -0.642435
     23          1           0        1.526281   -3.202794   -0.779441
     24          1           0        0.019715   -3.931249   -1.106044
     25          7           0       -1.383703   -2.337309    0.287147
     26          6           0       -0.072713   -2.296756    0.128162
     27          7           0        0.744199   -1.358473    0.711061
     28          1           0        1.735869   -1.404288    0.533673
     29          6           0        0.310638   -0.330029    1.541840
     30          8           0        1.130931    0.464895    2.017175
     31          6           0       -1.095590   -0.360583    1.722039
     32          7           0       -1.926950    0.469150    2.461823
     33          6           0       -3.123011   -0.017825    2.270764
     34          1           0       -4.036088    0.389160    2.706575
     35          1           0       -4.933652   -1.346509    0.514436
     36          1           0       -3.975089   -2.662879    0.418095
     37          1           0       -4.746134   -2.316676    1.813297
     38          1           0        6.479760   -1.790639   -1.254897
     39          1           0        6.770371   -2.605092    0.280310
     40          1           0        5.192173   -2.728835   -0.497734
     41          1           0        6.761135    1.989197    1.708262
     42          6           0        6.051090    1.210483    1.429553
     43          8           0        4.180048    2.321987    2.373411
     44          6           0        4.670713    1.365970    1.773347
     45          1           0        2.876077    0.397786    1.599430
     46          7           0        3.858216    0.323913    1.374315
     47          8           0        3.442930   -1.679965    0.389839
     48          6           0        4.237518   -0.810166    0.700865
     49          1           0        7.489596   -0.050622    0.488197
     50          6           0        6.451456    0.115477    0.772829
     51          6           0        6.036596   -2.081261   -0.314039
     52          7           0        5.584301   -0.887115    0.405098
     53          1           0        4.403044   -1.708439   -3.152241
     54          1           0        3.295910   -2.231768   -2.074054
     55          1           0        4.811248   -1.878214   -1.581267
     56          1           0        0.403198    4.016744   -0.644428
     57          1           0        2.052648    4.153186   -1.057720
     58          7           0        1.254614    3.566843   -0.914286
     59          6           0        1.323814    2.243874   -1.075970
     60          6           0        2.411412    0.188809   -1.581517
     61          7           0        1.323667   -0.573710   -1.382035
     62          1           0       -0.643788   -0.361774   -0.848361
     63          6           0        0.283623    0.179599   -1.030250
     64          7           0        0.212307    1.504774   -0.867784
     65          1           0        5.487862    0.868937   -2.306127
     66          6           0        4.434157    0.907974   -2.028391
     67          7           0        3.779904    2.006172   -1.739272
     68          6           0        2.496091    1.564345   -1.454063
     69          6           0        4.077083   -1.623298   -2.210706
     70          7           0        3.667347   -0.229141   -1.952905
 ---------------------------------------------------------------------

 SCF Done:  E(RwB97XD) =  -2048.61942651     A.U. after   15 cycles

 The electronic state is 1-A.
 Alpha  occ. eigenvalues --  -19.26250 -19.22167 -19.20405 -14.53271 -14.50921
 Alpha  occ. eigenvalues --  -14.50690 -14.48198 -14.47640 -14.46687 -14.45964
 Alpha  occ. eigenvalues --  -14.45836 -14.43891 -14.43873 -14.43331 -14.43089
 Alpha  occ. eigenvalues --  -14.42470 -14.42085 -14.41783 -14.41667 -14.40237
 Alpha  occ. eigenvalues --  -10.46039 -10.40462 -10.40278 -10.38445 -10.38159
 Alpha  occ. eigenvalues --  -10.37780 -10.37216 -10.36640 -10.36596 -10.35965
 Alpha  occ. eigenvalues --  -10.35684 -10.35095 -10.34681 -10.34520 -10.33684
 Alpha  occ. eigenvalues --  -10.32700 -10.32481 -10.31940 -10.31525 -10.31007
 Alpha  occ. eigenvalues --  -10.30557 -10.27690 -10.27661  -1.20251  -1.13818
 Alpha  occ. eigenvalues --   -1.13392  -1.13204  -1.12988  -1.10199  -1.10030
 Alpha  occ. eigenvalues --   -1.08320  -1.07800  -1.07019  -1.03538  -1.02989
 Alpha  occ. eigenvalues --   -1.02649  -0.99537  -0.99200  -0.98821  -0.98159
 Alpha  occ. eigenvalues --   -0.95901  -0.95384  -0.94669  -0.91849  -0.87022
 Alpha  occ. eigenvalues --   -0.85937  -0.85806  -0.84089  -0.83747  -0.83433
 Alpha  occ. eigenvalues --   -0.81306  -0.79478  -0.75832  -0.74811  -0.74227
 Alpha  occ. eigenvalues --   -0.73882  -0.73661  -0.73162  -0.72954  -0.69340
 Alpha  occ. eigenvalues --   -0.68172  -0.67251  -0.66786  -0.66079  -0.65089
 Alpha  occ. eigenvalues --   -0.64570  -0.63570  -0.63111  -0.62893  -0.62251
 Alpha  occ. eigenvalues --   -0.61862  -0.61203  -0.60099  -0.59760  -0.59190
 Alpha  occ. eigenvalues --   -0.58843  -0.58150  -0.57832  -0.57246  -0.57133
 Alpha  occ. eigenvalues --   -0.56875  -0.56341  -0.56230  -0.55304  -0.54816
 Alpha  occ. eigenvalues --   -0.54059  -0.53589  -0.53323  -0.53071  -0.52396
 Alpha  occ. eigenvalues --   -0.51996  -0.51853  -0.51555  -0.50859  -0.50736
 Alpha  occ. eigenvalues --   -0.50594  -0.49963  -0.49538  -0.48946  -0.48605
 Alpha  occ. eigenvalues --   -0.48414  -0.48242  -0.47848  -0.47764  -0.47136
 Alpha  occ. eigenvalues --   -0.46996  -0.45908  -0.45454  -0.44437  -0.42597
 Alpha  occ. eigenvalues --   -0.40595  -0.39889  -0.39549  -0.39044  -0.37142
 Alpha  occ. eigenvalues --   -0.36913  -0.36393  -0.36062  -0.35691  -0.35358
 Alpha  occ. eigenvalues --   -0.35009  -0.34236  -0.33658  -0.33359  -0.33268
 Alpha  occ. eigenvalues --   -0.32609  -0.32379  -0.32170  -0.31952  -0.31498
 Alpha  occ. eigenvalues --   -0.31041  -0.27397  -0.26740  -0.25055
 Alpha virt. eigenvalues --    0.02640   0.05048   0.05693   0.07803   0.08376
 Alpha virt. eigenvalues --    0.08573   0.09859   0.10534   0.11119   0.11854
 Alpha virt. eigenvalues --    0.12094   0.13034   0.14579   0.14663   0.15094

 Mulliken charges:
               1
     1  N   -0.310847
     2  C    0.179984
     3  C    0.051007
     4  N   -0.254083
     5  C    0.133982
     6  H    0.032234
     7  N   -0.243466
     8  C    0.075659
     9  H    0.026090
    10  N   -0.283217
    11  C    0.223279
    12  C    0.074501
    13  N   -0.032112
    14  H    0.107312
    15  H    0.089374
    16  H    0.030669
    17  H    0.036895
    18  H    0.028546
    19  N   -0.293226
    20  C    0.221798
    21  C    0.260923
    22  N   -0.084043
    23  H    0.108180
    24  H    0.111326
    25  N   -0.277262
    26  C    0.184096
    27  N   -0.108027
    28  H    0.131779
    29  C    0.126931
    30  O   -0.324181
    31  C    0.029041
    32  N   -0.226280
    33  C    0.111159
    34  H    0.023081
    35  H   -0.003522
    36  H    0.016741
    37  H    0.002628
    38  H    0.046376
    39  H    0.053396
    40  H    0.077627
    41  H    0.034400
    42  C   -0.086718
    43  O   -0.258770
    44  C    0.186195
    45  H    0.132442
    46  N   -0.120147
    47  O   -0.349125
    48  C    0.334776
    49  H    0.046405
    50  C    0.150645
    51  C    0.116263
    52  N   -0.297739
    53  H    0.027508
    54  H    0.021972
    55  H   -0.107515
    56  H    0.115017
    57  H    0.121429
    58  N   -0.070194
    59  C    0.139006
    60  C    0.211595
    61  N   -0.300535
    62  H    0.042087
    63  C    0.176958
    64  N   -0.309433
    65  H    0.021301
    66  C    0.113048
    67  N   -0.251115
    68  C    0.040025
    69  C    0.258644
    70  N   -0.292773
 Sum of Mulliken charges =  -0.00000

 Dipole moment (field-independent basis, Debye):
    X=              3.4041    Y=             -5.2251    Z=             -5.6061  Tot=              8.3856
 Quadrupole moment (field-independent basis, Debye-Ang):
   XX=           -137.8921   YY=           -227.2660   ZZ=           -262.5286
   XY=            -21.6095   XZ=            -21.0083   YZ=             -4.1415

 Normal termination of Gaussian 16 at Thu Jan 25 18:18:06 2018.
