 Gaussian 16, Revision A.03,
 Gaussian 16:  EM64L-G16RevA.03 25-Dec-2016

 ---------------------------------------
 #p wb97xd/cc-pvdz sp scf=(maxcycles=20)
 ---------------------------------------

 ------------------
 Base pair stacking
 ------------------
 Symbolic Z-matrix:
 Charge =  0 Multiplicity = 1

                         Standard orientation:
 ---------------------------------------------------------------------
 Center     Atomic      Atomic             Coordinates (Angstroms)
 Number     Number       Type             X           Y           Z
 ---------------------------------------------------------------------
      1          7           0        5.077093   -1.950091   -0.486910
      2          6           0        6.318810   -1.868350   -1.280294
      3          6           0        2.964894   -1.946528    0.126215
      4          7           0        3.701133   -2.211000    1.271953
      5          6           0        4.944191   -2.202557    0.856719
      6          1           0        5.811877   -2.376151    1.493835
      7          7           0        1.178826   -1.554681   -1.363539
      8          6           0        2.104865   -1.423294   -2.318938
      9          1           0        1.718723   -1.208194   -3.314362
     10          7           0        3.430045   -1.517279   -2.229722
     11          6           0        3.799288   -1.783371   -0.965893
     12          6           0        1.582412   -1.822241   -0.102354
     13          7           0        0.659527   -1.953742    0.852711
     14          1           0        0.912768   -2.151874    1.800257
     15          1           0       -0.315945   -1.858755    0.653765
     16          1           0        6.807509   -2.739318   -1.227732
     17          1           0        6.093552   -1.670669   -2.233872
     18          1           0        6.900332   -1.139484   -0.918951
     19          7           0        5.160085    1.422160    0.362300
     20          6           0        3.844078    1.629945    0.026132
     21          6           0        6.319699    1.726048   -0.500055
     22          7           0        1.456201    2.708732   -2.253332
     23          1           0        0.460161    2.778901   -2.300565
     24          1           0        1.971301    3.018773   -3.052872
     25          7           0        3.392858    2.142519   -1.139078
     26          6           0        2.074266    2.220915   -1.167091
     27          7           0        1.258179    1.827938   -0.134085
     28          1           0        0.260296    1.924243   -0.243270
     29          6           0        1.700610    1.297846    1.073846
     30          8           0        0.880265    0.974494    1.941724
     31          6           0        3.115072    1.207492    1.118783
     32          7           0        3.956477    0.743823    2.120760
     33          6           0        5.156726    0.890062    1.628598
     34          1           0        6.077753    0.624846    2.148838
     35          1           0        6.834860    0.887977   -0.676261
     36          1           0        5.997767    2.106334   -1.366078
     37          1           0        6.910786    2.390843   -0.044555
     38          1           0       -4.621876    2.060668   -1.656965
     39          1           0       -4.630908    3.562963   -0.736269
     40          1           0       -3.164518    3.050759   -1.572151
     41          1           0       -4.858065    0.342314    2.830575
     42          6           0       -4.122084    0.765697    2.146978
     43          8           0       -2.253701    0.010147    3.398126
     44          6           0       -2.728749    0.601350    2.428803
     45          1           0       -0.891009    1.079947    1.665929
     46          7           0       -1.883185    1.175134    1.500876
     47          8           0       -1.417971    2.338650   -0.393062
     48          6           0       -2.241554    1.865822    0.370362
     49          1           0       -5.549425    1.587051    0.792754
     50          6           0       -4.502640    1.434382    1.052139
     51          6           0       -4.033529    2.711997   -1.027924
     52          7           0       -3.602643    1.981940    0.167525
     53          1           0       -6.388250   -0.871538   -3.589523
     54          1           0       -5.045920    0.053715   -3.525129
     55          1           0       -6.462926    0.630968   -2.956821
     56          1           0       -2.555746   -2.390753    2.580520
     57          1           0       -4.259437   -2.446940    2.514265
     58          7           0       -3.395245   -2.215805    2.065966
     59          6           0       -3.364797   -1.697357    0.836553
     60          6           0       -4.323618   -0.893621   -1.187407
     61          7           0       -3.148518   -0.592947   -1.764599
     62          1           0       -1.145106   -0.672802   -1.339669
     63          6           0       -2.138659   -0.886520   -0.947954
     64          7           0       -2.167093   -1.405826    0.283744
     65          1           0       -7.533892   -1.165247   -0.918032
     66          6           0       -6.455221   -1.178825   -0.759200
     67          7           0       -5.867832   -1.608215    0.330888
     68          6           0       -4.516056   -1.432927    0.072604
     69          6           0       -5.894492   -0.186060   -3.054426
     70          7           0       -5.580833   -0.731854   -1.719622
 ---------------------------------------------------------------------

 SCF Done:  E(RwB97XD) =  -2048.73960371     A.U. after   15 cycles

 The electronic state is 1-A.
 Alpha  occ. eigenvalues --  -19.25482 -19.21702 -19.20744 -14.52203 -14.52030
 Alpha  occ. eigenvalues --  -14.49158 -14.49136 -14.47341 -14.47085 -14.46955
 Alpha  occ. eigenvalues --  -14.46729 -14.44941 -14.43986 -14.43794 -14.42548
 Alpha  occ. eigenvalues --  -14.42099 -14.41444 -14.41320 -14.41068 -14.40754
 Alpha  occ. eigenvalues --  -10.45027 -10.41313 -10.39787 -10.39227 -10.38380
 Alpha  occ. eigenvalues --  -10.37565 -10.37224 -10.36681 -10.35827 -10.35431
 Alpha  occ. eigenvalues --  -10.34939 -10.34567 -10.34276 -10.33895 -10.33724
 Alpha  occ. eigenvalues --  -10.33590 -10.33509 -10.32078 -10.31680 -10.31561
 Alpha  occ. eigenvalues --  -10.30393 -10.28860 -10.28293  -1.19040  -1.14834
 Alpha  occ. eigenvalues --   -1.13346  -1.12812  -1.11681  -1.10852  -1.08957
 Alpha  occ. eigenvalues --   -1.08724  -1.08655  -1.05465  -1.04201  -1.02120
 Alpha  occ. eigenvalues --   -1.00792  -1.00526  -0.99819  -0.98677  -0.97324
 Alpha  occ. eigenvalues --   -0.96845  -0.96346  -0.93110  -0.90589  -0.87231
 Alpha  occ. eigenvalues --   -0.85651  -0.84597  -0.84209  -0.83314  -0.83067
 Alpha  occ. eigenvalues --   -0.82645  -0.78483  -0.76515  -0.74860  -0.74426
 Alpha  occ. eigenvalues --   -0.73730  -0.73284  -0.72916  -0.71430  -0.69855
 Alpha  occ. eigenvalues --   -0.67541  -0.66691  -0.66286  -0.66115  -0.64544
 Alpha  occ. eigenvalues --   -0.63753  -0.63602  -0.63067  -0.62722  -0.61897
 Alpha  occ. eigenvalues --   -0.60726  -0.60661  -0.59976  -0.59178  -0.59074
 Alpha  occ. eigenvalues --   -0.58653  -0.58463  -0.58395  -0.56949  -0.55867
 Alpha  occ. eigenvalues --   -0.55819  -0.55728  -0.54986  -0.54735  -0.54264
 Alpha  occ. eigenvalues --   -0.54128  -0.53685  -0.53326  -0.53166  -0.52621
 Alpha  occ. eigenvalues --   -0.52390  -0.52198  -0.52023  -0.51077  -0.50691
 Alpha  occ. eigenvalues --   -0.50379  -0.49853  -0.49513  -0.49171  -0.49135
 Alpha  occ. eigenvalues --   -0.48975  -0.48454  -0.48194  -0.47384  -0.47354
 Alpha  occ. eigenvalues --   -0.47276  -0.46261  -0.44830  -0.44008  -0.43508
 Alpha  occ. eigenvalues --   -0.41364  -0.40313  -0.39149  -0.37741  -0.37584
 Alpha  occ. eigenvalues --   -0.37408  -0.37158  -0.37041  -0.35770  -0.34695
 Alpha  occ. eigenvalues --   -0.34161  -0.33998  -0.33658  -0.33470  -0.33113
 Alpha  occ. eigenvalues --   -0.32767  -0.32329  -0.31933  -0.31759  -0.31048
 Alpha  occ. eigenvalues --   -0.30713  -0.28955  -0.27024  -0.24686
 Alpha virt. eigenvalues --    0.02672   0.04803   0.06829   0.07052   0.08738
 Alpha virt. eigenvalues --    0.09634   0.09878   0.10941   0.11076   0.11671
 Alpha virt. eigenvalues --    0.12644   0.13940   0.14284   0.14396   0.15397

 Mulliken charges:
               1
     1  N   -0.304135
     2  C    0.185524
     3  C    0.043355
     4  N   -0.231961
     5  C    0.127488
     6  H    0.023807
     7  N   -0.291363
     8  C    0.131031
     9  H    0.009858
    10  N   -0.283539
    11  C    0.242507
    12  C    0.076083
    13  N   -0.040927
    14  H    0.116069
    15  H    0.086618
    16  H    0.027550
    17  H    0.035854
    18  H    0.011117
    19  N   -0.302230
    20  C    0.253647
    21  C    0.188891
    22  N   -0.123906
    23  H    0.117839
    24  H    0.119579
    25  N   -0.306798
    26  C    0.245940
    27  N   -0.141488
    28  H    0.121792
    29  C    0.183119
    30  O   -0.324770
    31  C   -0.014200
    32  N   -0.208500
    33  C    0.112010
    34  H    0.019661
    35  H    0.000223
    36  H    0.035129
    37  H    0.028048
    38  H    0.041498
    39  H    0.056944
    40  H    0.077279
    41  H    0.020733
    42  C   -0.099752
    43  O   -0.280550
    44  C    0.168831
    45  H    0.126800
    46  N   -0.103665
    47  O   -0.349896
    48  C    0.332604
    49  H    0.043625
    50  C    0.174479
    51  C    0.048977
    52  N   -0.272517
    53  H    0.037024
    54  H    0.042240
    55  H    0.028003
    56  H    0.126115
    57  H    0.115425
    58  N   -0.023939
    59  C    0.053908
    60  C    0.222029
    61  N   -0.267729
    62  H    0.027937
    63  C    0.156623
    64  N   -0.293315
    65  H    0.035985
    66  C    0.123708
    67  N   -0.251777
    68  C    0.047127
    69  C    0.175748
    70  N   -0.309425
 Sum of Mulliken charges =  -0.00000

 Dipole moment (field-independent basis, Debye):
    X=             -4.2705    Y=              3.1794    Z=             -7.0109  Tot=              8.8033
 Quadrupole moment (field-independent basis, Debye-Ang):
   XX=           -146.0187   YY=           -234.7726   ZZ=           -251.1383
   XY=             -9.2709   XZ=              8.0166   YZ=            -17.1171

 Normal termination of Gaussian 16 at Thu Jan 25 07:13:56 2018.
