 Gaussian 16, Revision A.03,
 Gaussian 16:  EM64L-G16RevA.03 25-Dec-2016

 ---------------------------------------
 #p wb97xd/cc-pvdz sp scf=(maxcycles=20)
 ---------------------------------------

 ------------------
 Base pair stacking
 ------------------
 Symbolic Z-matrix:
 Charge =  0 Multiplicity = 1

                         Standard orientation:
 ---------------------------------------------------------------------
 Center     Atomic      Atomic             Coordinates (Angstroms)
 Number     Number       Type             X           Y           Z
 ---------------------------------------------------------------------
      1          7           0       -7.061342   -0.543593    0.333854
      2          6           0       -8.290900    0.161189    0.745531
      3          6           0       -4.970144   -1.200196    0.151889
      4          7           0       -5.698484   -1.972309   -0.741466
      5          6           0       -6.929198   -1.545827   -0.596090
      6          1           0       -7.787873   -1.930669   -1.147018
      7          7           0       -3.202718   -0.276738    1.411407
      8          6           0       -4.119847    0.516662    1.974398
      9          1           0       -3.738027    1.212115    2.720620
     10          7           0       -5.431646    0.579689    1.755050
     11          6           0       -5.796620   -0.315018    0.821927
     12          6           0       -3.601694   -1.166167    0.476095
     13          7           0       -2.687687   -1.959041   -0.087038
     14          1           0       -2.937968   -2.632122   -0.783839
     15          1           0       -1.722130   -1.907288    0.168235
     16          1           0       -8.944685   -0.496880    1.119283
     17          1           0       -8.068321    0.841444    1.443267
     18          1           0       -8.696385    0.618434   -0.045991
     19          7           0       -3.030142    1.626935   -1.421203
     20          6           0       -1.717472    1.790165   -1.049292
     21          6           0       -4.152068    2.486080   -0.992427
     22          7           0        0.714425    3.531646    0.715597
     23          1           0        1.701727    3.475815    0.861783
     24          1           0        0.228559    4.273832    1.177992
     25          7           0       -1.235897    2.755081   -0.236224
     26          6           0        0.070086    2.651278   -0.065239
     27          7           0        0.846871    1.677758   -0.645212
     28          1           0        1.837851    1.675384   -0.458368
     29          6           0        0.372718    0.675004   -1.485164
     30          8           0        1.158683   -0.155977   -1.956831
     31          6           0       -1.028671    0.773462   -1.678309
     32          7           0       -1.891541   -0.012249   -2.429982
     33          6           0       -3.064793    0.530365   -2.247627
     34          1           0       -3.992027    0.169418   -2.693974
     35          1           0       -4.826714    1.935883   -0.501586
     36          1           0       -3.807439    3.204549   -0.389683
     37          1           0       -4.580763    2.901939   -1.793740
     38          1           0        6.577471    1.826694    1.376270
     39          1           0        6.921228    2.633378   -0.152037
     40          1           0        5.343377    2.828733    0.611877
     41          1           0        6.706594   -1.948625   -1.603133
     42          6           0        6.031864   -1.138205   -1.327133
     43          8           0        4.119054   -2.154817   -2.293979
     44          6           0        4.648983   -1.226067   -1.684563
     45          1           0        2.900969   -0.174141   -1.522504
     46          7           0        3.883321   -0.148265   -1.287878
     47          8           0        3.554663    1.868622   -0.297236
     48          6           0        4.309814    0.963317   -0.605222
     49          1           0        7.519806    0.048471   -0.366079
     50          6           0        6.477682   -0.066572   -0.661211
     51          6           0        6.157672    2.142453    0.432803
     52          7           0        5.655839    0.974561   -0.296528
     53          1           0        4.249202    0.478365    3.976742
     54          1           0        3.127811    1.374695    3.201393
     55          1           0        4.654397    1.303422    2.628221
     56          1           0        0.437008   -3.774696   -0.760785
     57          1           0        2.089278   -4.025656   -0.418524
     58          7           0        1.273293   -3.455951   -0.314487
     59          6           0        1.300243   -2.321750    0.388392
     60          6           0        2.321304   -0.639196    1.725620
     61          7           0        1.210260    0.105733    1.848420
     62          1           0       -0.748614    0.082292    1.246014
     63          6           0        0.195206   -0.459146    1.197666
     64          7           0        0.166206   -1.595073    0.493112
     65          1           0        5.416577   -1.473999    2.143409
     66          6           0        4.365100   -1.422402    1.859375
     67          7           0        3.746471   -2.315626    1.126494
     68          6           0        2.449756   -1.831131    1.034018
     69          6           0        3.927646    0.787296    3.081666
     70          7           0        3.562752   -0.380695    2.256643
 ---------------------------------------------------------------------

 SCF Done:  E(RwB97XD) =  -2048.75162230     A.U. after   15 cycles

 The electronic state is 1-A.
 Alpha  occ. eigenvalues --  -19.26086 -19.21877 -19.20647 -14.52701 -14.50966
 Alpha  occ. eigenvalues --  -14.50184 -14.48459 -14.47850 -14.46718 -14.46556
 Alpha  occ. eigenvalues --  -14.45891 -14.43657 -14.43144 -14.42921 -14.42532
 Alpha  occ. eigenvalues --  -14.42465 -14.42164 -14.41918 -14.41320 -14.40671
 Alpha  occ. eigenvalues --  -10.45676 -10.41075 -10.40006 -10.38213 -10.37945
 Alpha  occ. eigenvalues --  -10.37732 -10.36632 -10.36352 -10.36025 -10.35531
 Alpha  occ. eigenvalues --  -10.35483 -10.34778 -10.34238 -10.34213 -10.34200
 Alpha  occ. eigenvalues --  -10.33065 -10.33055 -10.32102 -10.31112 -10.30767
 Alpha  occ. eigenvalues --  -10.30181 -10.29996 -10.28017  -1.19663  -1.13585
 Alpha  occ. eigenvalues --   -1.13154  -1.12879  -1.12797  -1.10438  -1.09546
 Alpha  occ. eigenvalues --   -1.08496  -1.07309  -1.06232  -1.02843  -1.02523
 Alpha  occ. eigenvalues --   -1.01655  -0.99640  -0.99297  -0.98417  -0.98294
 Alpha  occ. eigenvalues --   -0.96320  -0.94987  -0.93820  -0.91133  -0.86068
 Alpha  occ. eigenvalues --   -0.85271  -0.84614  -0.84093  -0.83873  -0.83583
 Alpha  occ. eigenvalues --   -0.82098  -0.78978  -0.75326  -0.74453  -0.74123
 Alpha  occ. eigenvalues --   -0.73558  -0.73389  -0.73062  -0.72324  -0.68679
 Alpha  occ. eigenvalues --   -0.67547  -0.67253  -0.66639  -0.64997  -0.64499
 Alpha  occ. eigenvalues --   -0.63928  -0.63640  -0.62568  -0.62531  -0.61594
 Alpha  occ. eigenvalues --   -0.61310  -0.60819  -0.59614  -0.58921  -0.58262
 Alpha  occ. eigenvalues --   -0.58206  -0.57831  -0.57767  -0.57453  -0.56466
 Alpha  occ. eigenvalues --   -0.56348  -0.56056  -0.54719  -0.54463  -0.53884
 Alpha  occ. eigenvalues --   -0.53765  -0.53498  -0.53025  -0.52933  -0.52698
 Alpha  occ. eigenvalues --   -0.52148  -0.51952  -0.51684  -0.51383  -0.51212
 Alpha  occ. eigenvalues --   -0.50232  -0.49994  -0.49480  -0.48620  -0.48496
 Alpha  occ. eigenvalues --   -0.48332  -0.48109  -0.48088  -0.47890  -0.47722
 Alpha  occ. eigenvalues --   -0.47347  -0.46164  -0.45065  -0.44217  -0.42936
 Alpha  occ. eigenvalues --   -0.42220  -0.39613  -0.39118  -0.38458  -0.37209
 Alpha  occ. eigenvalues --   -0.37143  -0.36144  -0.35764  -0.35608  -0.34840
 Alpha  occ. eigenvalues --   -0.34758  -0.34314  -0.33179  -0.32931  -0.32815
 Alpha  occ. eigenvalues --   -0.32650  -0.32379  -0.31976  -0.31928  -0.31854
 Alpha  occ. eigenvalues --   -0.31470  -0.27957  -0.26951  -0.25353
 Alpha virt. eigenvalues --    0.03053   0.05603   0.06592   0.08264   0.08886
 Alpha virt. eigenvalues --    0.08926   0.09966   0.10044   0.11019   0.12327
 Alpha virt. eigenvalues --    0.12752   0.13276   0.14656   0.14835   0.15300

 Mulliken charges:
               1
     1  N   -0.309614
     2  C    0.180019
     3  C    0.032644
     4  N   -0.255478
     5  C    0.130747
     6  H    0.030590
     7  N   -0.272526
     8  C    0.125732
     9  H    0.019429
    10  N   -0.284073
    11  C    0.229390
    12  C    0.080656
    13  N   -0.031311
    14  H    0.107449
    15  H    0.091589
    16  H    0.029247
    17  H    0.036955
    18  H    0.026048
    19  N   -0.298878
    20  C    0.246377
    21  C    0.188909
    22  N   -0.117344
    23  H    0.112217
    24  H    0.117366
    25  N   -0.300699
    26  C    0.232455
    27  N   -0.120785
    28  H    0.118666
    29  C    0.149885
    30  O   -0.325325
    31  C    0.000189
    32  N   -0.227658
    33  C    0.117834
    34  H    0.028343
    35  H    0.022321
    36  H    0.028624
    37  H    0.021745
    38  H    0.058057
    39  H    0.066243
    40  H    0.077686
    41  H    0.031210
    42  C   -0.083980
    43  O   -0.266108
    44  C    0.185873
    45  H    0.133822
    46  N   -0.125948
    47  O   -0.348861
    48  C    0.339658
    49  H    0.044671
    50  C    0.149935
    51  C    0.035220
    52  N   -0.288717
    53  H    0.031309
    54  H    0.037436
    55  H   -0.007366
    56  H    0.115698
    57  H    0.122859
    58  N   -0.059435
    59  C    0.142768
    60  C    0.227410
    61  N   -0.275946
    62  H    0.037352
    63  C    0.156630
    64  N   -0.306988
    65  H    0.022930
    66  C    0.111845
    67  N   -0.244423
    68  C    0.022530
    69  C    0.192359
    70  N   -0.297467
 Sum of Mulliken charges =  -0.00000

 Dipole moment (field-independent basis, Debye):
    X=              3.8083    Y=              5.3319    Z=              4.8910  Tot=              8.1764
 Quadrupole moment (field-independent basis, Debye-Ang):
   XX=           -140.4196   YY=           -226.6656   ZZ=           -255.8190
   XY=             15.0295   XZ=             26.9032   YZ=              2.2591

 Normal termination of Gaussian 16 at Fri Jan 26 13:52:43 2018.
