 Gaussian 16, Revision A.03,
 Gaussian 16:  EM64L-G16RevA.03 25-Dec-2016

 ---------------------------------------
 #p wb97xd/cc-pvdz sp scf=(maxcycles=20)
 ---------------------------------------

 ------------------
 Base pair stacking
 ------------------
 Symbolic Z-matrix:
 Charge =  0 Multiplicity = 1

                         Standard orientation:
 ---------------------------------------------------------------------
 Center     Atomic      Atomic             Coordinates (Angstroms)
 Number     Number       Type             X           Y           Z
 ---------------------------------------------------------------------
      1          7           0       -6.552263   -1.015770    0.391371
      2          6           0       -7.800944   -0.593534    1.055089
      3          6           0       -4.438803   -1.435521   -0.049531
      4          7           0       -5.155966   -1.840168   -1.166076
      5          6           0       -6.400542   -1.571091   -0.855763
      6          1           0       -7.255979   -1.758940   -1.505274
      7          7           0       -2.680506   -0.976588    1.454041
      8          6           0       -3.616957   -0.514290    2.288861
      9          1           0       -3.246495   -0.142172    3.243088
     10          7           0       -4.936127   -0.442997    2.122708
     11          6           0       -5.285901   -0.925258    0.918750
     12          6           0       -3.064546   -1.454992    0.250417
     13          7           0       -2.131226   -1.916900   -0.584295
     14          1           0       -2.369961   -2.280381   -1.485464
     15          1           0       -1.162103   -1.915366   -0.337454
     16          1           0       -8.411913   -1.379601    1.149903
     17          1           0       -7.590185   -0.225340    1.960153
     18          1           0       -8.250437    0.111561    0.506652
     19          7           0       -3.604553    1.981949   -0.954029
     20          6           0       -2.285388    2.090404   -0.585122
     21          6           0       -4.730320    2.695091   -0.317802
     22          7           0        0.161016    3.452546    1.469493
     23          1           0        1.152892    3.389988    1.576780
     24          1           0       -0.325887    4.060033    2.097669
     25          7           0       -1.799882    2.860478    0.412536
     26          6           0       -0.487889    2.753583    0.525939
     27          7           0        0.290904    1.954274   -0.275370
     28          1           0        1.286581    1.934797   -0.116546
     29          6           0       -0.187212    1.153527   -1.307882
     30          8           0        0.601041    0.469068   -1.971883
     31          6           0       -1.595067    1.257797   -1.441876
     32          7           0       -2.463380    0.639086   -2.330768
     33          6           0       -3.641255    1.097723   -2.004478
     34          1           0       -4.573498    0.822903   -2.499115
     35          1           0       -5.380368    2.032333    0.052339
     36          1           0       -4.382830    3.268721    0.422783
     37          1           0       -5.189068    3.268977   -0.995297
     38          1           0        6.071742    1.789472    1.596275
     39          1           0        6.357263    2.926154    0.280564
     40          1           0        4.797873    2.906163    1.104737
     41          1           0        6.189946   -1.218559   -2.156633
     42          6           0        5.507797   -0.507560   -1.690410
     43          8           0        3.588567   -1.329201   -2.816720
     44          6           0        4.117419   -0.547569   -2.026689
     45          1           0        2.354802    0.397513   -1.592704
     46          7           0        3.342629    0.394665   -1.380809
     47          8           0        3.003206    2.129735    0.044509
     48          6           0        3.766649    1.335460   -0.476006
     49          1           0        6.998979    0.470502   -0.521831
     50          6           0        5.951426    0.398544   -0.811331
     51          6           0        5.619845    2.297892    0.757611
     52          7           0        5.120301    1.310808   -0.203567
     53          1           0        4.799715   -0.867706    4.045717
     54          1           0        3.615286    0.196196    3.688869
     55          1           0        5.126099    0.435800    3.119563
     56          1           0        1.054121   -3.156715   -1.937312
     57          1           0        2.725648   -3.429989   -1.733813
     58          7           0        1.887239   -2.990431   -1.409664
     59          6           0        1.881536   -2.217067   -0.321982
     60          6           0        2.861270   -1.130247    1.554366
     61          7           0        1.720577   -0.552776    1.966394
     62          1           0       -0.251843   -0.448131    1.419361
     63          6           0        0.714507   -0.876234    1.156385
     64          7           0        0.718209   -1.650659    0.066509
     65          1           0        6.003196   -1.891366    1.588200
     66          6           0        4.942592   -1.791334    1.355704
     67          7           0        4.345335   -2.363576    0.339093
     68          6           0        3.025182   -1.952634    0.453307
     69          6           0        4.437947   -0.254462    3.343535
     70          7           0        4.104243   -1.030088    2.133147
 ---------------------------------------------------------------------

 SCF Done:  E(RwB97XD) =  -2048.74743977     A.U. after   15 cycles

 The electronic state is 1-A.
 Alpha  occ. eigenvalues --  -19.25795 -19.22136 -19.20720 -14.52367 -14.51156
 Alpha  occ. eigenvalues --  -14.49845 -14.48663 -14.47733 -14.46982 -14.46686
 Alpha  occ. eigenvalues --  -14.45466 -14.43822 -14.42676 -14.42614 -14.42515
 Alpha  occ. eigenvalues --  -14.42432 -14.42009 -14.41697 -14.40883 -14.40816
 Alpha  occ. eigenvalues --  -10.45414 -10.41235 -10.40067 -10.38279 -10.37808
 Alpha  occ. eigenvalues --  -10.37266 -10.36489 -10.36123 -10.35719 -10.35537
 Alpha  occ. eigenvalues --  -10.35148 -10.34340 -10.34331 -10.34230 -10.33802
 Alpha  occ. eigenvalues --  -10.33221 -10.33206 -10.31920 -10.30884 -10.30770
 Alpha  occ. eigenvalues --  -10.30675 -10.29500 -10.28097  -1.19386  -1.13769
 Alpha  occ. eigenvalues --   -1.13254  -1.13084  -1.12414  -1.10573  -1.09285
 Alpha  occ. eigenvalues --   -1.08617  -1.07269  -1.05751  -1.02755  -1.02504
 Alpha  occ. eigenvalues --   -1.01151  -0.99771  -0.99427  -0.98543  -0.97919
 Alpha  occ. eigenvalues --   -0.96517  -0.94938  -0.93338  -0.90799  -0.86185
 Alpha  occ. eigenvalues --   -0.84902  -0.84704  -0.84054  -0.83830  -0.83246
 Alpha  occ. eigenvalues --   -0.82381  -0.78740  -0.75331  -0.74573  -0.73733
 Alpha  occ. eigenvalues --   -0.73662  -0.73319  -0.73076  -0.71878  -0.68681
 Alpha  occ. eigenvalues --   -0.67363  -0.67114  -0.66475  -0.64983  -0.64398
 Alpha  occ. eigenvalues --   -0.63736  -0.63491  -0.62636  -0.62478  -0.61712
 Alpha  occ. eigenvalues --   -0.60935  -0.60675  -0.59437  -0.58901  -0.58365
 Alpha  occ. eigenvalues --   -0.58009  -0.57825  -0.57624  -0.57160  -0.56419
 Alpha  occ. eigenvalues --   -0.55966  -0.55903  -0.54978  -0.54342  -0.53986
 Alpha  occ. eigenvalues --   -0.53638  -0.53521  -0.52879  -0.52727  -0.52615
 Alpha  occ. eigenvalues --   -0.52186  -0.51742  -0.51646  -0.51308  -0.50984
 Alpha  occ. eigenvalues --   -0.50174  -0.49854  -0.49418  -0.48930  -0.48681
 Alpha  occ. eigenvalues --   -0.48330  -0.48277  -0.47906  -0.47842  -0.47718
 Alpha  occ. eigenvalues --   -0.47444  -0.45829  -0.45351  -0.43675  -0.42715
 Alpha  occ. eigenvalues --   -0.41899  -0.39405  -0.39207  -0.38023  -0.37294
 Alpha  occ. eigenvalues --   -0.37202  -0.36516  -0.36121  -0.35869  -0.34593
 Alpha  occ. eigenvalues --   -0.34369  -0.34215  -0.33320  -0.33122  -0.32714
 Alpha  occ. eigenvalues --   -0.32600  -0.32203  -0.31917  -0.31816  -0.31274
 Alpha  occ. eigenvalues --   -0.31048  -0.27756  -0.26504  -0.25428
 Alpha virt. eigenvalues --    0.02753   0.06116   0.07089   0.07665   0.09027
 Alpha virt. eigenvalues --    0.09632   0.09874   0.10259   0.10941   0.12439
 Alpha virt. eigenvalues --    0.13104   0.13626   0.14024   0.14735   0.14978

 Mulliken charges:
               1
     1  N   -0.310368
     2  C    0.179804
     3  C    0.033627
     4  N   -0.248984
     5  C    0.122619
     6  H    0.028211
     7  N   -0.284832
     8  C    0.137308
     9  H    0.016140
    10  N   -0.289317
    11  C    0.233807
    12  C    0.095291
    13  N   -0.035866
    14  H    0.110480
    15  H    0.090340
    16  H    0.029181
    17  H    0.036751
    18  H    0.023402
    19  N   -0.305322
    20  C    0.257208
    21  C    0.185234
    22  N   -0.122634
    23  H    0.115966
    24  H    0.118756
    25  N   -0.307851
    26  C    0.243512
    27  N   -0.143370
    28  H    0.120382
    29  C    0.177640
    30  O   -0.326864
    31  C   -0.010981
    32  N   -0.232592
    33  C    0.131461
    34  H    0.025381
    35  H    0.023289
    36  H    0.030048
    37  H    0.021749
    38  H    0.051551
    39  H    0.063657
    40  H    0.076091
    41  H    0.025441
    42  C   -0.055285
    43  O   -0.274547
    44  C    0.169186
    45  H    0.135186
    46  N   -0.126034
    47  O   -0.347799
    48  C    0.345550
    49  H    0.039788
    50  C    0.146537
    51  C    0.038720
    52  N   -0.284679
    53  H    0.033220
    54  H    0.041229
    55  H    0.004268
    56  H    0.116089
    57  H    0.119038
    58  N   -0.030314
    59  C    0.111745
    60  C    0.228542
    61  N   -0.274914
    62  H    0.029141
    63  C    0.155425
    64  N   -0.305370
    65  H    0.025182
    66  C    0.126475
    67  N   -0.243048
    68  C    0.006200
    69  C    0.186218
    70  N   -0.301095
 Sum of Mulliken charges =  -0.00000

 Dipole moment (field-independent basis, Debye):
    X=              4.0928    Y=              4.4793    Z=              5.5928  Tot=              8.2519
 Quadrupole moment (field-independent basis, Debye-Ang):
   XX=           -143.4522   YY=           -229.4236   ZZ=           -252.2864
   XY=              6.1862   XZ=             23.6205   YZ=             10.1746

 Normal termination of Gaussian 16 at Thu Jan 25 12:26:06 2018.
