 Gaussian 16, Revision A.03,
 Gaussian 16:  EM64L-G16RevA.03 25-Dec-2016

 ---------------------------------------
 #p wb97xd/cc-pvdz sp scf=(maxcycles=20)
 ---------------------------------------

 ------------------
 Base pair stacking
 ------------------
 Symbolic Z-matrix:
 Charge =  0 Multiplicity = 1

                         Standard orientation:
 ---------------------------------------------------------------------
 Center     Atomic      Atomic             Coordinates (Angstroms)
 Number     Number       Type             X           Y           Z
 ---------------------------------------------------------------------
      1          7           0       -6.750714    0.512054   -0.435125
      2          6           0       -7.968165   -0.302105   -0.616675
      3          6           0       -4.666953    1.215790   -0.440206
      4          7           0       -5.416973    2.227909    0.141016
      5          6           0       -6.642344    1.763416    0.120811
      6          1           0       -7.513846    2.296592    0.501821
      7          7           0       -2.869936   -0.046602   -1.300469
      8          6           0       -3.771543   -0.990191   -1.590889
      9          1           0       -3.371298   -1.885920   -2.063882
     10          7           0       -5.087146   -0.993393   -1.385719
     11          6           0       -5.475304    0.151688   -0.800457
     12          6           0       -3.292117    1.093809   -0.711998
     13          7           0       -2.393629    2.036890   -0.421318
     14          1           0       -2.661261    2.896923    0.014502
     15          1           0       -1.422889    1.915977   -0.629153
     16          1           0       -8.617650    0.191445   -1.195253
     17          1           0       -7.728183   -1.169532   -1.051538
     18          1           0       -8.387126   -0.482042    0.273318
     19          7           0       -3.394097   -1.185115    1.433857
     20          6           0       -2.084948   -1.414547    1.085225
     21          6           0       -4.551783   -1.977444    0.972674
     22          7           0        0.284566   -3.263924   -0.654583
     23          1           0        1.276151   -3.259713   -0.781027
     24          1           0       -0.231160   -3.973373   -1.135650
     25          7           0       -1.639799   -2.394473    0.269358
     26          6           0       -0.326977   -2.359277    0.124848
     27          7           0        0.489265   -1.435904    0.732004
     28          1           0        1.482468   -1.484797    0.564299
     29          6           0        0.053017   -0.418909    1.575375
     30          8           0        0.872926    0.362919    2.072613
     31          6           0       -1.355196   -0.443878    1.740262
     32          7           0       -2.189418    0.378394    2.485131
     33          6           0       -3.386260   -0.097999    2.273350
     34          1           0       -4.301475    0.307200    2.706337
     35          1           0       -5.186015   -1.385961    0.475990
     36          1           0       -4.234309   -2.706359    0.367573
     37          1           0       -5.018042   -2.378898    1.760226
     38          1           0        6.242682   -1.870072   -1.180587
     39          1           0        6.512161   -2.711911    0.343660
     40          1           0        4.941594   -2.812943   -0.452895
     41          1           0        6.515027    1.857755    1.848559
     42          6           0        5.803380    1.088179    1.549339
     43          8           0        3.929055    2.195106    2.492067
     44          6           0        4.420377    1.246312    1.881181
     45          1           0        2.621978    0.292166    1.672157
     46          7           0        3.605988    0.216072    1.456164
     47          8           0        3.189290   -1.768443    0.433794
     48          6           0        3.985677   -0.908855    0.767743
     49          1           0        7.244281   -0.165727    0.602059
     50          6           0        6.204175    0.001912    0.878529
     51          6           0        5.787846   -2.173721   -0.249467
     52          7           0        5.335038   -0.989052    0.484888
     53          1           0        4.635691   -1.509554   -3.351709
     54          1           0        3.503532   -2.118095   -2.346717
     55          1           0        5.017930   -1.847250   -1.801460
     56          1           0        0.707659    4.008195   -0.320112
     57          1           0        2.365156    4.153079   -0.696680
     58          7           0        1.554339    3.571268   -0.624062
     59          6           0        1.601148    2.270655   -0.919655
     60          6           0        2.657359    0.256669   -1.619651
     61          7           0        1.552799   -0.500294   -1.512953
     62          1           0       -0.417847   -0.304633   -0.984893
     63          6           0        0.522040    0.233793   -1.098773
     64          7           0        0.473139    1.536567   -0.802184
     65          1           0        5.756111    0.945503   -2.232362
     66          6           0        4.699430    0.977052   -1.965231
     67          7           0        4.061683    2.052825   -1.573213
     68          6           0        2.765862    1.609983   -1.350798
     69          6           0        4.297816   -1.514626   -2.410534
     70          7           0        3.910511   -0.146214   -2.016278
 ---------------------------------------------------------------------

 SCF Done:  E(RwB97XD) =  -2048.67218049     A.U. after   15 cycles

 The electronic state is 1-A.
 Alpha  occ. eigenvalues --  -19.26126 -19.22112 -19.20524 -14.52993 -14.51202
 Alpha  occ. eigenvalues --  -14.50523 -14.48053 -14.48043 -14.46702 -14.46196
 Alpha  occ. eigenvalues --  -14.46179 -14.44068 -14.43475 -14.43106 -14.43017
 Alpha  occ. eigenvalues --  -14.42869 -14.42078 -14.41702 -14.41273 -14.40474
 Alpha  occ. eigenvalues --  -10.45795 -10.40719 -10.40184 -10.38545 -10.37954
 Alpha  occ. eigenvalues --  -10.37953 -10.36795 -10.36740 -10.36387 -10.35861
 Alpha  occ. eigenvalues --  -10.35716 -10.34803 -10.34702 -10.34159 -10.33937
 Alpha  occ. eigenvalues --  -10.32941 -10.32411 -10.31948 -10.31306 -10.31161
 Alpha  occ. eigenvalues --  -10.30207 -10.28714 -10.27798  -1.19926  -1.13937
 Alpha  occ. eigenvalues --   -1.13160  -1.13110  -1.12998  -1.10271  -1.09887
 Alpha  occ. eigenvalues --   -1.08304  -1.07900  -1.06455  -1.03511  -1.02841
 Alpha  occ. eigenvalues --   -1.02075  -0.99705  -0.99343  -0.98576  -0.98221
 Alpha  occ. eigenvalues --   -0.96017  -0.95565  -0.94132  -0.91653  -0.87242
 Alpha  occ. eigenvalues --   -0.85854  -0.85533  -0.83879  -0.83647  -0.83534
 Alpha  occ. eigenvalues --   -0.81578  -0.79264  -0.75868  -0.74434  -0.74172
 Alpha  occ. eigenvalues --   -0.73830  -0.73701  -0.73300  -0.72610  -0.69373
 Alpha  occ. eigenvalues --   -0.67825  -0.67156  -0.66848  -0.66000  -0.65024
 Alpha  occ. eigenvalues --   -0.64196  -0.63653  -0.63169  -0.62960  -0.62367
 Alpha  occ. eigenvalues --   -0.61570  -0.61346  -0.60003  -0.59614  -0.58963
 Alpha  occ. eigenvalues --   -0.58700  -0.57934  -0.57849  -0.56844  -0.56724
 Alpha  occ. eigenvalues --   -0.56452  -0.56376  -0.55984  -0.54809  -0.54633
 Alpha  occ. eigenvalues --   -0.54252  -0.53516  -0.53298  -0.53059  -0.52419
 Alpha  occ. eigenvalues --   -0.52109  -0.51638  -0.51570  -0.50720  -0.50527
 Alpha  occ. eigenvalues --   -0.50345  -0.49863  -0.49548  -0.48965  -0.48590
 Alpha  occ. eigenvalues --   -0.48497  -0.48262  -0.47979  -0.47763  -0.47411
 Alpha  occ. eigenvalues --   -0.47201  -0.46034  -0.45360  -0.44056  -0.42900
 Alpha  occ. eigenvalues --   -0.41053  -0.39784  -0.39696  -0.38740  -0.37216
 Alpha  occ. eigenvalues --   -0.36976  -0.36407  -0.36364  -0.35945  -0.35175
 Alpha  occ. eigenvalues --   -0.34864  -0.33940  -0.33467  -0.33277  -0.33187
 Alpha  occ. eigenvalues --   -0.32540  -0.32387  -0.31838  -0.31717  -0.31665
 Alpha  occ. eigenvalues --   -0.31290  -0.28114  -0.26976  -0.25190
 Alpha virt. eigenvalues --    0.02577   0.05337   0.06322   0.07898   0.08533
 Alpha virt. eigenvalues --    0.08780   0.09731   0.10443   0.11203   0.11889
 Alpha virt. eigenvalues --    0.12201   0.12984   0.14681   0.14851   0.14915

 Mulliken charges:
               1
     1  N   -0.307548
     2  C    0.179097
     3  C    0.056749
     4  N   -0.251468
     5  C    0.129742
     6  H    0.030881
     7  N   -0.257652
     8  C    0.113670
     9  H    0.017690
    10  N   -0.287317
    11  C    0.206854
    12  C    0.079715
    13  N   -0.034226
    14  H    0.106963
    15  H    0.088196
    16  H    0.031604
    17  H    0.037166
    18  H    0.027403
    19  N   -0.293220
    20  C    0.232489
    21  C    0.226538
    22  N   -0.099933
    23  H    0.112441
    24  H    0.113809
    25  N   -0.284156
    26  C    0.196423
    27  N   -0.128067
    28  H    0.135212
    29  C    0.144044
    30  O   -0.325043
    31  C    0.018789
    32  N   -0.225305
    33  C    0.116382
    34  H    0.023353
    35  H    0.005097
    36  H    0.025294
    37  H    0.009369
    38  H    0.048837
    39  H    0.053577
    40  H    0.069567
    41  H    0.032481
    42  C   -0.079827
    43  O   -0.260421
    44  C    0.181349
    45  H    0.132328
    46  N   -0.120479
    47  O   -0.337480
    48  C    0.327974
    49  H    0.044544
    50  C    0.146760
    51  C    0.108490
    52  N   -0.291433
    53  H    0.025632
    54  H    0.035187
    55  H   -0.061318
    56  H    0.116667
    57  H    0.121508
    58  N   -0.067716
    59  C    0.138568
    60  C    0.207322
    61  N   -0.288938
    62  H    0.026385
    63  C    0.179978
    64  N   -0.310817
    65  H    0.023840
    66  C    0.117551
    67  N   -0.249297
    68  C    0.036802
    69  C    0.211230
    70  N   -0.289886
 Sum of Mulliken charges =  -0.00000

 Dipole moment (field-independent basis, Debye):
    X=              3.6226    Y=             -5.2577    Z=             -5.4072  Tot=              8.3669
 Quadrupole moment (field-independent basis, Debye-Ang):
   XX=           -140.8568   YY=           -225.9285   ZZ=           -262.7350
   XY=            -19.1440   XZ=            -19.8058   YZ=             -2.5458

 Normal termination of Gaussian 16 at Thu Jan 25 12:50:55 2018.
