 Gaussian 16, Revision A.03,
 Gaussian 16:  EM64L-G16RevA.03 25-Dec-2016

 ---------------------------------------
 #p wb97xd/cc-pvdz sp scf=(maxcycles=20)
 ---------------------------------------

 ------------------
 Base pair stacking
 ------------------
 Symbolic Z-matrix:
 Charge =  0 Multiplicity = 1

                         Standard orientation:
 ---------------------------------------------------------------------
 Center     Atomic      Atomic             Coordinates (Angstroms)
 Number     Number       Type             X           Y           Z
 ---------------------------------------------------------------------
      1          7           0        5.081335   -1.826312   -0.654050
      2          6           0        6.326579   -1.622599   -1.419477
      3          6           0        2.965997   -1.924785   -0.059965
      4          7           0        3.698073   -2.348359    1.039756
      5          6           0        4.943188   -2.272086    0.637818
      6          1           0        5.808730   -2.531065    1.248322
      7          7           0        1.185040   -1.331640   -1.488016
      8          6           0        2.115116   -1.057212   -2.408469
      9          1           0        1.732686   -0.702170   -3.364480
     10          7           0        3.440438   -1.155038   -2.325681
     11          6           0        3.804915   -1.599620   -1.111622
     12          6           0        1.583895   -1.777082   -0.276583
     13          7           0        0.656973   -2.051561    0.643548
     14          1           0        0.906642   -2.383676    1.553816
     15          1           0       -0.318079   -1.934652    0.454490
     16          1           0        6.821038   -2.488956   -1.490928
     17          1           0        6.104926   -1.289890   -2.335614
     18          1           0        6.901127   -0.950408   -0.952536
     19          7           0        5.158049    1.331491    0.488981
     20          6           0        3.842015    1.561034    0.167378
     21          6           0        6.317165    1.683673   -0.355478
     22          7           0        1.453340    2.776482   -2.041385
     23          1           0        0.457371    2.851051   -2.083076
     24          1           0        1.968031    3.132232   -2.821929
     25          7           0        3.390306    2.142190   -0.964986
     26          6           0        2.071830    2.224400   -0.986596
     27          7           0        1.256282    1.772628    0.022517
     28          1           0        0.258449    1.876943   -0.079485
     29          6           0        1.699219    1.171482    1.196522
     30          8           0        0.879327    0.798957    2.044896
     31          6           0        3.113570    1.076176    1.234195
     32          7           0        3.955339    0.552774    2.205972
     33          6           0        5.155255    0.725679    1.721714
     34          1           0        6.076422    0.428653    2.224205
     35          1           0        6.830583    0.856550   -0.581474
     36          1           0        5.994871    2.114910   -1.197162
     37          1           0        6.910005    2.319432    0.137634
     38          1           0       -4.625178    2.104988   -1.476253
     39          1           0       -4.630373    3.550399   -0.468587
     40          1           0       -3.165921    3.085816   -1.335140
     41          1           0       -4.859059    0.125477    2.902499
     42          6           0       -4.123137    0.587148    2.244073
     43          8           0       -2.254614   -0.244105    3.446059
     44          6           0       -2.729759    0.404038    2.513891
     45          1           0       -0.892077    0.923569    1.778144
     46          7           0       -1.884277    1.030048    1.620287
     47          8           0       -1.419242    2.302389   -0.202379
     48          6           0       -2.242757    1.786813    0.532926
     49          1           0       -5.550621    1.489389    0.942516
     50          6           0       -4.503794    1.319874    1.191069
     51          6           0       -4.034886    2.717070   -0.810688
     52          7           0       -3.603889    1.917062    0.339087
     53          1           0       -6.374888   -0.378775   -3.637856
     54          1           0       -5.039383    0.535519   -3.431503
     55          1           0       -6.463305    1.015421   -2.794148
     56          1           0       -2.564147   -2.754585    2.269709
     57          1           0       -4.267040   -2.810986    2.185484
     58          7           0       -3.402154   -2.511895    1.780831
     59          6           0       -3.368896   -1.820198    0.639954
     60          6           0       -4.322714   -0.736888   -1.251711
     61          7           0       -3.146736   -0.348376   -1.771868
     62          1           0       -1.145062   -0.476828   -1.350679
     63          6           0       -2.139134   -0.751263   -1.000298
     64          7           0       -2.170387   -1.444139    0.142742
     65          1           0       -7.532376   -1.064415   -1.044457
     66          6           0       -6.454479   -1.094313   -0.882633
     67          7           0       -5.869826   -1.673869    0.137155
     68          6           0       -4.517964   -1.454666   -0.084581
     69          6           0       -5.888706    0.224726   -3.005863
     70          7           0       -5.578229   -0.507237   -1.762543
 ---------------------------------------------------------------------

 SCF Done:  E(RwB97XD) =  -2048.74186820     A.U. after   15 cycles

 The electronic state is 1-A.
 Alpha  occ. eigenvalues --  -19.25397 -19.21618 -19.20677 -14.52332 -14.51909
 Alpha  occ. eigenvalues --  -14.49229 -14.49133 -14.47372 -14.47242 -14.46863
 Alpha  occ. eigenvalues --  -14.46673 -14.45037 -14.44094 -14.43930 -14.42692
 Alpha  occ. eigenvalues --  -14.42017 -14.41557 -14.41401 -14.41065 -14.40864
 Alpha  occ. eigenvalues --  -10.44938 -10.41233 -10.39678 -10.39404 -10.38314
 Alpha  occ. eigenvalues --  -10.37656 -10.37171 -10.36806 -10.35936 -10.35548
 Alpha  occ. eigenvalues --  -10.34817 -10.34521 -10.34386 -10.34040 -10.33811
 Alpha  occ. eigenvalues --  -10.33598 -10.33580 -10.32205 -10.31758 -10.31521
 Alpha  occ. eigenvalues --  -10.30332 -10.28953 -10.28247  -1.18956  -1.14955
 Alpha  occ. eigenvalues --   -1.13288  -1.12654  -1.11780  -1.10815  -1.08948
 Alpha  occ. eigenvalues --   -1.08776  -1.08590  -1.05572  -1.04351  -1.02014
 Alpha  occ. eigenvalues --   -1.00903  -1.00660  -0.99751  -0.98619  -0.97437
 Alpha  occ. eigenvalues --   -0.96816  -0.96484  -0.93220  -0.90491  -0.87359
 Alpha  occ. eigenvalues --   -0.85800  -0.84710  -0.84193  -0.83271  -0.83121
 Alpha  occ. eigenvalues --   -0.82626  -0.78383  -0.76650  -0.74818  -0.74540
 Alpha  occ. eigenvalues --   -0.73670  -0.73383  -0.72831  -0.71529  -0.70004
 Alpha  occ. eigenvalues --   -0.67494  -0.66800  -0.66403  -0.66046  -0.64518
 Alpha  occ. eigenvalues --   -0.63849  -0.63578  -0.63178  -0.62665  -0.61841
 Alpha  occ. eigenvalues --   -0.60912  -0.60781  -0.60117  -0.59259  -0.59077
 Alpha  occ. eigenvalues --   -0.58850  -0.58622  -0.58387  -0.57064  -0.55933
 Alpha  occ. eigenvalues --   -0.55756  -0.55477  -0.55159  -0.54590  -0.54279
 Alpha  occ. eigenvalues --   -0.54199  -0.53586  -0.53464  -0.53116  -0.52653
 Alpha  occ. eigenvalues --   -0.52495  -0.52297  -0.51897  -0.51058  -0.50779
 Alpha  occ. eigenvalues --   -0.50293  -0.49954  -0.49341  -0.49276  -0.49042
 Alpha  occ. eigenvalues --   -0.48910  -0.48366  -0.48228  -0.47510  -0.47441
 Alpha  occ. eigenvalues --   -0.47290  -0.46250  -0.44785  -0.44197  -0.43453
 Alpha  occ. eigenvalues --   -0.41424  -0.40420  -0.39060  -0.37703  -0.37635
 Alpha  occ. eigenvalues --   -0.37378  -0.37170  -0.37125  -0.35821  -0.34717
 Alpha  occ. eigenvalues --   -0.34278  -0.34085  -0.33767  -0.33530  -0.33018
 Alpha  occ. eigenvalues --   -0.32667  -0.32370  -0.31920  -0.31727  -0.31041
 Alpha  occ. eigenvalues --   -0.30773  -0.29154  -0.27140  -0.24628
 Alpha virt. eigenvalues --    0.02776   0.04733   0.06714   0.06938   0.08602
 Alpha virt. eigenvalues --    0.09685   0.09947   0.10857   0.11104   0.11840
 Alpha virt. eigenvalues --    0.12596   0.13934   0.14277   0.14589   0.15426

 Mulliken charges:
               1
     1  N   -0.302926
     2  C    0.187151
     3  C    0.048618
     4  N   -0.233417
     5  C    0.127616
     6  H    0.024392
     7  N   -0.288457
     8  C    0.128622
     9  H    0.008666
    10  N   -0.278871
    11  C    0.238434
    12  C    0.072402
    13  N   -0.041011
    14  H    0.115261
    15  H    0.086431
    16  H    0.027364
    17  H    0.035484
    18  H    0.012000
    19  N   -0.299915
    20  C    0.248266
    21  C    0.191540
    22  N   -0.122283
    23  H    0.117965
    24  H    0.119477
    25  N   -0.301272
    26  C    0.239149
    27  N   -0.136772
    28  H    0.121801
    29  C    0.178790
    30  O   -0.323852
    31  C   -0.010440
    32  N   -0.209045
    33  C    0.110941
    34  H    0.019600
    35  H   -0.007471
    36  H    0.036179
    37  H    0.028399
    38  H    0.031863
    39  H    0.056159
    40  H    0.077697
    41  H    0.021330
    42  C   -0.098354
    43  O   -0.276656
    44  C    0.166140
    45  H    0.127208
    46  N   -0.104016
    47  O   -0.348727
    48  C    0.328507
    49  H    0.042956
    50  C    0.169484
    51  C    0.052906
    52  N   -0.269444
    53  H    0.037068
    54  H    0.043865
    55  H    0.029406
    56  H    0.125361
    57  H    0.116811
    58  N   -0.032706
    59  C    0.068100
    60  C    0.219053
    61  N   -0.267761
    62  H    0.026507
    63  C    0.157795
    64  N   -0.294759
    65  H    0.036442
    66  C    0.124341
    67  N   -0.251536
    68  C    0.049186
    69  C    0.176709
    70  N   -0.309750
 Sum of Mulliken charges =  -0.00000

 Dipole moment (field-independent basis, Debye):
    X=             -4.2847    Y=              3.3683    Z=             -6.9425  Tot=              8.8262
 Quadrupole moment (field-independent basis, Debye-Ang):
   XX=           -146.0176   YY=           -231.8115   ZZ=           -255.1001
   XY=             -9.9485   XZ=              7.0655   YZ=            -15.7730

 Normal termination of Gaussian 16 at Fri Jan 26 03:11:50 2018.
