 Gaussian 16, Revision A.03,
 Gaussian 16:  EM64L-G16RevA.03 25-Dec-2016

 ---------------------------------------
 #p wb97xd/cc-pvdz sp scf=(maxcycles=20)
 ---------------------------------------

 ------------------
 Base pair stacking
 ------------------
 Symbolic Z-matrix:
 Charge =  0 Multiplicity = 1

                         Standard orientation:
 ---------------------------------------------------------------------
 Center     Atomic      Atomic             Coordinates (Angstroms)
 Number     Number       Type             X           Y           Z
 ---------------------------------------------------------------------
      1          7           0       -6.237241    0.806565   -0.690590
      2          6           0       -7.475800    0.084110   -1.039922
      3          6           0       -4.130505    1.413517   -0.515693
      4          7           0       -4.864689    2.350094    0.197430
      5          6           0       -6.104535    1.946944    0.063516
      6          1           0       -6.969882    2.448402    0.497863
      7          7           0       -2.349296    0.230713   -1.511278
      8          6           0       -3.273017   -0.615247   -1.978900
      9          1           0       -2.888000   -1.439644   -2.577558
     10          7           0       -4.594714   -0.595824   -1.818809
     11          6           0       -4.962845    0.455969   -1.068714
     12          6           0       -2.751679    1.278828   -0.759867
     13          7           0       -1.831100    2.124376   -0.292166
     14          1           0       -2.083570    2.913935    0.268252
     15          1           0       -0.858209    1.997523   -0.485903
     16          1           0       -8.084314    0.690968   -1.551403
     17          1           0       -7.251240   -0.711731   -1.601480
     18          1           0       -7.934667   -0.218333   -0.204484
     19          7           0       -3.964553   -1.244448    1.288753
     20          6           0       -2.650704   -1.482890    0.964702
     21          6           0       -5.125738   -1.967922    0.732955
     22          7           0       -0.271753   -3.260832   -0.835654
     23          1           0        0.723271   -3.274321   -0.930450
     24          1           0       -0.788811   -3.917794   -1.384989
     25          7           0       -2.203370   -2.410689    0.091132
     26          6           0       -0.886019   -2.400759   -0.009293
     27          7           0       -0.067539   -1.548242    0.691289
     28          1           0        0.929148   -1.611614    0.551396
     29          6           0       -0.505959   -0.585784    1.595351
     30          8           0        0.316285    0.133775    2.175763
     31          6           0       -1.919055   -0.584444    1.713892
     32          7           0       -2.756709    0.202206    2.492616
     33          6           0       -3.957391   -0.223971    2.208114
     34          1           0       -4.876044    0.172531    2.641853
     35          1           0       -5.728190   -1.323703    0.263030
     36          1           0       -4.806691   -2.657836    0.084499
     37          1           0       -5.627737   -2.414386    1.472872
     38          1           0        5.733477   -1.995278   -1.068473
     39          1           0        5.931172   -2.956131    0.395194
     40          1           0        4.385839   -2.954057   -0.455288
     41          1           0        5.998303    1.486005    2.241689
     42          6           0        5.277952    0.760833    1.862927
     43          8           0        3.401652    1.844897    2.828016
     44          6           0        3.889094    0.931477    2.162540
     45          1           0        2.075339    0.045342    1.825808
     46          7           0        3.063763   -0.041270    1.635437
     47          8           0        2.631736   -1.931355    0.453002
     48          6           0        3.437849   -1.121384    0.875846
     49          1           0        6.717692   -0.457522    0.868653
     50          6           0        5.673510   -0.282646    1.124483
     51          6           0        5.240587   -2.355325   -0.177690
     52          7           0        4.793421   -1.217099    0.629925
     53          1           0        5.170660   -1.199669   -3.532836
     54          1           0        3.979554   -1.913155   -2.675894
     55          1           0        5.480951   -1.797317   -2.046244
     56          1           0        1.333974    3.921413    0.224800
     57          1           0        3.008801    4.054769   -0.070586
     58          7           0        2.175101    3.503559   -0.118770
     59          6           0        2.185635    2.266338   -0.619121
     60          6           0        3.193541    0.347891   -1.601664
     61          7           0        2.058829   -0.369128   -1.653862
     62          1           0        0.077929   -0.177727   -1.163917
     63          6           0        1.040503    0.331873   -1.159357
     64          7           0        1.027930    1.571152   -0.657743
     65          1           0        6.336479    0.994749   -1.996288
     66          6           0        5.272235    1.027604   -1.761234
     67          7           0        4.659702    2.052542   -1.220878
     68          6           0        3.341039    1.634813   -1.114229
     69          6           0        4.797199   -1.341303   -2.616064
     70          7           0        4.445357   -0.038686   -2.018235
 ---------------------------------------------------------------------

 SCF Done:  E(RwB97XD) =  -2048.68387826     A.U. after   15 cycles

 The electronic state is 1-A.
 Alpha  occ. eigenvalues --  -19.25290 -19.21740 -19.20618 -14.52225 -14.51950
 Alpha  occ. eigenvalues --  -14.50139 -14.48468 -14.47453 -14.46978 -14.46726
 Alpha  occ. eigenvalues --  -14.46523 -14.44650 -14.43559 -14.43469 -14.43155
 Alpha  occ. eigenvalues --  -14.42652 -14.41857 -14.41715 -14.41045 -14.40657
 Alpha  occ. eigenvalues --  -10.45017 -10.41016 -10.39775 -10.38974 -10.38133
 Alpha  occ. eigenvalues --  -10.37432 -10.37288 -10.36465 -10.36447 -10.35293
 Alpha  occ. eigenvalues --  -10.34944 -10.34774 -10.34490 -10.34069 -10.34013
 Alpha  occ. eigenvalues --  -10.33144 -10.33108 -10.32339 -10.31900 -10.30684
 Alpha  occ. eigenvalues --  -10.30057 -10.29648 -10.27913  -1.19118  -1.14621
 Alpha  occ. eigenvalues --   -1.13134  -1.12692  -1.12687  -1.10408  -1.09179
 Alpha  occ. eigenvalues --   -1.08442  -1.08324  -1.06042  -1.03901  -1.02278
 Alpha  occ. eigenvalues --   -1.01535  -1.00440  -0.99586  -0.98365  -0.98235
 Alpha  occ. eigenvalues --   -0.96314  -0.96047  -0.93674  -0.90978  -0.88098
 Alpha  occ. eigenvalues --   -0.86258  -0.85182  -0.83852  -0.83557  -0.83271
 Alpha  occ. eigenvalues --   -0.82082  -0.78656  -0.76310  -0.74488  -0.74100
 Alpha  occ. eigenvalues --   -0.74027  -0.73480  -0.73299  -0.72153  -0.70011
 Alpha  occ. eigenvalues --   -0.67457  -0.67332  -0.67112  -0.65886  -0.65064
 Alpha  occ. eigenvalues --   -0.63974  -0.63849  -0.63434  -0.63174  -0.62483
 Alpha  occ. eigenvalues --   -0.61557  -0.61304  -0.60102  -0.59370  -0.59064
 Alpha  occ. eigenvalues --   -0.58863  -0.58182  -0.57901  -0.57605  -0.56528
 Alpha  occ. eigenvalues --   -0.55998  -0.55585  -0.55486  -0.54942  -0.54216
 Alpha  occ. eigenvalues --   -0.53997  -0.53397  -0.53153  -0.52988  -0.52543
 Alpha  occ. eigenvalues --   -0.52531  -0.51852  -0.51405  -0.51226  -0.50225
 Alpha  occ. eigenvalues --   -0.49856  -0.49579  -0.49291  -0.49200  -0.48939
 Alpha  occ. eigenvalues --   -0.48464  -0.48181  -0.48064  -0.47953  -0.47520
 Alpha  occ. eigenvalues --   -0.47187  -0.46163  -0.45271  -0.43360  -0.42273
 Alpha  occ. eigenvalues --   -0.41983  -0.40032  -0.39096  -0.38237  -0.37243
 Alpha  occ. eigenvalues --   -0.37071  -0.37026  -0.36902  -0.35895  -0.34673
 Alpha  occ. eigenvalues --   -0.34615  -0.34106  -0.33727  -0.33470  -0.32948
 Alpha  occ. eigenvalues --   -0.32622  -0.32467  -0.31752  -0.31413  -0.31294
 Alpha  occ. eigenvalues --   -0.31124  -0.28650  -0.26884  -0.25307
 Alpha virt. eigenvalues --    0.02602   0.05439   0.06689   0.06783   0.09187
 Alpha virt. eigenvalues --    0.09396   0.09775   0.10441   0.11245   0.12104
 Alpha virt. eigenvalues --    0.12823   0.13298   0.14524   0.14671   0.15039

 Mulliken charges:
               1
     1  N   -0.307489
     2  C    0.181579
     3  C    0.064509
     4  N   -0.245841
     5  C    0.120156
     6  H    0.028450
     7  N   -0.274751
     8  C    0.147156
     9  H    0.009399
    10  N   -0.279400
    11  C    0.204279
    12  C    0.073809
    13  N   -0.038908
    14  H    0.109734
    15  H    0.090260
    16  H    0.031162
    17  H    0.039154
    18  H    0.026832
    19  N   -0.290542
    20  C    0.230127
    21  C    0.217630
    22  N   -0.111407
    23  H    0.115935
    24  H    0.117001
    25  N   -0.294748
    26  C    0.217625
    27  N   -0.141507
    28  H    0.128185
    29  C    0.166248
    30  O   -0.323128
    31  C    0.000266
    32  N   -0.222815
    33  C    0.128644
    34  H    0.022030
    35  H   -0.022486
    36  H    0.033007
    37  H    0.017848
    38  H    0.049230
    39  H    0.054415
    40  H    0.069674
    41  H    0.027119
    42  C   -0.072788
    43  O   -0.266515
    44  C    0.168426
    45  H    0.133522
    46  N   -0.122908
    47  O   -0.331572
    48  C    0.325547
    49  H    0.041510
    50  C    0.149802
    51  C    0.050607
    52  N   -0.277235
    53  H    0.026999
    54  H    0.038252
    55  H   -0.015991
    56  H    0.119778
    57  H    0.120860
    58  N   -0.058442
    59  C    0.127358
    60  C    0.199383
    61  N   -0.256541
    62  H    0.037987
    63  C    0.142719
    64  N   -0.305254
    65  H    0.030137
    66  C    0.119890
    67  N   -0.243133
    68  C    0.030924
    69  C    0.215813
    70  N   -0.297576
 Sum of Mulliken charges =  -0.00000

 Dipole moment (field-independent basis, Debye):
    X=              3.8014    Y=             -4.9958    Z=             -5.9244  Tot=              8.6318
 Quadrupole moment (field-independent basis, Debye-Ang):
   XX=           -145.5365   YY=           -224.5814   ZZ=           -263.6685
   XY=            -14.4320   XZ=            -16.8865   YZ=              1.2217

 Normal termination of Gaussian 16 at Thu Jan 25 06:36:24 2018.
