 Gaussian 16, Revision A.03,
 Gaussian 16:  EM64L-G16RevA.03 25-Dec-2016

 ---------------------------------------
 #p wb97xd/cc-pvdz sp scf=(maxcycles=20)
 ---------------------------------------

 ------------------
 Base pair stacking
 ------------------
 Symbolic Z-matrix:
 Charge =  0 Multiplicity = 1

                         Standard orientation:
 ---------------------------------------------------------------------
 Center     Atomic      Atomic             Coordinates (Angstroms)
 Number     Number       Type             X           Y           Z
 ---------------------------------------------------------------------
      1          7           0       -7.003450    0.409581   -0.312774
      2          6           0       -8.211586   -0.426781   -0.450286
      3          6           0       -4.930170    1.141366   -0.370469
      4          7           0       -5.686441    2.161647    0.187935
      5          6           0       -6.905247    1.679936    0.200349
      6          1           0       -7.778920    2.213313    0.576051
      7          7           0       -3.127386   -0.123807   -1.214424
      8          6           0       -4.019397   -1.088740   -1.460990
      9          1           0       -3.612998   -1.993970   -1.910071
     10          7           0       -5.331866   -1.103300   -1.237158
     11          6           0       -5.728189    0.054968   -0.684205
     12          6           0       -3.557606    1.029446   -0.657628
     13          7           0       -2.668703    1.993837   -0.410741
     14          1           0       -2.942507    2.863989    0.000467
     15          1           0       -1.699292    1.879523   -0.628286
     16          1           0       -8.875912    0.038492   -1.035405
     17          1           0       -7.965299   -1.304655   -0.859904
     18          1           0       -8.615675   -0.583070    0.450977
     19          7           0       -3.109741   -1.189041    1.475854
     20          6           0       -1.802389   -1.411790    1.116352
     21          6           0       -4.262278   -2.011958    1.057331
     22          7           0        0.569045   -3.284646   -0.595517
     23          1           0        1.558628   -3.270959   -0.736103
     24          1           0        0.056882   -4.016567   -1.045748
     25          7           0       -1.354613   -2.411813    0.326730
     26          6           0       -0.044533   -2.363336    0.162526
     27          7           0        0.766771   -1.409345    0.727501
     28          1           0        1.758168   -1.450055    0.547385
     29          6           0        0.327743   -0.371242    1.543263
     30          8           0        1.143215    0.437720    2.002974
     31          6           0       -1.077572   -0.410155    1.728866
     32          7           0       -1.913080    0.424632    2.458224
     33          6           0       -3.105818   -0.074881    2.279153
     34          1           0       -4.020661    0.331703    2.711612
     35          1           0       -4.911630   -1.445926    0.550620
     36          1           0       -3.942831   -2.755966    0.471945
     37          1           0       -4.711921   -2.393667    1.864143
     38          1           0        6.498941   -1.827014   -1.251409
     39          1           0        6.801287   -2.614460    0.295574
     40          1           0        5.221525   -2.763247   -0.474854
     41          1           0        6.759893    2.001854    1.650017
     42          6           0        6.055202    1.213119    1.386266
     43          8           0        4.178478    2.324591    2.318816
     44          6           0        4.674784    1.363051    1.732379
     45          1           0        2.887426    0.377889    1.580234
     46          7           0        3.869365    0.308288    1.352888
     47          8           0        3.466893   -1.714342    0.401988
     48          6           0        4.255507   -0.833351    0.696304
     49          1           0        7.500632   -0.051322    0.460130
     50          6           0        6.462149    0.110986    0.745716
     51          6           0        6.061321   -2.106097   -0.304484
     52          7           0        5.601855   -0.904249    0.397076
     53          1           0        4.369372   -1.550072   -3.323130
     54          1           0        3.259899   -2.140734   -2.282791
     55          1           0        4.777647   -1.831282   -1.768245
     56          1           0        0.405349    4.009879   -0.418128
     57          1           0        2.055296    4.165090   -0.822734
     58          7           0        1.253896    3.574883   -0.719615
     59          6           0        1.315120    2.266009   -0.973153
     60          6           0        2.390140    0.244803   -1.621839
     61          7           0        1.298023   -0.523356   -1.474754
     62          1           0       -0.667770   -0.337560   -0.925441
     63          6           0        0.262714    0.209712   -1.070203
     64          7           0        0.199381    1.520736   -0.815725
     65          1           0        5.470073    0.955666   -2.300708
     66          6           0        4.416812    0.981454   -2.019760
     67          7           0        3.769286    2.060668   -1.654116
     68          6           0        2.483071    1.607600   -1.398952
     69          6           0        4.044574   -1.528822   -2.377588
     70          7           0        3.643313   -0.153630   -2.022830
 ---------------------------------------------------------------------

 SCF Done:  E(RwB97XD) =  -2048.68440817     A.U. after   15 cycles

 The electronic state is 1-A.
 Alpha  occ. eigenvalues --  -19.26226 -19.22082 -19.20447 -14.53100 -14.51017
 Alpha  occ. eigenvalues --  -14.50580 -14.48104 -14.47858 -14.46582 -14.46104
 Alpha  occ. eigenvalues --  -14.46033 -14.43890 -14.43740 -14.43247 -14.42997
 Alpha  occ. eigenvalues --  -14.42561 -14.42207 -14.41705 -14.41692 -14.40342
 Alpha  occ. eigenvalues --  -10.45935 -10.40600 -10.40195 -10.38398 -10.38036
 Alpha  occ. eigenvalues --  -10.37878 -10.37114 -10.36596 -10.36474 -10.35878
 Alpha  occ. eigenvalues --  -10.35709 -10.35066 -10.34604 -10.34475 -10.33809
 Alpha  occ. eigenvalues --  -10.32789 -10.32523 -10.32395 -10.31409 -10.31021
 Alpha  occ. eigenvalues --  -10.30452 -10.28523 -10.27750  -1.20050  -1.13802
 Alpha  occ. eigenvalues --   -1.13236  -1.13115  -1.12969  -1.10160  -1.09919
 Alpha  occ. eigenvalues --   -1.08264  -1.07775  -1.06779  -1.03412  -1.02837
 Alpha  occ. eigenvalues --   -1.02305  -0.99545  -0.99269  -0.98706  -0.98160
 Alpha  occ. eigenvalues --   -0.95950  -0.95392  -0.94401  -0.91576  -0.86571
 Alpha  occ. eigenvalues --   -0.85724  -0.85503  -0.84009  -0.83945  -0.83519
 Alpha  occ. eigenvalues --   -0.81498  -0.79324  -0.75753  -0.74646  -0.74165
 Alpha  occ. eigenvalues --   -0.73755  -0.73570  -0.73170  -0.72799  -0.69194
 Alpha  occ. eigenvalues --   -0.68014  -0.67138  -0.66773  -0.65686  -0.64909
 Alpha  occ. eigenvalues --   -0.64395  -0.63425  -0.63017  -0.62691  -0.62072
 Alpha  occ. eigenvalues --   -0.61735  -0.61265  -0.59883  -0.59587  -0.58780
 Alpha  occ. eigenvalues --   -0.58681  -0.57978  -0.57889  -0.57083  -0.56958
 Alpha  occ. eigenvalues --   -0.56679  -0.56207  -0.55870  -0.54945  -0.54671
 Alpha  occ. eigenvalues --   -0.54015  -0.53465  -0.53402  -0.53088  -0.52409
 Alpha  occ. eigenvalues --   -0.52028  -0.51810  -0.51661  -0.51112  -0.50823
 Alpha  occ. eigenvalues --   -0.50630  -0.49923  -0.49527  -0.48708  -0.48544
 Alpha  occ. eigenvalues --   -0.48393  -0.48265  -0.48168  -0.47849  -0.47393
 Alpha  occ. eigenvalues --   -0.47168  -0.46104  -0.45429  -0.44467  -0.42775
 Alpha  occ. eigenvalues --   -0.41083  -0.39922  -0.39694  -0.38905  -0.37124
 Alpha  occ. eigenvalues --   -0.36945  -0.36368  -0.36022  -0.35730  -0.35239
 Alpha  occ. eigenvalues --   -0.35026  -0.34242  -0.33479  -0.33310  -0.33202
 Alpha  occ. eigenvalues --   -0.32617  -0.32422  -0.32143  -0.31905  -0.31582
 Alpha  occ. eigenvalues --   -0.31270  -0.27693  -0.27067  -0.25123
 Alpha virt. eigenvalues --    0.02754   0.05140   0.05947   0.07923   0.08527
 Alpha virt. eigenvalues --    0.08647   0.09877   0.10358   0.11257   0.12075
 Alpha virt. eigenvalues --    0.12136   0.13095   0.14666   0.14797   0.15077

 Mulliken charges:
               1
     1  N   -0.310431
     2  C    0.179846
     3  C    0.047673
     4  N   -0.254219
     5  C    0.133457
     6  H    0.031963
     7  N   -0.249992
     8  C    0.089299
     9  H    0.023623
    10  N   -0.282293
    11  C    0.219387
    12  C    0.075117
    13  N   -0.032050
    14  H    0.107259
    15  H    0.089786
    16  H    0.030374
    17  H    0.036881
    18  H    0.027925
    19  N   -0.294504
    20  C    0.229533
    21  C    0.235734
    22  N   -0.093448
    23  H    0.109955
    24  H    0.112718
    25  N   -0.282969
    26  C    0.194382
    27  N   -0.108538
    28  H    0.127720
    29  C    0.128563
    30  O   -0.323969
    31  C    0.022565
    32  N   -0.225927
    33  C    0.111488
    34  H    0.024252
    35  H    0.006293
    36  H    0.022186
    37  H    0.011512
    38  H    0.050912
    39  H    0.058159
    40  H    0.079833
    41  H    0.033596
    42  C   -0.086316
    43  O   -0.260025
    44  C    0.185645
    45  H    0.132580
    46  N   -0.121511
    47  O   -0.347124
    48  C    0.335342
    49  H    0.045975
    50  C    0.150352
    51  C    0.085092
    52  N   -0.293218
    53  H    0.029350
    54  H    0.027175
    55  H   -0.080611
    56  H    0.115434
    57  H    0.121763
    58  N   -0.068862
    59  C    0.141599
    60  C    0.212350
    61  N   -0.290043
    62  H    0.042391
    63  C    0.166947
    64  N   -0.307347
    65  H    0.022085
    66  C    0.112371
    67  N   -0.249980
    68  C    0.038463
    69  C    0.238253
    70  N   -0.291779
 Sum of Mulliken charges =  -0.00000

 Dipole moment (field-independent basis, Debye):
    X=              3.4422    Y=             -5.2865    Z=             -5.3842  Tot=              8.2937
 Quadrupole moment (field-independent basis, Debye-Ang):
   XX=           -138.6626   YY=           -226.8870   ZZ=           -261.1989
   XY=            -20.8936   XZ=            -22.3089   YZ=             -3.3227

 Normal termination of Gaussian 16 at Thu Jan 25 13:39:59 2018.
