 Gaussian 16, Revision A.03,
 Gaussian 16:  EM64L-G16RevA.03 25-Dec-2016

 ---------------------------------------
 #p wb97xd/cc-pvdz sp scf=(maxcycles=20)
 ---------------------------------------

 ------------------
 Base pair stacking
 ------------------
 Symbolic Z-matrix:
 Charge =  0 Multiplicity = 1

                         Standard orientation:
 ---------------------------------------------------------------------
 Center     Atomic      Atomic             Coordinates (Angstroms)
 Number     Number       Type             X           Y           Z
 ---------------------------------------------------------------------
      1          7           0       -5.689961   -1.664876    0.422384
      2          6           0       -6.939464   -1.506580    1.191592
      3          6           0       -3.570025   -1.787153   -0.150515
      4          7           0       -4.298826   -2.015882   -1.308645
      5          6           0       -5.546838   -1.933057   -0.917145
      6          1           0       -6.411081   -2.060275   -1.569719
      7          7           0       -1.792390   -1.489704    1.370841
      8          6           0       -2.726945   -1.299055    2.307767
      9          1           0       -2.347657   -1.100347    3.309225
     10          7           0       -4.053458   -1.316923    2.193893
     11          6           0       -4.413816   -1.569206    0.924679
     12          6           0       -2.187180   -1.741456    0.103613
     13          7           0       -1.255771   -1.932044   -0.833053
     14          1           0       -1.502328   -2.121185   -1.784185
     15          1           0       -0.280330   -1.892288   -0.616099
     16          1           0       -7.476667   -2.348188    1.134289
     17          1           0       -6.720982   -1.316233    2.148241
     18          1           0       -7.471006   -0.747641    0.815474
     19          7           0       -4.546293    1.784675   -0.513269
     20          6           0       -3.226109    1.935565   -0.163413
     21          6           0       -5.699371    2.243337    0.287199
     22          7           0       -0.815919    3.061884    2.069105
     23          1           0        0.181453    3.070270    2.135600
     24          1           0       -1.324449    3.478292    2.823241
     25          7           0       -2.764192    2.523453    0.961340
     26          6           0       -1.444137    2.516941    1.016351
     27          7           0       -0.636409    1.976569    0.045227
     28          1           0        0.363362    2.016573    0.171058
     29          6           0       -1.089905    1.366718   -1.120233
     30          8           0       -0.276452    0.910602   -1.933243
     31          6           0       -2.506067    1.366102   -1.193493
     32          7           0       -3.357087    0.867733   -2.170371
     33          6           0       -4.554102    1.138000   -1.725046
     34          1           0       -5.480562    0.886873   -2.242610
     35          1           0       -6.273790    1.461119    0.525904
     36          1           0       -5.369500    2.680489    1.122868
     37          1           0       -6.234678    2.900404   -0.242444
     38          1           0        5.214526    1.961552    1.692836
     39          1           0        5.344077    3.367769    0.639082
     40          1           0        3.829944    3.033438    1.479893
     41          1           0        5.421977   -0.178750   -2.610950
     42          6           0        4.703144    0.354032   -1.988336
     43          8           0        2.812797   -0.389737   -3.213277
     44          6           0        3.307711    0.256461   -2.290089
     45          1           0        1.492076    0.924168   -1.622278
     46          7           0        2.484963    0.968630   -1.440874
     47          8           0        2.062656    2.331489    0.325895
     48          6           0        2.867076    1.736370   -0.369372
     49          1           0        6.156009    1.201872   -0.678306
     50          6           0        5.106595    1.095124   -0.949766
     51          6           0        4.684481    2.588912    0.991744
     52          7           0        4.228635    1.780810   -0.142679
     53          1           0        5.758669   -1.230643    3.736569
     54          1           0        4.473549   -0.229837    3.641876
     55          1           0        5.931929    0.261034    3.097587
     56          1           0        1.960513   -2.564851   -2.497167
     57          1           0        3.656562   -2.718903   -2.398270
     58          7           0        2.798979   -2.435429   -1.967665
     59          6           0        2.775640   -1.908364   -0.741770
     60          6           0        3.741412   -1.148598    1.295816
     61          7           0        2.575101   -0.776948    1.849016
     62          1           0        0.578696   -0.743655    1.386522
     63          6           0        1.565359   -1.016855    1.014872
     64          7           0        1.586699   -1.544682   -0.213341
     65          1           0        6.935054   -1.606826    1.088892
     66          6           0        5.860557   -1.559100    0.909676
     67          7           0        5.269760   -1.960713   -0.189124
     68          6           0        3.925808   -1.706042    0.042512
     69          6           0        5.315462   -0.521181    3.188632
     70          7           0        4.995727   -1.056346    1.850962
 ---------------------------------------------------------------------

 SCF Done:  E(RwB97XD) =  -2048.73136664     A.U. after   15 cycles

 The electronic state is 1-A.
 Alpha  occ. eigenvalues --  -19.25458 -19.21717 -19.20707 -14.52187 -14.51820
 Alpha  occ. eigenvalues --  -14.49361 -14.48947 -14.47505 -14.46949 -14.46689
 Alpha  occ. eigenvalues --  -14.45895 -14.44509 -14.43420 -14.43080 -14.42489
 Alpha  occ. eigenvalues --  -14.42041 -14.41801 -14.41324 -14.40817 -14.40661
 Alpha  occ. eigenvalues --  -10.45117 -10.41251 -10.39710 -10.38405 -10.38329
 Alpha  occ. eigenvalues --  -10.37218 -10.37073 -10.36404 -10.35855 -10.35313
 Alpha  occ. eigenvalues --  -10.34950 -10.34506 -10.34417 -10.33889 -10.33680
 Alpha  occ. eigenvalues --  -10.33533 -10.33381 -10.31754 -10.31651 -10.31208
 Alpha  occ. eigenvalues --  -10.30473 -10.28990 -10.28168  -1.19088  -1.14460
 Alpha  occ. eigenvalues --   -1.13262  -1.13085  -1.11892  -1.10679  -1.09051
 Alpha  occ. eigenvalues --   -1.08614  -1.07982  -1.05459  -1.03520  -1.02281
 Alpha  occ. eigenvalues --   -1.00817  -1.00071  -0.99773  -0.98570  -0.97466
 Alpha  occ. eigenvalues --   -0.96672  -0.95666  -0.93080  -0.90581  -0.86856
 Alpha  occ. eigenvalues --   -0.85326  -0.84532  -0.84177  -0.83535  -0.82932
 Alpha  occ. eigenvalues --   -0.82644  -0.78525  -0.76032  -0.74699  -0.73855
 Alpha  occ. eigenvalues --   -0.73647  -0.73377  -0.73054  -0.71501  -0.69356
 Alpha  occ. eigenvalues --   -0.67424  -0.66759  -0.66220  -0.65707  -0.64396
 Alpha  occ. eigenvalues --   -0.63702  -0.63270  -0.62998  -0.62635  -0.61783
 Alpha  occ. eigenvalues --   -0.60796  -0.60663  -0.59508  -0.59179  -0.58489
 Alpha  occ. eigenvalues --   -0.58399  -0.58293  -0.57832  -0.56972  -0.56210
 Alpha  occ. eigenvalues --   -0.55778  -0.55749  -0.55327  -0.54619  -0.54221
 Alpha  occ. eigenvalues --   -0.53749  -0.53664  -0.53014  -0.52897  -0.52341
 Alpha  occ. eigenvalues --   -0.52263  -0.51982  -0.51909  -0.51328  -0.50716
 Alpha  occ. eigenvalues --   -0.50355  -0.49935  -0.49635  -0.49229  -0.48976
 Alpha  occ. eigenvalues --   -0.48876  -0.48410  -0.47730  -0.47517  -0.47407
 Alpha  occ. eigenvalues --   -0.47400  -0.46167  -0.45171  -0.43135  -0.42501
 Alpha  occ. eigenvalues --   -0.41500  -0.39862  -0.39165  -0.37825  -0.37627
 Alpha  occ. eigenvalues --   -0.37261  -0.37109  -0.36583  -0.35714  -0.34504
 Alpha  occ. eigenvalues --   -0.34033  -0.33716  -0.33471  -0.33389  -0.33138
 Alpha  occ. eigenvalues --   -0.32724  -0.32469  -0.31934  -0.31365  -0.31024
 Alpha  occ. eigenvalues --   -0.30778  -0.27938  -0.26596  -0.25066
 Alpha virt. eigenvalues --    0.02990   0.04643   0.07262   0.08111   0.09022
 Alpha virt. eigenvalues --    0.09297   0.09694   0.10582   0.11059   0.11780
 Alpha virt. eigenvalues --    0.12979   0.14019   0.14164   0.14656   0.14829

 Mulliken charges:
               1
     1  N   -0.306696
     2  C    0.178681
     3  C    0.039821
     4  N   -0.233715
     5  C    0.112406
     6  H    0.024439
     7  N   -0.291950
     8  C    0.138700
     9  H    0.012661
    10  N   -0.288296
    11  C    0.240799
    12  C    0.087360
    13  N   -0.039109
    14  H    0.114677
    15  H    0.090970
    16  H    0.028513
    17  H    0.035551
    18  H    0.021302
    19  N   -0.304306
    20  C    0.255913
    21  C    0.186786
    22  N   -0.124594
    23  H    0.117394
    24  H    0.119049
    25  N   -0.309690
    26  C    0.248321
    27  N   -0.146601
    28  H    0.118568
    29  C    0.190357
    30  O   -0.329111
    31  C   -0.026101
    32  N   -0.215060
    33  C    0.131344
    34  H    0.019216
    35  H    0.010541
    36  H    0.033211
    37  H    0.025118
    38  H    0.039604
    39  H    0.060540
    40  H    0.078153
    41  H    0.021314
    42  C   -0.061210
    43  O   -0.280167
    44  C    0.141158
    45  H    0.132956
    46  N   -0.109106
    47  O   -0.350035
    48  C    0.342773
    49  H    0.038764
    50  C    0.165677
    51  C    0.046979
    52  N   -0.278678
    53  H    0.034329
    54  H    0.040724
    55  H    0.024597
    56  H    0.122515
    57  H    0.112949
    58  N   -0.004568
    59  C    0.058328
    60  C    0.237154
    61  N   -0.270384
    62  H    0.027284
    63  C    0.156632
    64  N   -0.294094
    65  H    0.032054
    66  C    0.114623
    67  N   -0.245380
    68  C    0.027101
    69  C    0.177326
    70  N   -0.306382
 Sum of Mulliken charges =  -0.00000

 Dipole moment (field-independent basis, Debye):
    X=              4.2265    Y=              3.5643    Z=              6.4807  Tot=              8.5186
 Quadrupole moment (field-independent basis, Debye-Ang):
   XX=           -145.4549   YY=           -233.7671   ZZ=           -250.0079
   XY=              5.6628   XZ=             14.7750   YZ=             15.6339

 Normal termination of Gaussian 16 at Thu Jan 25 10:06:14 2018.
