 Gaussian 16, Revision A.03,
 Gaussian 16:  EM64L-G16RevA.03 25-Dec-2016

 ---------------------------------------
 #p wb97xd/cc-pvdz sp scf=(maxcycles=20)
 ---------------------------------------

 ------------------
 Base pair stacking
 ------------------
 Symbolic Z-matrix:
 Charge =  0 Multiplicity = 1

                         Standard orientation:
 ---------------------------------------------------------------------
 Center     Atomic      Atomic             Coordinates (Angstroms)
 Number     Number       Type             X           Y           Z
 ---------------------------------------------------------------------
      1          7           0        4.243879   -0.290187    1.924469
      2          6           0        5.488965   -1.078175    1.841815
      3          6           0        2.132066    0.322810    1.881910
      4          7           0        2.856880    1.451886    2.234870
      5          6           0        4.100150    1.037391    2.246388
      6          1           0        4.960292    1.663630    2.484975
      7          7           0        0.363034   -1.142357    1.346441
      8          6           0        1.294603   -2.089256    1.194339
      9          1           0        0.917748   -3.071091    0.911090
     10          7           0        2.615606   -2.005789    1.338901
     11          6           0        2.973375   -0.758793    1.687339
     12          6           0        0.755084    0.101909    1.697399
     13          7           0       -0.173349    1.048476    1.849717
     14          1           0        0.071362    1.983478    2.108774
     15          1           0       -1.144634    0.855398    1.710152
     16          1           0        5.947202   -1.074186    2.730734
     17          1           0        5.272221   -2.019239    1.583834
     18          1           0        6.094736   -0.677084    1.154677
     19          7           0        5.961010    0.068942   -0.759028
     20          6           0        4.645438   -0.285903   -0.936258
     21          6           0        7.089810   -0.874461   -0.630590
     22          7           0        2.214495   -2.739782   -1.297829
     23          1           0        1.224227   -2.783704   -1.427000
     24          1           0        2.704973   -3.610375   -1.250747
     25          7           0        4.166783   -1.545887   -1.022167
     26          6           0        2.856743   -1.566616   -1.192354
     27          7           0        2.073535   -0.440713   -1.272549
     28          1           0        1.079808   -0.551793   -1.403447
     29          6           0        2.544578    0.865663   -1.186742
     30          8           0        1.752801    1.812568   -1.271436
     31          6           0        3.950270    0.904043   -1.003819
     32          7           0        4.812064    1.984206   -0.871661
     33          6           0        5.990937    1.441847   -0.729141
     34          1           0        6.919143    1.999143   -0.598279
     35          1           0        7.537845   -0.742443    0.252950
     36          1           0        6.747394   -1.811032   -0.692707
     37          1           0        7.747574   -0.711786   -1.365222
     38          1           0       -3.851929   -1.788966   -1.411842
     39          1           0       -3.711230   -1.487388   -3.142130
     40          1           0       -2.329560   -2.113162   -2.241694
     41          1           0       -3.958232    3.020467   -1.479384
     42          6           0       -3.233884    2.210059   -1.561727
     43          8           0       -1.354772    3.602763   -1.166182
     44          6           0       -1.841315    2.496386   -1.398575
     45          1           0       -0.019880    1.563383   -1.413079
     46          7           0       -1.011033    1.400651   -1.522036
     47          8           0       -0.572857   -0.800280   -1.870013
     48          6           0       -1.383452    0.104806   -1.778183
     49          1           0       -4.674780    0.685903   -1.944550
     50          6           0       -3.627933    0.956055   -1.812338
     51          6           0       -3.188391   -1.460004   -2.197697
     52          7           0       -2.742816   -0.091182   -1.922883
     53          1           0       -7.172307   -3.324737    0.279547
     54          1           0       -5.798922   -3.209464   -0.593735
     55          1           0       -7.196054   -2.609557   -1.187215
     56          1           0       -3.404602    2.750302    2.270508
     57          1           0       -5.109100    2.681533    2.263972
     58          7           0       -4.236718    2.246493    2.038343
     59          6           0       -4.186379    1.047759    1.453811
     60          6           0       -5.113574   -0.928162    0.506298
     61          7           0       -3.927848   -1.488111    0.214882
     62          1           0       -1.929081   -1.068869    0.387419
     63          6           0       -2.930057   -0.689329    0.588066
     64          7           0       -2.978429    0.511636    1.173640
     65          1           0       -8.331745   -0.673342    0.681288
     66          6           0       -7.254452   -0.515829    0.740956
     67          7           0       -6.684023    0.548570    1.250233
     68          6           0       -5.326583    0.300016    1.107741
     69          6           0       -6.656037   -2.752557   -0.357690
     70          7           0       -6.363587   -1.450195    0.271868
 ---------------------------------------------------------------------

 SCF Done:  E(RwB97XD) =  -2048.69768336     A.U. after   15 cycles

 The electronic state is 1-A.
 Alpha  occ. eigenvalues --  -19.24848 -19.21069 -19.20750 -14.52877 -14.51128
 Alpha  occ. eigenvalues --  -14.49801 -14.49067 -14.48463 -14.46906 -14.46810
 Alpha  occ. eigenvalues --  -14.46117 -14.45554 -14.44914 -14.44817 -14.43488
 Alpha  occ. eigenvalues --  -14.42140 -14.41845 -14.41654 -14.41600 -14.41502
 Alpha  occ. eigenvalues --  -10.44358 -10.41286 -10.40374 -10.39161 -10.38470
 Alpha  occ. eigenvalues --  -10.38132 -10.37763 -10.36619 -10.36536 -10.36503
 Alpha  occ. eigenvalues --  -10.34998 -10.34433 -10.34401 -10.34277 -10.34069
 Alpha  occ. eigenvalues --  -10.34018 -10.33026 -10.32300 -10.31403 -10.30583
 Alpha  occ. eigenvalues --  -10.30012 -10.29282 -10.28681  -1.18401  -1.15623
 Alpha  occ. eigenvalues --   -1.13691  -1.12073  -1.11759  -1.11410  -1.09981
 Alpha  occ. eigenvalues --   -1.08741  -1.08088  -1.06077  -1.05522  -1.01506
 Alpha  occ. eigenvalues --   -1.01410  -1.01262  -0.99713  -0.99098  -0.97720
 Alpha  occ. eigenvalues --   -0.97555  -0.97275  -0.93803  -0.89836  -0.88139
 Alpha  occ. eigenvalues --   -0.86342  -0.85272  -0.84488  -0.83677  -0.82586
 Alpha  occ. eigenvalues --   -0.81781  -0.77798  -0.77440  -0.75574  -0.75198
 Alpha  occ. eigenvalues --   -0.73888  -0.73600  -0.72248  -0.71969  -0.70906
 Alpha  occ. eigenvalues --   -0.67622  -0.67343  -0.67167  -0.65521  -0.64984
 Alpha  occ. eigenvalues --   -0.64674  -0.63664  -0.63036  -0.62732  -0.61919
 Alpha  occ. eigenvalues --   -0.61434  -0.61179  -0.60680  -0.60551  -0.60125
 Alpha  occ. eigenvalues --   -0.59164  -0.58581  -0.58218  -0.57530  -0.56461
 Alpha  occ. eigenvalues --   -0.56111  -0.55867  -0.55591  -0.54730  -0.54508
 Alpha  occ. eigenvalues --   -0.54035  -0.53596  -0.53428  -0.53353  -0.52725
 Alpha  occ. eigenvalues --   -0.52325  -0.52126  -0.51146  -0.50765  -0.50649
 Alpha  occ. eigenvalues --   -0.50454  -0.50228  -0.49528  -0.49503  -0.49373
 Alpha  occ. eigenvalues --   -0.49024  -0.48634  -0.47871  -0.47571  -0.47289
 Alpha  occ. eigenvalues --   -0.46929  -0.46258  -0.45510  -0.44592  -0.43135
 Alpha  occ. eigenvalues --   -0.40886  -0.40185  -0.38796  -0.38037  -0.38028
 Alpha  occ. eigenvalues --   -0.37890  -0.37818  -0.37325  -0.35497  -0.35098
 Alpha  occ. eigenvalues --   -0.34474  -0.34249  -0.34101  -0.33885  -0.33245
 Alpha  occ. eigenvalues --   -0.33151  -0.32395  -0.31981  -0.31816  -0.31290
 Alpha  occ. eigenvalues --   -0.30731  -0.29764  -0.26633  -0.25674
 Alpha virt. eigenvalues --    0.03296   0.04506   0.06528   0.06761   0.08521
 Alpha virt. eigenvalues --    0.09155   0.09387   0.10091   0.10370   0.12571
 Alpha virt. eigenvalues --    0.13292   0.13449   0.13724   0.14254   0.14861

 Mulliken charges:
               1
     1  N   -0.289919
     2  C    0.220414
     3  C    0.057687
     4  N   -0.243214
     5  C    0.145655
     6  H    0.027410
     7  N   -0.269551
     8  C    0.107319
     9  H   -0.003518
    10  N   -0.266160
    11  C    0.207290
    12  C    0.071451
    13  N   -0.055118
    14  H    0.114753
    15  H    0.086109
    16  H    0.021612
    17  H    0.035234
    18  H   -0.027694
    19  N   -0.303778
    20  C    0.194041
    21  C    0.190440
    22  N   -0.085684
    23  H    0.117345
    24  H    0.117246
    25  N   -0.269244
    26  C    0.187675
    27  N   -0.106792
    28  H    0.121565
    29  C    0.166153
    30  O   -0.315399
    31  C    0.016749
    32  N   -0.211592
    33  C    0.101662
    34  H    0.024401
    35  H    0.019049
    36  H    0.034859
    37  H    0.024872
    38  H    0.079478
    39  H    0.034613
    40  H    0.065191
    41  H    0.021381
    42  C   -0.088085
    43  O   -0.273189
    44  C    0.177051
    45  H    0.130653
    46  N   -0.122635
    47  O   -0.340166
    48  C    0.325135
    49  H    0.042109
    50  C    0.143745
    51  C    0.029184
    52  N   -0.266161
    53  H    0.036766
    54  H    0.046916
    55  H    0.031363
    56  H    0.123133
    57  H    0.121751
    58  N   -0.063625
    59  C    0.114083
    60  C    0.243076
    61  N   -0.298499
    62  H    0.041107
    63  C    0.162261
    64  N   -0.303816
    65  H    0.040415
    66  C    0.140823
    67  N   -0.255976
    68  C    0.039566
    69  C    0.175660
    70  N   -0.316632
 Sum of Mulliken charges =  -0.00000

 Dipole moment (field-independent basis, Debye):
    X=             -4.8842    Y=             -8.1023    Z=              0.3053  Tot=              9.4655
 Quadrupole moment (field-independent basis, Debye-Ang):
   XX=           -143.4958   YY=           -248.7935   ZZ=           -243.9919
   XY=             -1.3347   XZ=             12.8172   YZ=             20.5411

 Normal termination of Gaussian 16 at Thu Jan 25 13:52:37 2018.
