 Gaussian 16, Revision A.03,
 Gaussian 16:  EM64L-G16RevA.03 25-Dec-2016

 ---------------------------------------
 #p wb97xd/cc-pvdz sp scf=(maxcycles=20)
 ---------------------------------------

 ------------------
 Base pair stacking
 ------------------
 Symbolic Z-matrix:
 Charge =  0 Multiplicity = 1

                         Standard orientation:
 ---------------------------------------------------------------------
 Center     Atomic      Atomic             Coordinates (Angstroms)
 Number     Number       Type             X           Y           Z
 ---------------------------------------------------------------------
      1          7           0        5.085959   -1.647538   -0.884087
      2          6           0        6.333923   -1.293049   -1.587603
      3          6           0        2.968155   -1.870426   -0.334057
      4          7           0        3.697096   -2.494390    0.667954
      5          6           0        4.943825   -2.335141    0.296478
      6          1           0        5.807763   -2.702420    0.851145
      7          7           0        1.191012   -1.022380   -1.632349
      8          6           0        2.124187   -0.570295   -2.476384
      9          1           0        1.744556   -0.039405   -3.348337
     10          7           0        3.449663   -0.675047   -2.405359
     11          6           0        3.810553   -1.343712   -1.297629
     12          6           0        1.586294   -1.691211   -0.527134
     13          7           0        0.656275   -2.143266    0.316600
     14          1           0        0.903243   -2.643549    1.147229
     15          1           0       -0.318500   -1.997369    0.147284
     16          1           0        6.834491   -2.126587   -1.821741
     17          1           0        6.114998   -0.790899   -2.423686
     18          1           0        6.901501   -0.720555   -0.995901
     19          7           0        5.155374    1.199269    0.661271
     20          6           0        3.839310    1.464229    0.368354
     21          6           0        6.313936    1.638612   -0.142094
     22          7           0        1.449710    2.914551   -1.692756
     23          1           0        0.453816    2.994758   -1.724607
     24          1           0        1.963944    3.351575   -2.431186
     25          7           0        3.387057    2.164823   -0.694046
     26          6           0        2.068690    2.250967   -0.704614
     27          7           0        1.253749    1.694318    0.251170
     28          1           0        0.255951    1.810599    0.162569
     29          6           0        1.697249    0.969365    1.352818
     30          8           0        0.877890    0.508840    2.157360
     31          6           0        3.111483    0.868313    1.377789
     32          7           0        3.953675    0.241844    2.286162
     33          6           0        5.153228    0.464054    1.821494
     34          1           0        6.074571    0.113122    2.287591
     35          1           0        6.825612    0.839875   -0.456758
     36          1           0        5.991245    2.158610   -0.931862
     37          1           0        6.908573    2.216550    0.415772
     38          1           0       -4.629183    2.195666   -1.193846
     39          1           0       -4.630469    3.524007   -0.036192
     40          1           0       -3.168023    3.153245   -0.950071
     41          1           0       -4.860476   -0.244098    2.946277
     42          6           0       -4.124665    0.284704    2.340326
     43          8           0       -2.255933   -0.674267    3.442750
     44          6           0       -2.731237    0.071371    2.586660
     45          1           0       -0.893664    0.664291    1.908349
     46          7           0       -1.885895    0.788747    1.764447
     47          8           0       -1.421161    2.249464    0.088885
     48          6           0       -2.244553    1.658919    0.765595
     49          1           0       -5.552364    1.324303    1.145878
     50          6           0       -4.505495    1.127312    1.373066
     51          6           0       -4.036909    2.731477   -0.467084
     52          7           0       -3.605720    1.811469    0.589040
     53          1           0       -6.363388    0.286459   -3.607232
     54          1           0       -5.035088    1.150966   -3.219497
     55          1           0       -6.465560    1.490965   -2.510816
     56          1           0       -2.568814   -3.164660    1.755276
     57          1           0       -4.270817   -3.213018    1.650592
     58          7           0       -3.405770   -2.836701    1.316986
     59          6           0       -3.370958   -1.937525    0.331362
     60          6           0       -4.321745   -0.514516   -1.321747
     61          7           0       -3.145578   -0.026465   -1.749383
     62          1           0       -1.145390   -0.222913   -1.347819
     63          6           0       -2.139501   -0.565264   -1.063530
     64          7           0       -2.172303   -1.465993   -0.076017
     65          1           0       -7.530239   -0.893406   -1.202663
     66          6           0       -6.453050   -0.948114   -1.042592
     67          7           0       -5.870064   -1.710509   -0.150089
     68          6           0       -4.518514   -1.445224   -0.316474
     69          6           0       -5.884614    0.759188   -2.867436
     70          7           0       -5.575985   -0.197391   -1.786843
 ---------------------------------------------------------------------

 SCF Done:  E(RwB97XD) =  -2048.73851193     A.U. after   15 cycles

 The electronic state is 1-A.
 Alpha  occ. eigenvalues --  -19.25310 -19.21527 -19.20617 -14.52460 -14.51785
 Alpha  occ. eigenvalues --  -14.49313 -14.49109 -14.47595 -14.47160 -14.46765
 Alpha  occ. eigenvalues --  -14.46635 -14.45132 -14.44174 -14.44054 -14.42830
 Alpha  occ. eigenvalues --  -14.41920 -14.41666 -14.41454 -14.41064 -14.40956
 Alpha  occ. eigenvalues --  -10.44850 -10.41142 -10.39580 -10.39560 -10.38250
 Alpha  occ. eigenvalues --  -10.37744 -10.37121 -10.36919 -10.36030 -10.35648
 Alpha  occ. eigenvalues --  -10.34654 -10.34489 -10.34470 -10.34188 -10.33884
 Alpha  occ. eigenvalues --  -10.33662 -10.33572 -10.32321 -10.31801 -10.31427
 Alpha  occ. eigenvalues --  -10.30278 -10.29035 -10.28200  -1.18880  -1.15076
 Alpha  occ. eigenvalues --   -1.13239  -1.12532  -1.11873  -1.10780  -1.09047
 Alpha  occ. eigenvalues --   -1.08718  -1.08527  -1.05668  -1.04491  -1.01924
 Alpha  occ. eigenvalues --   -1.01006  -1.00793  -0.99693  -0.98564  -0.97556
 Alpha  occ. eigenvalues --   -0.96783  -0.96611  -0.93319  -0.90402  -0.87485
 Alpha  occ. eigenvalues --   -0.85959  -0.84890  -0.84138  -0.83385  -0.83057
 Alpha  occ. eigenvalues --   -0.82556  -0.78297  -0.76778  -0.74782  -0.74657
 Alpha  occ. eigenvalues --   -0.73628  -0.73463  -0.72755  -0.71617  -0.70145
 Alpha  occ. eigenvalues --   -0.67470  -0.66897  -0.66536  -0.65972  -0.64519
 Alpha  occ. eigenvalues --   -0.63997  -0.63519  -0.63271  -0.62611  -0.61792
 Alpha  occ. eigenvalues --   -0.61150  -0.60907  -0.60257  -0.59458  -0.59384
 Alpha  occ. eigenvalues --   -0.58993  -0.58599  -0.58335  -0.57179  -0.56054
 Alpha  occ. eigenvalues --   -0.55687  -0.55365  -0.55170  -0.54468  -0.54406
 Alpha  occ. eigenvalues --   -0.54141  -0.53612  -0.53491  -0.53069  -0.52742
 Alpha  occ. eigenvalues --   -0.52509  -0.52387  -0.51741  -0.51081  -0.50790
 Alpha  occ. eigenvalues --   -0.50186  -0.50051  -0.49397  -0.49181  -0.48964
 Alpha  occ. eigenvalues --   -0.48835  -0.48322  -0.48218  -0.47698  -0.47525
 Alpha  occ. eigenvalues --   -0.47208  -0.46252  -0.44683  -0.44314  -0.43373
 Alpha  occ. eigenvalues --   -0.41450  -0.40521  -0.38974  -0.37740  -0.37686
 Alpha  occ. eigenvalues --   -0.37376  -0.37260  -0.37055  -0.35836  -0.34778
 Alpha  occ. eigenvalues --   -0.34396  -0.34187  -0.33860  -0.33610  -0.32941
 Alpha  occ. eigenvalues --   -0.32573  -0.32403  -0.31892  -0.31683  -0.31050
 Alpha  occ. eigenvalues --   -0.30728  -0.29293  -0.27283  -0.24530
 Alpha virt. eigenvalues --    0.02846   0.04677   0.06590   0.06813   0.08409
 Alpha virt. eigenvalues --    0.09741   0.10029   0.10772   0.11215   0.12008
 Alpha virt. eigenvalues --    0.12459   0.13913   0.14229   0.14828   0.15306

 Mulliken charges:
               1
     1  N   -0.301821
     2  C    0.190324
     3  C    0.054045
     4  N   -0.234737
     5  C    0.127762
     6  H    0.024877
     7  N   -0.285195
     8  C    0.126178
     9  H    0.006613
    10  N   -0.272914
    11  C    0.232689
    12  C    0.069076
    13  N   -0.041315
    14  H    0.114436
    15  H    0.086224
    16  H    0.026624
    17  H    0.034733
    18  H    0.013460
    19  N   -0.297316
    20  C    0.240553
    21  C    0.194476
    22  N   -0.118674
    23  H    0.118105
    24  H    0.119431
    25  N   -0.292965
    26  C    0.227140
    27  N   -0.130091
    28  H    0.121659
    29  C    0.173502
    30  O   -0.322947
    31  C   -0.004430
    32  N   -0.209615
    33  C    0.109659
    34  H    0.019440
    35  H   -0.015364
    36  H    0.037068
    37  H    0.028190
    38  H    0.018094
    39  H    0.055127
    40  H    0.078082
    41  H    0.021988
    42  C   -0.097749
    43  O   -0.273849
    44  C    0.164879
    45  H    0.127559
    46  N   -0.104015
    47  O   -0.347336
    48  C    0.323702
    49  H    0.042253
    50  C    0.166008
    51  C    0.059773
    52  N   -0.266965
    53  H    0.036337
    54  H    0.046314
    55  H    0.030251
    56  H    0.124806
    57  H    0.117953
    58  N   -0.040377
    59  C    0.081505
    60  C    0.215472
    61  N   -0.268156
    62  H    0.024170
    63  C    0.160433
    64  N   -0.296346
    65  H    0.036852
    66  C    0.125026
    67  N   -0.251280
    68  C    0.050415
    69  C    0.180425
    70  N   -0.310233
 Sum of Mulliken charges =  -0.00000

 Dipole moment (field-independent basis, Debye):
    X=             -4.2905    Y=              3.9194    Z=             -6.7064  Tot=              8.8738
 Quadrupole moment (field-independent basis, Debye-Ang):
   XX=           -145.9659   YY=           -227.9053   ZZ=           -260.1236
   XY=            -10.8109   XZ=              5.5187   YZ=            -12.2109

 Normal termination of Gaussian 16 at Wed Jan 24 15:15:38 2018.
