 Gaussian 16, Revision A.03,
 Gaussian 16:  EM64L-G16RevA.03 25-Dec-2016

 ---------------------------------------
 #p wb97xd/cc-pvdz sp scf=(maxcycles=20)
 ---------------------------------------

 ------------------
 Base pair stacking
 ------------------
 Symbolic Z-matrix:
 Charge =  0 Multiplicity = 1

                         Standard orientation:
 ---------------------------------------------------------------------
 Center     Atomic      Atomic             Coordinates (Angstroms)
 Number     Number       Type             X           Y           Z
 ---------------------------------------------------------------------
      1          7           0        4.206273   -0.273437    2.085934
      2          6           0        5.441873   -1.080085    2.110494
      3          6           0        2.104042    0.356035    1.938569
      4          7           0        2.837601    1.507540    2.184848
      5          6           0        4.074753    1.082222    2.263770
      6          1           0        4.938857    1.720119    2.451772
      7          7           0        0.325251   -1.136829    1.526026
      8          6           0        1.246520   -2.105182    1.492192
      9          1           0        0.861558   -3.106963    1.306465
     10          7           0        2.565721   -2.022234    1.652593
     11          6           0        2.934005   -0.749697    1.874931
     12          6           0        0.727724    0.132858    1.751802
     13          7           0       -0.190409    1.100859    1.785936
     14          1           0        0.062235    2.055043    1.950006
     15          1           0       -1.161552    0.905392    1.648763
     16          1           0        5.884120   -0.987830    3.002729
     17          1           0        5.217090   -2.040501    1.948681
     18          1           0        6.065234   -0.760592    1.396811
     19          7           0        5.987370    0.056835   -0.826526
     20          6           0        4.675201   -0.296218   -1.030569
     21          6           0        7.123863   -0.883653   -0.759013
     22          7           0        2.265861   -2.740338   -1.562614
     23          1           0        1.276251   -2.783707   -1.696968
     24          1           0        2.763601   -3.608008   -1.572983
     25          7           0        4.207414   -1.551497   -1.202287
     26          6           0        2.897925   -1.571631   -1.376803
     27          7           0        2.105365   -0.449445   -1.383026
     28          1           0        1.112870   -0.559723   -1.523632
     29          6           0        2.565152    0.852071   -1.208317
     30          8           0        1.765538    1.795917   -1.231092
     31          6           0        3.970102    0.889754   -1.019664
     32          7           0        4.822447    1.965696   -0.812935
     33          6           0        6.005592    1.424809   -0.704241
     34          1           0        6.928780    1.979741   -0.533819
     35          1           0        7.569023   -0.807683    0.132542
     36          1           0        6.789527   -1.816727   -0.884879
     37          1           0        7.781675   -0.666426   -1.479362
     38          1           0       -3.808180   -1.834538   -1.627753
     39          1           0       -3.666625   -1.416006   -3.333468
     40          1           0       -2.281480   -2.089447   -2.473677
     41          1           0       -3.955104    2.967489   -1.371758
     42          6           0       -3.223746    2.170520   -1.506615
     43          8           0       -1.357291    3.549030   -1.013489
     44          6           0       -1.833985    2.456796   -1.321036
     45          1           0       -0.004680    1.542077   -1.393672
     46          7           0       -0.994202    1.378806   -1.515855
     47          8           0       -0.536712   -0.789983   -2.010045
     48          6           0       -1.355118    0.100085   -1.859565
     49          1           0       -4.650913    0.663644   -1.994790
     50          6           0       -3.606661    0.932993   -1.842044
     51          6           0       -3.145898   -1.447902   -2.388000
     52          7           0       -2.712481   -0.097019   -2.020573
     53          1           0       -7.218553   -3.332202    0.549444
     54          1           0       -5.828304   -3.325395   -0.304523
     55          1           0       -7.206334   -2.775207   -0.984518
     56          1           0       -3.405395    2.874752    1.963339
     57          1           0       -5.110272    2.825369    1.931263
     58          7           0       -4.239945    2.358950    1.769407
     59          6           0       -4.195347    1.104836    1.315127
     60          6           0       -5.132023   -0.949026    0.562758
     61          7           0       -3.948938   -1.550211    0.354652
     62          1           0       -1.948097   -1.138247    0.520638
     63          6           0       -2.947292   -0.728154    0.661000
     64          7           0       -2.989915    0.528275    1.116131
     65          1           0       -8.349074   -0.640027    0.648024
     66          6           0       -7.270986   -0.489563    0.711537
     67          7           0       -6.695453    0.615865    1.117069
     68          6           0       -5.339156    0.338038    1.027632
     69          6           0       -6.683257   -2.836295   -0.134326
     70          7           0       -6.384562   -1.478355    0.360451
 ---------------------------------------------------------------------

 SCF Done:  E(RwB97XD) =  -2048.74625415     A.U. after   15 cycles

 The electronic state is 1-A.
 Alpha  occ. eigenvalues --  -19.24983 -19.21259 -19.20768 -14.52643 -14.51364
 Alpha  occ. eigenvalues --  -14.49766 -14.49065 -14.48340 -14.47017 -14.46935
 Alpha  occ. eigenvalues --  -14.46584 -14.45399 -14.44795 -14.44709 -14.43265
 Alpha  occ. eigenvalues --  -14.42279 -14.41776 -14.41720 -14.41497 -14.41293
 Alpha  occ. eigenvalues --  -10.44540 -10.41426 -10.40222 -10.39321 -10.38501
 Alpha  occ. eigenvalues --  -10.37986 -10.37556 -10.36633 -10.36401 -10.36335
 Alpha  occ. eigenvalues --  -10.35013 -10.34287 -10.34197 -10.34154 -10.33953
 Alpha  occ. eigenvalues --  -10.33952 -10.32894 -10.32865 -10.32143 -10.31078
 Alpha  occ. eigenvalues --  -10.30072 -10.29182 -10.28680  -1.18522  -1.15392
 Alpha  occ. eigenvalues --   -1.13572  -1.12243  -1.11703  -1.11303  -1.09710
 Alpha  occ. eigenvalues --   -1.08734  -1.08230  -1.05913  -1.05207  -1.01587
 Alpha  occ. eigenvalues --   -1.01276  -1.01070  -0.99813  -0.98994  -0.97464
 Alpha  occ. eigenvalues --   -0.97367  -0.97184  -0.93597  -0.89965  -0.87902
 Alpha  occ. eigenvalues --   -0.86109  -0.84970  -0.84390  -0.83444  -0.82708
 Alpha  occ. eigenvalues --   -0.82180  -0.77910  -0.77257  -0.75245  -0.75155
 Alpha  occ. eigenvalues --   -0.73824  -0.73534  -0.72393  -0.71765  -0.70655
 Alpha  occ. eigenvalues --   -0.67663  -0.67079  -0.66955  -0.65636  -0.64877
 Alpha  occ. eigenvalues --   -0.64454  -0.63397  -0.63123  -0.62809  -0.61989
 Alpha  occ. eigenvalues --   -0.61028  -0.60832  -0.60313  -0.59901  -0.59501
 Alpha  occ. eigenvalues --   -0.58871  -0.58689  -0.58334  -0.57191  -0.56259
 Alpha  occ. eigenvalues --   -0.55716  -0.55544  -0.55472  -0.54621  -0.54379
 Alpha  occ. eigenvalues --   -0.54250  -0.53831  -0.53402  -0.53098  -0.52933
 Alpha  occ. eigenvalues --   -0.52282  -0.52082  -0.51172  -0.50847  -0.50645
 Alpha  occ. eigenvalues --   -0.50559  -0.50306  -0.49532  -0.49527  -0.49361
 Alpha  occ. eigenvalues --   -0.48871  -0.48762  -0.48061  -0.47542  -0.47248
 Alpha  occ. eigenvalues --   -0.47084  -0.46013  -0.45555  -0.44826  -0.42984
 Alpha  occ. eigenvalues --   -0.41506  -0.40715  -0.38880  -0.37956  -0.37855
 Alpha  occ. eigenvalues --   -0.37792  -0.37689  -0.37419  -0.35320  -0.35040
 Alpha  occ. eigenvalues --   -0.34682  -0.34151  -0.34032  -0.33755  -0.33340
 Alpha  occ. eigenvalues --   -0.33218  -0.32486  -0.32065  -0.31632  -0.31387
 Alpha  occ. eigenvalues --   -0.31046  -0.29804  -0.26625  -0.25828
 Alpha virt. eigenvalues --    0.03445   0.04431   0.06616   0.07232   0.08590
 Alpha virt. eigenvalues --    0.09105   0.09361   0.10179   0.10283   0.12609
 Alpha virt. eigenvalues --    0.13419   0.13601   0.13777   0.14269   0.14924

 Mulliken charges:
               1
     1  N   -0.295152
     2  C    0.209839
     3  C    0.044282
     4  N   -0.239603
     5  C    0.146506
     6  H    0.027808
     7  N   -0.283761
     8  C    0.115015
     9  H    0.003935
    10  N   -0.270891
    11  C    0.222833
    12  C    0.076915
    13  N   -0.055146
    14  H    0.116990
    15  H    0.088268
    16  H    0.026017
    17  H    0.037035
    18  H   -0.024121
    19  N   -0.301619
    20  C    0.220021
    21  C    0.180213
    22  N   -0.106849
    23  H    0.118362
    24  H    0.118483
    25  N   -0.294125
    26  C    0.231519
    27  N   -0.127115
    28  H    0.119360
    29  C    0.176655
    30  O   -0.316350
    31  C    0.002111
    32  N   -0.212177
    33  C    0.101696
    34  H    0.024274
    35  H    0.023722
    36  H    0.033902
    37  H    0.027846
    38  H    0.064944
    39  H    0.044880
    40  H    0.069125
    41  H    0.019085
    42  C   -0.088381
    43  O   -0.275953
    44  C    0.177276
    45  H    0.130784
    46  N   -0.124073
    47  O   -0.345969
    48  C    0.332238
    49  H    0.043510
    50  C    0.144791
    51  C    0.036896
    52  N   -0.266924
    53  H    0.036332
    54  H    0.044238
    55  H    0.029893
    56  H    0.124824
    57  H    0.120793
    58  N   -0.058952
    59  C    0.102748
    60  C    0.235698
    61  N   -0.285198
    62  H    0.039550
    63  C    0.159032
    64  N   -0.303870
    65  H    0.039774
    66  C    0.140221
    67  N   -0.256956
    68  C    0.040883
    69  C    0.176790
    70  N   -0.314727
 Sum of Mulliken charges =  -0.00000

 Dipole moment (field-independent basis, Debye):
    X=             -4.7190    Y=             -7.9180    Z=             -0.6268  Tot=              9.2388
 Quadrupole moment (field-independent basis, Debye-Ang):
   XX=           -144.2438   YY=           -247.5057   ZZ=           -242.1938
   XY=             -1.1773   XZ=             13.2658   YZ=             19.7850

 Normal termination of Gaussian 16 at Fri Jan 26 13:40:49 2018.
