 Gaussian 16, Revision A.03,
 Gaussian 16:  EM64L-G16RevA.03 25-Dec-2016

 ---------------------------------------
 #p wb97xd/cc-pvdz sp scf=(maxcycles=20)
 ---------------------------------------

 ------------------
 Base pair stacking
 ------------------
 Symbolic Z-matrix:
 Charge =  0 Multiplicity = 1

                         Standard orientation:
 ---------------------------------------------------------------------
 Center     Atomic      Atomic             Coordinates (Angstroms)
 Number     Number       Type             X           Y           Z
 ---------------------------------------------------------------------
      1          7           0        4.224328   -0.273280    2.006426
      2          6           0        5.465110   -1.071908    1.980830
      3          6           0        2.116922    0.348503    1.908776
      4          7           0        2.845598    1.491716    2.203423
      5          6           0        4.086069    1.071367    2.250458
      6          1           0        4.947937    1.705246    2.460998
      7          7           0        0.343625   -1.134649    1.441238
      8          6           0        1.270530   -2.094087    1.352423
      9          1           0        0.890078   -3.088338    1.122255
     10          7           0        2.590657   -2.010143    1.504527
     11          6           0        2.953115   -0.747323    1.784429
     12          6           0        0.740315    0.125383    1.724123
     13          7           0       -0.183469    1.084482    1.813188
     14          1           0        0.064780    2.031348    2.020635
     15          1           0       -1.154634    0.889354    1.675674
     16          1           0        5.915203   -1.019672    2.872384
     17          1           0        5.244782   -2.024935    1.775073
     18          1           0        6.079680   -0.714352    1.277651
     19          7           0        5.975178    0.059672   -0.792782
     20          6           0        4.661310   -0.295401   -0.981824
     21          6           0        7.107815   -0.882324   -0.690447
     22          7           0        2.241163   -2.747937   -1.417400
     23          1           0        1.251233   -2.792246   -1.548990
     24          1           0        2.735271   -3.617463   -1.395028
     25          7           0        4.188082   -1.554355   -1.104854
     26          6           0        2.878326   -1.575643   -1.277143
     27          7           0        2.090444   -0.451185   -1.325551
     28          1           0        1.097335   -0.562585   -1.460813
     29          6           0        2.555866    0.854114   -1.201290
     30          8           0        1.760174    1.799750   -1.259399
     31          6           0        3.961171    0.893075   -1.015645
     32          7           0        4.818242    1.972548   -0.851145
     33          6           0        5.999257    1.431240   -0.723015
     34          1           0        6.924950    1.988400   -0.574911
     35          1           0        7.554331   -0.774127    0.197095
     36          1           0        6.769438   -1.818114   -0.780145
     37          1           0        7.765684   -0.695620   -1.419259
     38          1           0       -3.829112   -1.819706   -1.511030
     39          1           0       -3.687819   -1.467411   -3.231672
     40          1           0       -2.304483   -2.113260   -2.348127
     41          1           0       -3.955697    2.989184   -1.439038
     42          6           0       -3.227834    2.184556   -1.544005
     43          8           0       -1.355060    3.573060   -1.105939
     44          6           0       -1.836669    2.471870   -1.370943
     45          1           0       -0.011286    1.547344   -1.410335
     46          7           0       -1.001616    1.383685   -1.525168
     47          8           0       -0.553758   -0.804364   -1.936373
     48          6           0       -1.368276    0.094266   -1.819276
     49          1           0       -4.661844    0.666112   -1.972653
     50          6           0       -3.616298    0.936713   -1.831387
     51          6           0       -3.166119   -1.465277   -2.286210
     52          7           0       -2.726641   -0.103142   -1.971241
     53          1           0       -7.195295   -3.330839    0.429372
     54          1           0       -5.813267   -3.273749   -0.435981
     55          1           0       -7.201071   -2.700733   -1.076069
     56          1           0       -3.407597    2.826314    2.105172
     57          1           0       -5.112365    2.767166    2.086384
     58          7           0       -4.240726    2.314871    1.894311
     59          6           0       -4.192627    1.084351    1.379847
     60          6           0       -5.123590   -0.937198    0.538179
     61          7           0       -3.938821   -1.519781    0.290568
     62          1           0       -1.939095   -1.102925    0.457824
     63          6           0       -2.939447   -0.706738    0.626898
     64          7           0       -2.985576    0.526068    1.142311
     65          1           0       -8.341558   -0.654111    0.667699
     66          6           0       -7.263875   -0.499689    0.728489
     67          7           0       -6.691403    0.588805    1.181423
     68          6           0       -5.334321    0.324640    1.066302
     69          6           0       -6.669595   -2.799105   -0.234623
     70          7           0       -6.374683   -1.464545    0.322134
 ---------------------------------------------------------------------

 SCF Done:  E(RwB97XD) =  -2048.73082541     A.U. after   15 cycles

 The electronic state is 1-A.
 Alpha  occ. eigenvalues --  -19.24914 -19.21157 -19.20757 -14.52748 -14.51250
 Alpha  occ. eigenvalues --  -14.49785 -14.49085 -14.48404 -14.46958 -14.46876
 Alpha  occ. eigenvalues --  -14.46404 -14.45469 -14.44807 -14.44803 -14.43382
 Alpha  occ. eigenvalues --  -14.42220 -14.41807 -14.41705 -14.41588 -14.41398
 Alpha  occ. eigenvalues --  -10.44452 -10.41352 -10.40299 -10.39236 -10.38484
 Alpha  occ. eigenvalues --  -10.38051 -10.37649 -10.36588 -10.36507 -10.36427
 Alpha  occ. eigenvalues --  -10.35005 -10.34357 -10.34280 -10.34231 -10.34024
 Alpha  occ. eigenvalues --  -10.33999 -10.32939 -10.32243 -10.32219 -10.30895
 Alpha  occ. eigenvalues --  -10.30044 -10.29249 -10.28678  -1.18456  -1.15493
 Alpha  occ. eigenvalues --   -1.13604  -1.12152  -1.11747  -1.11341  -1.09826
 Alpha  occ. eigenvalues --   -1.08709  -1.08152  -1.06004  -1.05342  -1.01513
 Alpha  occ. eigenvalues --   -1.01370  -1.01157  -0.99750  -0.99022  -0.97558
 Alpha  occ. eigenvalues --   -0.97449  -0.97246  -0.93698  -0.89894  -0.88009
 Alpha  occ. eigenvalues --   -0.86215  -0.85079  -0.84440  -0.83543  -0.82679
 Alpha  occ. eigenvalues --   -0.81976  -0.77848  -0.77343  -0.75388  -0.75165
 Alpha  occ. eigenvalues --   -0.73805  -0.73607  -0.72311  -0.71862  -0.70769
 Alpha  occ. eigenvalues --   -0.67631  -0.67195  -0.67056  -0.65567  -0.64916
 Alpha  occ. eigenvalues --   -0.64557  -0.63513  -0.63059  -0.62769  -0.61942
 Alpha  occ. eigenvalues --   -0.61172  -0.60980  -0.60468  -0.60097  -0.59953
 Alpha  occ. eigenvalues --   -0.58966  -0.58631  -0.58264  -0.57326  -0.56360
 Alpha  occ. eigenvalues --   -0.55842  -0.55604  -0.55564  -0.54657  -0.54430
 Alpha  occ. eigenvalues --   -0.54002  -0.53915  -0.53407  -0.53209  -0.52832
 Alpha  occ. eigenvalues --   -0.52244  -0.52117  -0.51094  -0.50867  -0.50612
 Alpha  occ. eigenvalues --   -0.50509  -0.50248  -0.49566  -0.49518  -0.49375
 Alpha  occ. eigenvalues --   -0.48969  -0.48698  -0.47964  -0.47588  -0.47263
 Alpha  occ. eigenvalues --   -0.47011  -0.46124  -0.45548  -0.44641  -0.43105
 Alpha  occ. eigenvalues --   -0.41292  -0.40518  -0.38830  -0.38003  -0.37936
 Alpha  occ. eigenvalues --   -0.37844  -0.37759  -0.37373  -0.35374  -0.35081
 Alpha  occ. eigenvalues --   -0.34614  -0.34178  -0.34099  -0.33806  -0.33308
 Alpha  occ. eigenvalues --   -0.33211  -0.32431  -0.32023  -0.31728  -0.31356
 Alpha  occ. eigenvalues --   -0.30985  -0.29791  -0.26653  -0.25782
 Alpha virt. eigenvalues --    0.03386   0.04475   0.06578   0.07028   0.08562
 Alpha virt. eigenvalues --    0.09107   0.09372   0.10157   0.10275   0.12606
 Alpha virt. eigenvalues --    0.13352   0.13540   0.13732   0.14282   0.14905

 Mulliken charges:
               1
     1  N   -0.292537
     2  C    0.216050
     3  C    0.050522
     4  N   -0.241370
     5  C    0.146015
     6  H    0.027736
     7  N   -0.277565
     8  C    0.111194
     9  H    0.000466
    10  N   -0.267940
    11  C    0.214779
    12  C    0.074761
    13  N   -0.055073
    14  H    0.115844
    15  H    0.087111
    16  H    0.024452
    17  H    0.036501
    18  H   -0.028900
    19  N   -0.301780
    20  C    0.207410
    21  C    0.183563
    22  N   -0.097986
    23  H    0.117791
    24  H    0.117766
    25  N   -0.283678
    26  C    0.215094
    27  N   -0.118143
    28  H    0.120059
    29  C    0.171417
    30  O   -0.315846
    31  C    0.009384
    32  N   -0.211906
    33  C    0.101574
    34  H    0.024285
    35  H    0.022647
    36  H    0.034555
    37  H    0.026775
    38  H    0.071710
    39  H    0.040411
    40  H    0.067421
    41  H    0.020461
    42  C   -0.088405
    43  O   -0.274370
    44  C    0.177038
    45  H    0.130713
    46  N   -0.123372
    47  O   -0.343156
    48  C    0.328526
    49  H    0.042850
    50  C    0.143850
    51  C    0.034096
    52  N   -0.266227
    53  H    0.036572
    54  H    0.045656
    55  H    0.030470
    56  H    0.123918
    57  H    0.121283
    58  N   -0.061437
    59  C    0.109028
    60  C    0.239135
    61  N   -0.293560
    62  H    0.040207
    63  C    0.161456
    64  N   -0.304039
    65  H    0.040061
    66  C    0.140499
    67  N   -0.256503
    68  C    0.040182
    69  C    0.176158
    70  N   -0.315658
 Sum of Mulliken charges =  -0.00000

 Dipole moment (field-independent basis, Debye):
    X=             -4.7963    Y=             -8.0036    Z=             -0.1289  Tot=              9.3316
 Quadrupole moment (field-independent basis, Debye-Ang):
   XX=           -143.9420   YY=           -247.9650   ZZ=           -243.1812
   XY=             -1.2292   XZ=             13.0965   YZ=             20.2513

 Normal termination of Gaussian 16 at Thu Jan 25 09:17:19 2018.
