 Gaussian 16, Revision A.03,
 Gaussian 16:  EM64L-G16RevA.03 25-Dec-2016

 ---------------------------------------
 #p wb97xd/cc-pvdz sp scf=(maxcycles=20)
 ---------------------------------------

 ------------------
 Base pair stacking
 ------------------
 Symbolic Z-matrix:
 Charge =  0 Multiplicity = 1

                         Standard orientation:
 ---------------------------------------------------------------------
 Center     Atomic      Atomic             Coordinates (Angstroms)
 Number     Number       Type             X           Y           Z
 ---------------------------------------------------------------------
      1          7           0        4.265361   -0.310216    1.842477
      2          6           0        5.514423   -1.083232    1.699947
      3          6           0        2.149541    0.290120    1.856911
      4          7           0        2.870694    1.399939    2.272795
      5          6           0        4.116534    0.993841    2.247448
      6          1           0        4.975017    1.609811    2.516773
      7          7           0        0.384573   -1.150807    1.247343
      8          6           0        1.320463   -2.080206    1.028436
      9          1           0        0.946983   -3.045087    0.688165
     10          7           0        2.642221   -1.997043    1.166101
     11          6           0        2.995599   -0.771690    1.588061
     12          6           0        0.772272    0.071893    1.671337
     13          7           0       -0.160465    1.000960    1.890406
     14          1           0        0.080931    1.919705    2.204817
     15          1           0       -1.131812    0.810421    1.747808
     16          1           0        5.980902   -1.131322    2.583275
     17          1           0        5.301034   -2.007901    1.385998
     18          1           0        6.111296   -0.636258    1.033650
     19          7           0        5.944181    0.075709   -0.727017
     20          6           0        4.626516   -0.276344   -0.893924
     21          6           0        7.068257   -0.870293   -0.577910
     22          7           0        2.182290   -2.725338   -1.193855
     23          1           0        1.191607   -2.767119   -1.320545
     24          1           0        2.668308   -3.597128   -1.126894
     25          7           0        4.141178   -1.535482   -0.949315
     26          6           0        2.830789   -1.553386   -1.117099
     27          7           0        2.053316   -0.425612   -1.222787
     28          1           0        1.058820   -0.534555   -1.349600
     29          6           0        2.531276    0.879949   -1.168587
     30          8           0        1.744294    1.828718   -1.274530
     31          6           0        3.937423    0.915295   -0.988635
     32          7           0        4.805025    1.993752   -0.883301
     33          6           0        5.981286    1.448758   -0.729669
     34          1           0        6.912580    2.004130   -0.613359
     35          1           0        7.518338   -0.719759    0.301616
     36          1           0        6.720890   -1.806265   -0.617369
     37          1           0        7.725723   -0.728489   -1.317131
     38          1           0       -3.879282   -1.745754   -1.321677
     39          1           0       -3.739700   -1.485938   -3.058816
     40          1           0       -2.359908   -2.097448   -2.145797
     41          1           0       -3.960695    3.061231   -1.502847
     42          6           0       -3.240689    2.245321   -1.567028
     43          8           0       -1.353757    3.637133   -1.207226
     44          6           0       -1.846412    2.528136   -1.412689
     45          1           0       -0.029875    1.585528   -1.407703
     46          7           0       -1.022024    1.425464   -1.511368
     47          8           0       -0.595841   -0.785356   -1.807792
     48          6           0       -1.401571    0.125881   -1.736246
     49          1           0       -4.690082    0.720093   -1.911620
     50          6           0       -3.641650    0.987814   -1.787329
     51          6           0       -3.215265   -1.438952   -2.116043
     52          7           0       -2.762149   -0.066356   -1.874330
     53          1           0       -7.146902   -3.313109    0.114355
     54          1           0       -5.782450   -3.134721   -0.762322
     55          1           0       -7.188693   -2.508515   -1.304918
     56          1           0       -3.397998    2.651791    2.444870
     57          1           0       -5.102038    2.572172    2.449298
     58          7           0       -4.229151    2.157808    2.189313
     59          6           0       -4.176943    0.997991    1.531076
     60          6           0       -5.100830   -0.921516    0.471054
     61          7           0       -3.914472   -1.454378    0.134847
     62          1           0       -1.916785   -1.033294    0.315228
     63          6           0       -2.918157   -0.673633    0.547976
     64          7           0       -2.968391    0.488365    1.207391
     65          1           0       -8.318734   -0.699532    0.690245
     66          6           0       -7.241905   -0.538833    0.749955
     67          7           0       -6.673266    0.495711    1.319216
     68          6           0       -5.315718    0.265557    1.149445
     69          6           0       -6.640098   -2.699067   -0.490718
     70          7           0       -6.349760   -1.436347    0.215833
 ---------------------------------------------------------------------

 SCF Done:  E(RwB97XD) =  -2048.63171088     A.U. after   15 cycles

 The electronic state is 1-A.
 Alpha  occ. eigenvalues --  -19.24798 -19.20998 -19.20737 -14.53043 -14.51019
 Alpha  occ. eigenvalues --  -14.49791 -14.49012 -14.48519 -14.46868 -14.46725
 Alpha  occ. eigenvalues --  -14.45665 -14.45655 -14.45044 -14.44903 -14.43601
 Alpha  occ. eigenvalues --  -14.42001 -14.41879 -14.41699 -14.41610 -14.41402
 Alpha  occ. eigenvalues --  -10.44270 -10.41280 -10.40440 -10.39099 -10.38447
 Alpha  occ. eigenvalues --  -10.38237 -10.37906 -10.36742 -10.36569 -10.36488
 Alpha  occ. eigenvalues --  -10.34980 -10.34621 -10.34415 -10.34322 -10.34097
 Alpha  occ. eigenvalues --  -10.34017 -10.33137 -10.32384 -10.30367 -10.30114
 Alpha  occ. eigenvalues --  -10.29990 -10.29280 -10.28669  -1.18375  -1.15799
 Alpha  occ. eigenvalues --   -1.13884  -1.12012  -1.11741  -1.11528  -1.10206
 Alpha  occ. eigenvalues --   -1.08926  -1.08067  -1.06119  -1.05772  -1.01646
 Alpha  occ. eigenvalues --   -1.01414  -1.01345  -0.99756  -0.99236  -0.97993
 Alpha  occ. eigenvalues --   -0.97707  -0.97255  -0.93937  -0.89818  -0.88301
 Alpha  occ. eigenvalues --   -0.86497  -0.85593  -0.84560  -0.83828  -0.82422
 Alpha  occ. eigenvalues --   -0.81661  -0.77782  -0.77545  -0.75829  -0.75265
 Alpha  occ. eigenvalues --   -0.74126  -0.73526  -0.72252  -0.72117  -0.71064
 Alpha  occ. eigenvalues --   -0.67667  -0.67537  -0.67318  -0.65533  -0.65099
 Alpha  occ. eigenvalues --   -0.64806  -0.63921  -0.63095  -0.62740  -0.61984
 Alpha  occ. eigenvalues --   -0.61917  -0.61457  -0.60989  -0.60831  -0.60304
 Alpha  occ. eigenvalues --   -0.59515  -0.58576  -0.58288  -0.57864  -0.56608
 Alpha  occ. eigenvalues --   -0.56441  -0.56182  -0.55638  -0.54853  -0.54620
 Alpha  occ. eigenvalues --   -0.54213  -0.53581  -0.53529  -0.53201  -0.52652
 Alpha  occ. eigenvalues --   -0.52535  -0.52083  -0.51207  -0.50752  -0.50591
 Alpha  occ. eigenvalues --   -0.50398  -0.50289  -0.49558  -0.49490  -0.49274
 Alpha  occ. eigenvalues --   -0.48981  -0.48577  -0.47789  -0.47476  -0.47240
 Alpha  occ. eigenvalues --   -0.46845  -0.46357  -0.45436  -0.44804  -0.42989
 Alpha  occ. eigenvalues --   -0.40321  -0.39779  -0.38792  -0.38156  -0.37997
 Alpha  occ. eigenvalues --   -0.37897  -0.37775  -0.37272  -0.35684  -0.35120
 Alpha  occ. eigenvalues --   -0.34422  -0.34168  -0.34068  -0.33943  -0.33252
 Alpha  occ. eigenvalues --   -0.32913  -0.32378  -0.31958  -0.31883  -0.31159
 Alpha  occ. eigenvalues --   -0.30071  -0.29731  -0.26565  -0.25389
 Alpha virt. eigenvalues --    0.03159   0.04513   0.06225   0.06612   0.08469
 Alpha virt. eigenvalues --    0.09268   0.09433   0.09981   0.10544   0.12497
 Alpha virt. eigenvalues --    0.13228   0.13302   0.13801   0.14124   0.14798

 Mulliken charges:
               1
     1  N   -0.286514
     2  C    0.219033
     3  C    0.064232
     4  N   -0.245034
     5  C    0.144877
     6  H    0.026976
     7  N   -0.261096
     8  C    0.103358
     9  H   -0.005399
    10  N   -0.265375
    11  C    0.200625
    12  C    0.068534
    13  N   -0.055009
    14  H    0.113822
    15  H    0.085278
    16  H    0.017309
    17  H    0.033261
    18  H   -0.017763
    19  N   -0.305662
    20  C    0.178863
    21  C    0.199596
    22  N   -0.072944
    23  H    0.116970
    24  H    0.116971
    25  N   -0.250409
    26  C    0.149357
    27  N   -0.093865
    28  H    0.124306
    29  C    0.162246
    30  O   -0.315284
    31  C    0.024793
    32  N   -0.211321
    33  C    0.101311
    34  H    0.024558
    35  H    0.014031
    36  H    0.034753
    37  H    0.022418
    38  H    0.083914
    39  H    0.027315
    40  H    0.062546
    41  H    0.022021
    42  C   -0.087645
    43  O   -0.272269
    44  C    0.177077
    45  H    0.130533
    46  N   -0.121763
    47  O   -0.337189
    48  C    0.322599
    49  H    0.041404
    50  C    0.144495
    51  C    0.020351
    52  N   -0.267092
    53  H    0.037029
    54  H    0.047790
    55  H    0.032652
    56  H    0.122459
    57  H    0.122136
    58  N   -0.065582
    59  C    0.117622
    60  C    0.244763
    61  N   -0.290335
    62  H    0.042117
    63  C    0.160553
    64  N   -0.303404
    65  H    0.040882
    66  C    0.141175
    67  N   -0.255336
    68  C    0.039634
    69  C    0.175339
    70  N   -0.317590
 Sum of Mulliken charges =  -0.00000

 Dipole moment (field-independent basis, Debye):
    X=             -5.0163    Y=             -8.2287    Z=              0.7164  Tot=              9.6638
 Quadrupole moment (field-independent basis, Debye-Ang):
   XX=           -143.0467   YY=           -249.7819   ZZ=           -244.8047
   XY=             -1.4687   XZ=             12.4791   YZ=             20.6397

 Normal termination of Gaussian 16 at Thu Jan 25 18:30:59 2018.
