 Gaussian 16, Revision A.03,
 Gaussian 16:  EM64L-G16RevA.03 25-Dec-2016

 ---------------------------------------
 #p wb97xd/cc-pvdz sp scf=(maxcycles=20)
 ---------------------------------------

 ------------------
 Base pair stacking
 ------------------
 Symbolic Z-matrix:
 Charge =  0 Multiplicity = 1

                         Standard orientation:
 ---------------------------------------------------------------------
 Center     Atomic      Atomic             Coordinates (Angstroms)
 Number     Number       Type             X           Y           Z
 ---------------------------------------------------------------------
      1          7           0       -4.142130    2.491458   -0.086789
      2          6           0       -5.340303    2.822181   -0.882418
      3          6           0       -2.076197    2.053217    0.527363
      4          7           0       -2.847659    1.976451    1.677871
      5          6           0       -4.061433    2.243547    1.261814
      6          1           0       -4.943692    2.273485    1.901873
      7          7           0       -0.253409    2.021698   -0.969100
      8          6           0       -1.133235    2.329754   -1.927541
      9          1           0       -0.713724    2.436624   -2.926961
     10          7           0       -2.447282    2.524691   -1.837186
     11          6           0       -2.860217    2.369833   -0.568361
     12          6           0       -0.700221    1.872722    0.297096
     13          7           0        0.176510    1.565221    1.255197
     14          1           0       -0.109761    1.445382    2.206470
     15          1           0        1.148814    1.444226    1.054905
     16          1           0       -5.749977    3.665987   -0.535521
     17          1           0       -5.081490    2.947488   -1.839729
     18          1           0       -6.004776    2.078099   -0.813182
     19          7           0       -6.015885   -1.002979   -0.039573
     20          6           0       -4.711673   -1.255444   -0.390744
     21          6           0       -7.170695   -1.043380   -0.959076
     22          7           0       -2.353216   -2.092368   -2.798861
     23          1           0       -1.365107   -2.236437   -2.844865
     24          1           0       -2.868194   -2.204809   -3.649081
     25          7           0       -4.269541   -1.580247   -1.624881
     26          6           0       -2.961273   -1.763153   -1.649170
     27          7           0       -2.146509   -1.638038   -0.550073
     28          1           0       -1.156870   -1.796413   -0.661781
     29          6           0       -2.579716   -1.304723    0.729423
     30          8           0       -1.761518   -1.217645    1.653384
     31          6           0       -3.983032   -1.105143    0.771272
     32          7           0       -4.813097   -0.765150    1.830650
     33          6           0       -6.006456   -0.716110    1.303661
     34          1           0       -6.917859   -0.474750    1.851721
     35          1           0       -7.611450   -0.146732   -0.982887
     36          1           0       -6.855422   -1.282972   -1.876382
     37          1           0       -7.826301   -1.728542   -0.643560
     38          1           0        3.737436   -2.081074   -2.009925
     39          1           0        3.598907   -3.722871   -1.385453
     40          1           0        2.203313   -2.943170   -2.130933
     41          1           0        3.980882   -1.247242    2.722092
     42          6           0        3.233365   -1.473417    1.961647
     43          8           0        1.396313   -0.806944    3.306340
     44          6           0        1.850170   -1.246921    2.250299
     45          1           0        0.002774   -1.419496    1.386772
     46          7           0        0.988454   -1.565981    1.220296
     47          8           0        0.486266   -2.316204   -0.863491
     48          6           0        1.322730   -2.063748   -0.014221
     49          1           0        4.628668   -2.148062    0.497475
     50          6           0        3.590472   -1.958100    0.766594
     51          6           0        3.080617   -2.785334   -1.521377
     52          7           0        2.675381   -2.254904   -0.216707
     53          1           0        7.331841    1.371513   -3.142449
     54          1           0        5.909482    0.627767   -3.435400
     55          1           0        7.234497   -0.256364   -3.079437
     56          1           0        3.317570    1.032716    3.089429
     57          1           0        5.020355    0.930029    3.081059
     58          7           0        4.164899    0.961678    2.562990
     59          6           0        4.155569    0.911319    1.229363
     60          6           0        5.147951    0.769262   -0.928574
     61          7           0        3.984145    0.813676   -1.597918
     62          1           0        1.975843    0.949146   -1.211960
     63          6           0        2.961492    0.907523   -0.750411
     64          7           0        2.968775    0.958089    0.585611
     65          1           0        8.349758    0.592488   -0.517079
     66          6           0        7.269654    0.662462   -0.385100
     67          7           0        6.664284    0.743124    0.774510
     68          6           0        5.318549    0.811426    0.444244
     69          6           0        6.748961    0.597982   -2.893649
     70          7           0        6.412785    0.672982   -1.458594
 ---------------------------------------------------------------------

 SCF Done:  E(RwB97XD) =  -2048.73857981     A.U. after   15 cycles

 The electronic state is 1-A.
 Alpha  occ. eigenvalues --  -19.25331 -19.22184 -19.20938 -14.52304 -14.51807
 Alpha  occ. eigenvalues --  -14.49700 -14.48649 -14.47708 -14.47469 -14.47232
 Alpha  occ. eigenvalues --  -14.47015 -14.45177 -14.44495 -14.44310 -14.42501
 Alpha  occ. eigenvalues --  -14.42498 -14.41729 -14.41198 -14.40858 -14.40658
 Alpha  occ. eigenvalues --  -10.44933 -10.41707 -10.39994 -10.39783 -10.38661
 Alpha  occ. eigenvalues --  -10.37776 -10.37225 -10.36653 -10.35969 -10.35687
 Alpha  occ. eigenvalues --  -10.35086 -10.34456 -10.34160 -10.33756 -10.33724
 Alpha  occ. eigenvalues --  -10.33454 -10.33356 -10.32564 -10.31899 -10.31046
 Alpha  occ. eigenvalues --  -10.30046 -10.28775 -10.28612  -1.18901  -1.15077
 Alpha  occ. eigenvalues --   -1.13681  -1.13051  -1.11313  -1.11225  -1.09408
 Alpha  occ. eigenvalues --   -1.08990  -1.08623  -1.05308  -1.04839  -1.02116
 Alpha  occ. eigenvalues --   -1.00792  -1.00635  -1.00142  -0.99095  -0.97372
 Alpha  occ. eigenvalues --   -0.96989  -0.96730  -0.92973  -0.90351  -0.87552
 Alpha  occ. eigenvalues --   -0.85761  -0.84880  -0.83929  -0.83332  -0.82953
 Alpha  occ. eigenvalues --   -0.82358  -0.78298  -0.76937  -0.75245  -0.74823
 Alpha  occ. eigenvalues --   -0.74074  -0.72982  -0.72892  -0.71185  -0.70285
 Alpha  occ. eigenvalues --   -0.67884  -0.66755  -0.66384  -0.66064  -0.64876
 Alpha  occ. eigenvalues --   -0.64120  -0.63605  -0.63015  -0.62781  -0.62253
 Alpha  occ. eigenvalues --   -0.60532  -0.60380  -0.59900  -0.59458  -0.59028
 Alpha  occ. eigenvalues --   -0.58905  -0.58669  -0.57881  -0.56628  -0.56134
 Alpha  occ. eigenvalues --   -0.55997  -0.55603  -0.55100  -0.54744  -0.54427
 Alpha  occ. eigenvalues --   -0.54113  -0.53671  -0.53563  -0.53328  -0.52820
 Alpha  occ. eigenvalues --   -0.52690  -0.52003  -0.51718  -0.50864  -0.50751
 Alpha  occ. eigenvalues --   -0.50358  -0.50019  -0.49903  -0.49421  -0.49033
 Alpha  occ. eigenvalues --   -0.48947  -0.48723  -0.48558  -0.47578  -0.47293
 Alpha  occ. eigenvalues --   -0.47017  -0.45937  -0.45230  -0.44764  -0.42732
 Alpha  occ. eigenvalues --   -0.41288  -0.40642  -0.39199  -0.37945  -0.37714
 Alpha  occ. eigenvalues --   -0.37543  -0.37448  -0.37099  -0.35573  -0.34855
 Alpha  occ. eigenvalues --   -0.34438  -0.34374  -0.33752  -0.33434  -0.33392
 Alpha  occ. eigenvalues --   -0.33172  -0.32920  -0.32220  -0.31217  -0.31046
 Alpha  occ. eigenvalues --   -0.30572  -0.29734  -0.26371  -0.25671
 Alpha virt. eigenvalues --    0.03385   0.04138   0.06964   0.07863   0.08530
 Alpha virt. eigenvalues --    0.08944   0.09303   0.10549   0.10733   0.12510
 Alpha virt. eigenvalues --    0.13077   0.13831   0.14072   0.14296   0.14762

 Mulliken charges:
               1
     1  N   -0.306479
     2  C    0.185584
     3  C    0.027520
     4  N   -0.233416
     5  C    0.147398
     6  H    0.025891
     7  N   -0.296981
     8  C    0.128545
     9  H    0.010218
    10  N   -0.285628
    11  C    0.242912
    12  C    0.081848
    13  N   -0.056686
    14  H    0.122575
    15  H    0.094629
    16  H    0.025334
    17  H    0.034609
    18  H    0.012599
    19  N   -0.307818
    20  C    0.251417
    21  C    0.180037
    22  N   -0.122601
    23  H    0.119195
    24  H    0.120016
    25  N   -0.312545
    26  C    0.253704
    27  N   -0.146358
    28  H    0.120610
    29  C    0.192264
    30  O   -0.318276
    31  C   -0.014383
    32  N   -0.213190
    33  C    0.104544
    34  H    0.024435
    35  H    0.020552
    36  H    0.032565
    37  H    0.028601
    38  H    0.056443
    39  H    0.055138
    40  H    0.072836
    41  H    0.013198
    42  C   -0.083786
    43  O   -0.287615
    44  C    0.185709
    45  H    0.130565
    46  N   -0.124616
    47  O   -0.354766
    48  C    0.349320
    49  H    0.045042
    50  C    0.154764
    51  C    0.043766
    52  N   -0.277877
    53  H    0.034710
    54  H    0.041413
    55  H    0.028506
    56  H    0.124420
    57  H    0.120432
    58  N   -0.048548
    59  C    0.057205
    60  C    0.235987
    61  N   -0.270894
    62  H    0.033857
    63  C    0.159576
    64  N   -0.299103
    65  H    0.038737
    66  C    0.139053
    67  N   -0.259289
    68  C    0.046244
    69  C    0.179238
    70  N   -0.312905
 Sum of Mulliken charges =  -0.00000

 Dipole moment (field-independent basis, Debye):
    X=              4.3218    Y=             -2.6001    Z=             -7.6883  Tot=              9.1950
 Quadrupole moment (field-independent basis, Debye-Ang):
   XX=           -144.1969   YY=           -241.3267   ZZ=           -243.1586
   XY=            -13.0290   XZ=             -0.8241   YZ=             16.6879

 Normal termination of Gaussian 16 at Thu Jan 25 18:53:32 2018.
