 Gaussian 16, Revision A.03,
 Gaussian 16:  EM64L-G16RevA.03 25-Dec-2016

 ---------------------------------------
 #p wb97xd/cc-pvdz sp scf=(maxcycles=20)
 ---------------------------------------

 ------------------
 Base pair stacking
 ------------------
 Symbolic Z-matrix:
 Charge =  0 Multiplicity = 1

                         Standard orientation:
 ---------------------------------------------------------------------
 Center     Atomic      Atomic             Coordinates (Angstroms)
 Number     Number       Type             X           Y           Z
 ---------------------------------------------------------------------
      1          7           0        5.091448   -1.384677   -1.149305
      2          6           0        6.341620   -0.863947   -1.735734
      3          6           0        2.971628   -1.743967   -0.686066
      4          7           0        3.698018   -2.590599    0.138740
      5          6           0        4.946063   -2.340251   -0.173355
      6          1           0        5.808703   -2.828188    0.281291
      7          7           0        1.197586   -0.612135   -1.751274
      8          6           0        2.133288    0.036228   -2.452483
      9          1           0        1.755937    0.762297   -3.171292
     10          7           0        3.458891   -0.077127   -2.399328
     11          6           0        3.816848   -0.994444   -1.485648
     12          6           0        1.589954   -1.528848   -0.839815
     13          7           0        0.657419   -2.177088   -0.138872
     14          1           0        0.902181   -2.863955    0.546340
     15          1           0       -0.317134   -1.998370   -0.274703
     16          1           0        6.848527   -1.613004   -2.162508
     17          1           0        6.124923   -0.173811   -2.425577
     18          1           0        6.902151   -0.450834   -1.018000
     19          7           0        5.151473    1.004989    0.857928
     20          6           0        3.835099    1.314382    0.614011
     21          6           0        6.308863    1.566016    0.132400
     22          7           0        1.442898    3.077057   -1.183798
     23          1           0        0.447041    3.162122   -1.200210
     24          1           0        1.956101    3.625933   -1.844148
     25          7           0        3.381448    2.175955   -0.321914
     26          6           0        2.063163    2.263745   -0.315639
     27          7           0        1.249574    1.562313    0.540854
     28          1           0        0.251727    1.692062    0.474178
     29          6           0        1.694527    0.670448    1.511647
     30          8           0        0.876305    0.088055    2.234195
     31          6           0        3.108693    0.565558    1.516999
     32          7           0        3.952048   -0.198567    2.311836
     33          6           0        5.150882    0.094009    1.885912
     34          1           0        6.072796   -0.327579    2.287956
     35          1           0        6.818956    0.827334   -0.306876
     36          1           0        5.985130    2.205674   -0.563504
     37          1           0        6.905328    2.047001    0.774046
     38          1           0       -4.635774    2.292664   -0.792434
     39          1           0       -4.633109    3.419168    0.562415
     40          1           0       -3.173001    3.197864   -0.402195
     41          1           0       -4.861272   -0.776520    2.905651
     42          6           0       -4.126107   -0.158367    2.390239
     43          8           0       -2.256203   -1.282536    3.321257
     44          6           0       -2.732418   -0.409416    2.596233
     45          1           0       -0.895572    0.282696    2.017165
     46          7           0       -1.887956    0.429326    1.897190
     47          8           0       -1.425018    2.138416    0.475250
     48          6           0       -2.247691    1.448078    1.050849
     49          1           0       -5.555082    1.059736    1.380246
     50          6           0       -4.507978    0.828144    1.570740
     51          6           0       -4.041367    2.705110    0.009216
     52          7           0       -3.609042    1.627956    0.903965
     53          1           0       -6.352030    1.107479   -3.403072
     54          1           0       -5.031265    1.856754   -2.806193
     55          1           0       -6.468063    2.007472   -2.046613
     56          1           0       -2.570445   -3.532298    0.983002
     57          1           0       -4.271443   -3.560779    0.857031
     58          7           0       -3.406579   -3.110785    0.631800
     59          6           0       -3.370976   -1.998075   -0.104267
     60          6           0       -4.319877   -0.218581   -1.367087
     61          7           0       -3.143986    0.364024   -1.653916
     62          1           0       -1.145199    0.083889   -1.297591
     63          6           0       -2.139001   -0.321672   -1.112855
     64          7           0       -2.172618   -1.436338   -0.375316
     65          1           0       -7.526761   -0.628551   -1.367928
     66          6           0       -6.450280   -0.716148   -1.218043
     67          7           0       -5.868345   -1.670885   -0.534307
     68          6           0       -4.517379   -1.367354   -0.620858
     69          6           0       -5.880632    1.387329   -2.566726
     70          7           0       -5.573069    0.197210   -1.750018
 ---------------------------------------------------------------------

 SCF Done:  E(RwB97XD) =  -2048.72669846     A.U. after   15 cycles

 The electronic state is 1-A.
 Alpha  occ. eigenvalues --  -19.25220 -19.21435 -19.20562 -14.52591 -14.51657
 Alpha  occ. eigenvalues --  -14.49387 -14.49078 -14.47771 -14.47095 -14.46655
 Alpha  occ. eigenvalues --  -14.46612 -14.45227 -14.44221 -14.44164 -14.42958
 Alpha  occ. eigenvalues --  -14.41803 -14.41769 -14.41462 -14.41067 -14.41027
 Alpha  occ. eigenvalues --  -10.44761 -10.41033 -10.39695 -10.39488 -10.38185
 Alpha  occ. eigenvalues --  -10.37835 -10.37069 -10.37027 -10.36109 -10.35733
 Alpha  occ. eigenvalues --  -10.34586 -10.34437 -10.34409 -10.34339 -10.33935
 Alpha  occ. eigenvalues --  -10.33686 -10.33564 -10.32433 -10.31800 -10.31241
 Alpha  occ. eigenvalues --  -10.30224 -10.29101 -10.28156  -1.18815  -1.15206
 Alpha  occ. eigenvalues --   -1.13203  -1.12429  -1.11958  -1.10744  -1.09161
 Alpha  occ. eigenvalues --   -1.08644  -1.08474  -1.05752  -1.04622  -1.01847
 Alpha  occ. eigenvalues --   -1.01100  -1.00935  -0.99650  -0.98515  -0.97688
 Alpha  occ. eigenvalues --   -0.96771  -0.96700  -0.93405  -0.90320  -0.87617
 Alpha  occ. eigenvalues --   -0.86142  -0.85181  -0.84050  -0.83580  -0.82950
 Alpha  occ. eigenvalues --   -0.82429  -0.78219  -0.76903  -0.74795  -0.74738
 Alpha  occ. eigenvalues --   -0.73642  -0.73489  -0.72688  -0.71695  -0.70285
 Alpha  occ. eigenvalues --   -0.67502  -0.66968  -0.66673  -0.65909  -0.64575
 Alpha  occ. eigenvalues --   -0.64152  -0.63498  -0.63323  -0.62562  -0.61755
 Alpha  occ. eigenvalues --   -0.61438  -0.61067  -0.60401  -0.60130  -0.59516
 Alpha  occ. eigenvalues --   -0.58945  -0.58602  -0.58296  -0.57300  -0.56179
 Alpha  occ. eigenvalues --   -0.55694  -0.55555  -0.55200  -0.54344  -0.54199
 Alpha  occ. eigenvalues --   -0.54071  -0.53773  -0.53414  -0.53036  -0.52868
 Alpha  occ. eigenvalues --   -0.52497  -0.52408  -0.51538  -0.51197  -0.50715
 Alpha  occ. eigenvalues --   -0.50171  -0.50018  -0.49500  -0.49074  -0.48913
 Alpha  occ. eigenvalues --   -0.48744  -0.48276  -0.48148  -0.47837  -0.47581
 Alpha  occ. eigenvalues --   -0.47124  -0.46283  -0.44480  -0.44344  -0.43278
 Alpha  occ. eigenvalues --   -0.41429  -0.40613  -0.38895  -0.37861  -0.37717
 Alpha  occ. eigenvalues --   -0.37436  -0.37283  -0.36935  -0.35827  -0.34884
 Alpha  occ. eigenvalues --   -0.34519  -0.34303  -0.33924  -0.33691  -0.32874
 Alpha  occ. eigenvalues --   -0.32485  -0.32405  -0.31860  -0.31631  -0.31082
 Alpha  occ. eigenvalues --   -0.30551  -0.29389  -0.27451  -0.24380
 Alpha virt. eigenvalues --    0.02884   0.04634   0.06448   0.06670   0.08149
 Alpha virt. eigenvalues --    0.09793   0.10133   0.10698   0.11409   0.12144
 Alpha virt. eigenvalues --    0.12239   0.13884   0.14174   0.15014   0.15170

 Mulliken charges:
               1
     1  N   -0.301640
     2  C    0.197291
     3  C    0.060881
     4  N   -0.236430
     5  C    0.127985
     6  H    0.025277
     7  N   -0.281455
     8  C    0.124969
     9  H    0.002970
    10  N   -0.265235
    11  C    0.224930
    12  C    0.065037
    13  N   -0.041521
    14  H    0.113572
    15  H    0.086055
    16  H    0.025106
    17  H    0.033228
    18  H    0.013657
    19  N   -0.295194
    20  C    0.232139
    21  C    0.197777
    22  N   -0.112691
    23  H    0.118266
    24  H    0.119613
    25  N   -0.281377
    26  C    0.208382
    27  N   -0.121581
    28  H    0.121254
    29  C    0.168175
    30  O   -0.322169
    31  C    0.002044
    32  N   -0.209926
    33  C    0.108425
    34  H    0.019243
    35  H   -0.022123
    36  H    0.037389
    37  H    0.026857
    38  H    0.001319
    39  H    0.053763
    40  H    0.078356
    41  H    0.022610
    42  C   -0.096850
    43  O   -0.271793
    44  C    0.164583
    45  H    0.127848
    46  N   -0.103818
    47  O   -0.345523
    48  C    0.317587
    49  H    0.041500
    50  C    0.163130
    51  C    0.068932
    52  N   -0.264582
    53  H    0.034522
    54  H    0.048516
    55  H    0.029558
    56  H    0.124290
    57  H    0.118957
    58  N   -0.047115
    59  C    0.094139
    60  C    0.212418
    61  N   -0.269515
    62  H    0.021128
    63  C    0.164653
    64  N   -0.298548
    65  H    0.037252
    66  C    0.125840
    67  N   -0.251145
    68  C    0.050967
    69  C    0.189653
    70  N   -0.311811
 Sum of Mulliken charges =  -0.00000

 Dipole moment (field-independent basis, Debye):
    X=             -4.2968    Y=              4.8233    Z=             -6.2054  Tot=              8.9573
 Quadrupole moment (field-independent basis, Debye-Ang):
   XX=           -145.8483   YY=           -224.5552   ZZ=           -264.7419
   XY=            -11.6295   XZ=              3.2435   YZ=             -5.3562

 Normal termination of Gaussian 16 at Fri Jan 26 02:47:18 2018.
