 Gaussian 16, Revision A.03,
 Gaussian 16:  EM64L-G16RevA.03 25-Dec-2016

 ---------------------------------------
 #p wb97xd/cc-pvdz sp scf=(maxcycles=20)
 ---------------------------------------

 ------------------
 Base pair stacking
 ------------------
 Symbolic Z-matrix:
 Charge =  0 Multiplicity = 1

                         Standard orientation:
 ---------------------------------------------------------------------
 Center     Atomic      Atomic             Coordinates (Angstroms)
 Number     Number       Type             X           Y           Z
 ---------------------------------------------------------------------
      1          7           0       -5.384111   -1.866284    0.404017
      2          6           0       -6.628867   -1.796341    1.193763
      3          6           0       -3.268286   -1.883088   -0.196231
      4          7           0       -4.002967   -2.065813   -1.358807
      5          6           0       -5.248267   -2.048385   -0.950652
      6          1           0       -6.115593   -2.164803   -1.601132
      7          7           0       -1.483324   -1.618691    1.322642
      8          6           0       -2.412383   -1.516085    2.278625
      9          1           0       -2.027887   -1.365507    3.286465
     10          7           0       -3.738865   -1.571281    2.177038
     11          6           0       -4.105880   -1.758536    0.898499
     12          6           0       -1.884743   -1.806698    0.046473
     13          7           0       -0.958828   -1.909364   -0.909201
     14          1           0       -1.210386   -2.049003   -1.867561
     15          1           0        0.017308   -1.850246   -0.699936
     16          1           0       -7.138923   -2.650420    1.090900
     17          1           0       -6.405341   -1.656774    2.157959
     18          1           0       -7.189371   -1.034280    0.869598
     19          7           0       -4.857347    1.649726   -0.386676
     20          6           0       -3.538725    1.823205   -0.041430
     21          6           0       -6.015171    2.020648    0.451504
     22          7           0       -1.140198    2.892753    2.231221
     23          1           0       -0.142921    2.930375    2.288215
     24          1           0       -1.653044    3.245801    3.014205
     25          7           0       -3.082892    2.357362    1.112238
     26          6           0       -1.762767    2.391565    1.153660
     27          7           0       -0.949438    1.937889    0.143620
     28          1           0        0.049911    2.003554    0.261724
     29          6           0       -1.396622    1.384561   -1.052085
     30          8           0       -0.578431    1.005596   -1.899261
     31          6           0       -2.812770    1.341127   -1.111201
     32          7           0       -3.658625    0.874404   -2.107997
     33          6           0       -4.858443    1.077294   -1.635262
     34          1           0       -5.782301    0.827051   -2.157884
     35          1           0       -6.560845    1.206758    0.648065
     36          1           0       -5.689831    2.417427    1.308817
     37          1           0       -6.577938    2.690198   -0.032016
     38          1           0        4.918075    2.018752    1.729199
     39          1           0        4.989039    3.489421    0.761335
     40          1           0        3.496755    3.054757    1.595327
     41          1           0        5.144078    0.149641   -2.698202
     42          6           0        4.415685    0.619696   -2.037357
     43          8           0        2.536187   -0.111571   -3.286296
     44          6           0        3.020681    0.494004   -2.330614
     45          1           0        1.192278    1.059368   -1.605598
     46          7           0        2.185283    1.125909   -1.431696
     47          8           0        1.739729    2.365048    0.418503
     48          6           0        2.554838    1.840039   -0.319491
     49          1           0        5.855559    1.435063   -0.692833
     50          6           0        4.807045    1.309935   -0.959848
     51          6           0        4.359487    2.669174    1.072693
     52          7           0        3.916821    1.916117   -0.104035
     53          1           0        6.082882   -1.250963    3.624730
     54          1           0        4.764704   -0.289676    3.603592
     55          1           0        6.199665    0.281434    3.075607
     56          1           0        2.256366   -2.333223   -2.640416
     57          1           0        3.957601   -2.436311   -2.567850
     58          7           0        3.096403   -2.208042   -2.112387
     59          6           0        3.070457   -1.756826   -0.856647
     60          6           0        4.035078   -1.089380    1.213556
     61          7           0        2.863927   -0.790806    1.799787
     62          1           0        0.862132   -0.796308    1.359987
     63          6           0        1.852699   -1.013581    0.962701
     64          7           0        1.876645   -1.465478   -0.295385
     65          1           0        7.239308   -1.427579    0.947590
     66          6           0        6.161767   -1.404991    0.782252
     67          7           0        5.571362   -1.759176   -0.332934
     68          6           0        4.222659   -1.563875   -0.072985
     69          6           0        5.610230   -0.524955    3.125211
     70          7           0        5.292242   -0.988959    1.760805
 ---------------------------------------------------------------------

 SCF Done:  E(RwB97XD) =  -2048.72908586     A.U. after   15 cycles

 The electronic state is 1-A.
 Alpha  occ. eigenvalues --  -19.25554 -19.21654 -19.20736 -14.52235 -14.51953
 Alpha  occ. eigenvalues --  -14.49173 -14.49063 -14.47535 -14.46987 -14.46736
 Alpha  occ. eigenvalues --  -14.46208 -14.44668 -14.43604 -14.43307 -14.42438
 Alpha  occ. eigenvalues --  -14.42103 -14.41543 -14.41248 -14.40919 -14.40632
 Alpha  occ. eigenvalues --  -10.45155 -10.41309 -10.39842 -10.38642 -10.38375
 Alpha  occ. eigenvalues --  -10.37377 -10.37240 -10.36436 -10.35771 -10.35220
 Alpha  occ. eigenvalues --  -10.35060 -10.34506 -10.34293 -10.33729 -10.33729
 Alpha  occ. eigenvalues --  -10.33488 -10.33456 -10.31767 -10.31671 -10.31403
 Alpha  occ. eigenvalues --  -10.30517 -10.28852 -10.28237  -1.19154  -1.14586
 Alpha  occ. eigenvalues --   -1.13323  -1.13072  -1.11710  -1.10775  -1.09092
 Alpha  occ. eigenvalues --   -1.08667  -1.08228  -1.05390  -1.03741  -1.02303
 Alpha  occ. eigenvalues --   -1.00728  -1.00221  -0.99824  -0.98642  -0.97317
 Alpha  occ. eigenvalues --   -0.96768  -0.95887  -0.93022  -0.90696  -0.86963
 Alpha  occ. eigenvalues --   -0.85411  -0.84486  -0.84208  -0.83515  -0.82940
 Alpha  occ. eigenvalues --   -0.82656  -0.78620  -0.76179  -0.74801  -0.74055
 Alpha  occ. eigenvalues --   -0.73717  -0.73260  -0.73065  -0.71393  -0.69502
 Alpha  occ. eigenvalues --   -0.67509  -0.66651  -0.66272  -0.65902  -0.64498
 Alpha  occ. eigenvalues --   -0.63792  -0.63316  -0.62984  -0.62710  -0.61866
 Alpha  occ. eigenvalues --   -0.60739  -0.60582  -0.59663  -0.59244  -0.58689
 Alpha  occ. eigenvalues --   -0.58510  -0.58458  -0.57955  -0.56890  -0.56111
 Alpha  occ. eigenvalues --   -0.55859  -0.55692  -0.55182  -0.54738  -0.54280
 Alpha  occ. eigenvalues --   -0.53887  -0.53759  -0.53131  -0.53019  -0.52363
 Alpha  occ. eigenvalues --   -0.52222  -0.52169  -0.52084  -0.51198  -0.50636
 Alpha  occ. eigenvalues --   -0.50387  -0.49923  -0.49629  -0.49269  -0.49011
 Alpha  occ. eigenvalues --   -0.48963  -0.48481  -0.47915  -0.47453  -0.47311
 Alpha  occ. eigenvalues --   -0.47232  -0.46264  -0.44959  -0.43470  -0.42913
 Alpha  occ. eigenvalues --   -0.41365  -0.40012  -0.39233  -0.37884  -0.37577
 Alpha  occ. eigenvalues --   -0.37344  -0.37110  -0.36715  -0.35666  -0.34647
 Alpha  occ. eigenvalues --   -0.33972  -0.33762  -0.33483  -0.33400  -0.33059
 Alpha  occ. eigenvalues --   -0.32791  -0.32338  -0.31936  -0.31607  -0.31135
 Alpha  occ. eigenvalues --   -0.30668  -0.28180  -0.26823  -0.24788
 Alpha virt. eigenvalues --    0.02497   0.04829   0.07048   0.07925   0.08933
 Alpha virt. eigenvalues --    0.09350   0.09733   0.10826   0.11155   0.11552
 Alpha virt. eigenvalues --    0.12739   0.13998   0.14193   0.14498   0.15196

 Mulliken charges:
               1
     1  N   -0.305237
     2  C    0.180299
     3  C    0.039557
     4  N   -0.230898
     5  C    0.116976
     6  H    0.023288
     7  N   -0.292708
     8  C    0.135603
     9  H    0.011543
    10  N   -0.287233
    11  C    0.242653
    12  C    0.085203
    13  N   -0.039917
    14  H    0.115672
    15  H    0.087816
    16  H    0.027652
    17  H    0.035394
    18  H    0.018339
    19  N   -0.304827
    20  C    0.256626
    21  C    0.187162
    22  N   -0.124994
    23  H    0.117518
    24  H    0.119347
    25  N   -0.310039
    26  C    0.249401
    27  N   -0.145544
    28  H    0.119899
    29  C    0.189082
    30  O   -0.328562
    31  C   -0.021208
    32  N   -0.210732
    33  C    0.123771
    34  H    0.019134
    35  H    0.007007
    36  H    0.034015
    37  H    0.026561
    38  H    0.043486
    39  H    0.059211
    40  H    0.077914
    41  H    0.022167
    42  C   -0.081687
    43  O   -0.283032
    44  C    0.155091
    45  H    0.128729
    46  N   -0.102669
    47  O   -0.350742
    48  C    0.340517
    49  H    0.041924
    50  C    0.173073
    51  C    0.046956
    52  N   -0.276541
    53  H    0.035563
    54  H    0.040885
    55  H    0.026669
    56  H    0.125271
    57  H    0.112430
    58  N   -0.007037
    59  C    0.036912
    60  C    0.229585
    61  N   -0.269608
    62  H    0.027460
    63  C    0.155163
    64  N   -0.289823
    65  H    0.034116
    66  C    0.117891
    67  N   -0.248443
    68  C    0.043181
    69  C    0.176193
    70  N   -0.308428
 Sum of Mulliken charges =  -0.00000

 Dipole moment (field-independent basis, Debye):
    X=              4.2597    Y=              3.4541    Z=              6.7307  Tot=              8.6821
 Quadrupole moment (field-independent basis, Debye-Ang):
   XX=           -145.6690   YY=           -235.3112   ZZ=           -249.2267
   XY=              7.2175   XZ=             11.6532   YZ=             16.6751

 Normal termination of Gaussian 16 at Thu Jan 25 10:56:48 2018.
