 Gaussian 16, Revision A.03,
 Gaussian 16:  EM64L-G16RevA.03 25-Dec-2016

 ---------------------------------------
 #p wb97xd/cc-pvdz sp scf=(maxcycles=20)
 ---------------------------------------

 ------------------
 Base pair stacking
 ------------------
 Symbolic Z-matrix:
 Charge =  0 Multiplicity = 1

                         Standard orientation:
 ---------------------------------------------------------------------
 Center     Atomic      Atomic             Coordinates (Angstroms)
 Number     Number       Type             X           Y           Z
 ---------------------------------------------------------------------
      1          7           0       -4.497962   -0.333364    2.000441
      2          6           0       -5.739767    0.435558    2.211797
      3          6           0       -2.388328   -0.897623    1.738969
      4          7           0       -3.118654   -2.073747    1.649064
      5          6           0       -4.360395   -1.686726    1.810190
      6          1           0       -5.223741   -2.352653    1.799204
      7          7           0       -0.611863    0.653168    1.785321
      8          6           0       -1.539314    1.593891    1.991385
      9          1           0       -1.157735    2.609133    2.091072
     10          7           0       -2.861133    1.469376    2.092322
     11          6           0       -3.224850    0.183524    1.955441
     12          6           0       -1.009855   -0.630895    1.651721
     13          7           0       -0.085549   -1.571363    1.445965
     14          1           0       -0.334705   -2.534796    1.341334
     15          1           0        0.886951   -1.345124    1.389414
     16          1           0       -6.201261    0.106159    3.035638
     17          1           0       -5.518551    1.404354    2.319618
     18          1           0       -6.344535    0.319163    1.423947
     19          7           0       -5.716319    0.192586   -0.971110
     20          6           0       -4.402567    0.588981   -1.041589
     21          6           0       -6.861014    1.078966   -0.680046
     22          7           0       -2.000107    3.088809   -0.839565
     23          1           0       -1.008087    3.167828   -0.933860
     24          1           0       -2.503937    3.926721   -0.627967
     25          7           0       -3.940375    1.844695   -0.858269
     26          6           0       -2.627491    1.912501   -0.989928
     27          7           0       -1.826658    0.834239   -1.278971
     28          1           0       -0.832110    0.979396   -1.361221
     29          6           0       -2.280573   -0.466794   -1.471655
     30          8           0       -1.473653   -1.368819   -1.728513
     31          6           0       -3.689081   -0.555409   -1.333372
     32          7           0       -4.537843   -1.648247   -1.443845
     33          6           0       -5.727121   -1.157867   -1.221703
     34          1           0       -6.649755   -1.739217   -1.228690
     35          1           0       -7.325517    0.765433    0.147440
     36          1           0       -6.530873    2.011882   -0.542395
     37          1           0       -7.500834    1.062820   -1.447625
     38          1           0        4.080421    2.240693   -1.002234
     39          1           0        3.980362    2.296357   -2.760517
     40          1           0        2.571279    2.712094   -1.784309
     41          1           0        4.257258   -2.452978   -2.043751
     42          6           0        3.523210   -1.649919   -1.976557
     43          8           0        1.656446   -3.112354   -1.916618
     44          6           0        2.131796   -1.977117   -1.907732
     45          1           0        0.297845   -1.078623   -1.774930
     46          7           0        1.288613   -0.887408   -1.825252
     47          8           0        0.826232    1.333871   -1.728629
     48          6           0        1.647645    0.437048   -1.803758
     49          1           0        4.949757   -0.065676   -2.007577
     50          6           0        3.904356   -0.367362   -1.957642
     51          6           0        3.438300    2.072125   -1.853896
     52          7           0        3.006791    0.671715   -1.873674
     53          1           0        6.935453    3.038736    1.613845
     54          1           0        5.564842    3.260382    0.756887
     55          1           0        6.961863    2.914965   -0.013234
     56          1           0        3.137739   -3.323993    1.215744
     57          1           0        4.842492   -3.265909    1.238452
     58          7           0        3.972579   -2.774104    1.187474
     59          6           0        3.928879   -1.444061    1.086293
     60          6           0        4.866932    0.737524    0.936386
     61          7           0        3.684386    1.371212    0.869711
     62          1           0        1.683438    0.927561    0.871418
     63          6           0        2.682248    0.495939    0.919908
     64          7           0        2.723972   -0.836564    1.021239
     65          1           0        8.083462    0.420564    1.011471
     66          6           0        7.005367    0.257359    1.006660
     67          7           0        6.429101   -0.917057    1.086225
     68          6           0        5.073128   -0.626913    1.042752
     69          6           0        6.419366    2.744489    0.809447
     70          7           0        6.119741    1.303172    0.913567
 ---------------------------------------------------------------------

 SCF Done:  E(RwB97XD) =  -2048.74102177     A.U. after   15 cycles

 The electronic state is 1-A.
 Alpha  occ. eigenvalues --  -19.25068 -19.21283 -19.20766 -14.52650 -14.51476
 Alpha  occ. eigenvalues --  -14.49558 -14.49149 -14.48171 -14.47016 -14.46897
 Alpha  occ. eigenvalues --  -14.46671 -14.45378 -14.44552 -14.44523 -14.43051
 Alpha  occ. eigenvalues --  -14.42100 -14.41577 -14.41574 -14.41506 -14.41087
 Alpha  occ. eigenvalues --  -10.44624 -10.41330 -10.40075 -10.39365 -10.38443
 Alpha  occ. eigenvalues --  -10.37957 -10.37387 -10.36823 -10.36178 -10.36164
 Alpha  occ. eigenvalues --  -10.34834 -10.34367 -10.34234 -10.33994 -10.33897
 Alpha  occ. eigenvalues --  -10.33772 -10.33441 -10.32735 -10.31973 -10.31268
 Alpha  occ. eigenvalues --  -10.30125 -10.29089 -10.28546  -1.18632  -1.15350
 Alpha  occ. eigenvalues --   -1.13479  -1.12280  -1.11737  -1.11147  -1.09555
 Alpha  occ. eigenvalues --   -1.08708  -1.08342  -1.05769  -1.05011  -1.01643
 Alpha  occ. eigenvalues --   -1.01136  -1.01042  -0.99805  -0.98861  -0.97474
 Alpha  occ. eigenvalues --   -0.97193  -0.97051  -0.93440  -0.90105  -0.87797
 Alpha  occ. eigenvalues --   -0.86119  -0.85033  -0.84274  -0.83492  -0.82649
 Alpha  occ. eigenvalues --   -0.82427  -0.78007  -0.77161  -0.75115  -0.75044
 Alpha  occ. eigenvalues --   -0.73772  -0.73476  -0.72481  -0.71670  -0.70534
 Alpha  occ. eigenvalues --   -0.67615  -0.66956  -0.66917  -0.65709  -0.64790
 Alpha  occ. eigenvalues --   -0.64373  -0.63343  -0.63200  -0.62762  -0.61950
 Alpha  occ. eigenvalues --   -0.61007  -0.60851  -0.60480  -0.59871  -0.59747
 Alpha  occ. eigenvalues --   -0.58942  -0.58735  -0.58371  -0.57191  -0.56150
 Alpha  occ. eigenvalues --   -0.55720  -0.55540  -0.55148  -0.54540  -0.54454
 Alpha  occ. eigenvalues --   -0.54233  -0.53768  -0.53387  -0.53044  -0.53011
 Alpha  occ. eigenvalues --   -0.52524  -0.52162  -0.51310  -0.50897  -0.50530
 Alpha  occ. eigenvalues --   -0.50331  -0.50067  -0.49580  -0.49350  -0.49218
 Alpha  occ. eigenvalues --   -0.48969  -0.48771  -0.48104  -0.47521  -0.47283
 Alpha  occ. eigenvalues --   -0.47125  -0.46189  -0.45005  -0.44768  -0.42973
 Alpha  occ. eigenvalues --   -0.41299  -0.40655  -0.38879  -0.38082  -0.37853
 Alpha  occ. eigenvalues --   -0.37654  -0.37572  -0.37261  -0.35560  -0.34847
 Alpha  occ. eigenvalues --   -0.34501  -0.34170  -0.33961  -0.33844  -0.33114
 Alpha  occ. eigenvalues --   -0.33069  -0.32472  -0.32036  -0.31633  -0.31318
 Alpha  occ. eigenvalues --   -0.30971  -0.29493  -0.26995  -0.25237
 Alpha virt. eigenvalues --    0.03765   0.04079   0.06537   0.07354   0.08652
 Alpha virt. eigenvalues --    0.09162   0.09516   0.10296   0.10433   0.12311
 Alpha virt. eigenvalues --    0.13034   0.13547   0.14065   0.14621   0.14972

 Mulliken charges:
               1
     1  N   -0.296347
     2  C    0.205172
     3  C    0.045684
     4  N   -0.239240
     5  C    0.143240
     6  H    0.025807
     7  N   -0.283204
     8  C    0.116090
     9  H    0.002163
    10  N   -0.269822
    11  C    0.226113
    12  C    0.076559
    13  N   -0.050538
    14  H    0.115505
    15  H    0.086790
    16  H    0.027009
    17  H    0.037681
    18  H   -0.020702
    19  N   -0.301302
    20  C    0.227781
    21  C    0.182954
    22  N   -0.107116
    23  H    0.118499
    24  H    0.119254
    25  N   -0.287109
    26  C    0.221857
    27  N   -0.123031
    28  H    0.119145
    29  C    0.177191
    30  O   -0.317735
    31  C   -0.001264
    32  N   -0.209652
    33  C    0.099719
    34  H    0.022955
    35  H    0.015696
    36  H    0.034931
    37  H    0.026804
    38  H    0.053470
    39  H    0.046124
    40  H    0.071293
    41  H    0.020448
    42  C   -0.098196
    43  O   -0.275787
    44  C    0.178741
    45  H    0.129458
    46  N   -0.116567
    47  O   -0.344608
    48  C    0.315667
    49  H    0.042747
    50  C    0.154354
    51  C    0.050366
    52  N   -0.263353
    53  H    0.037109
    54  H    0.047490
    55  H    0.028348
    56  H    0.125560
    57  H    0.120246
    58  N   -0.056113
    59  C    0.102182
    60  C    0.222658
    61  N   -0.279877
    62  H    0.037022
    63  C    0.161692
    64  N   -0.306558
    65  H    0.039199
    66  C    0.136932
    67  N   -0.255678
    68  C    0.044871
    69  C    0.176117
    70  N   -0.312898
 Sum of Mulliken charges =  -0.00000

 Dipole moment (field-independent basis, Debye):
    X=              4.5722    Y=              7.7868    Z=              1.6018  Tot=              9.1709
 Quadrupole moment (field-independent basis, Debye-Ang):
   XX=           -144.8348   YY=           -236.0159   ZZ=           -253.6251
   XY=              5.3553   XZ=            -10.3605   YZ=            -18.5225

 Normal termination of Gaussian 16 at Fri Jan 26 12:51:57 2018.
