 Gaussian 16, Revision A.03,
 Gaussian 16:  EM64L-G16RevA.03 25-Dec-2016

 ---------------------------------------
 #p wb97xd/cc-pvdz sp scf=(maxcycles=20)
 ---------------------------------------

 ------------------
 Base pair stacking
 ------------------
 Symbolic Z-matrix:
 Charge =  0 Multiplicity = 1

                         Standard orientation:
 ---------------------------------------------------------------------
 Center     Atomic      Atomic             Coordinates (Angstroms)
 Number     Number       Type             X           Y           Z
 ---------------------------------------------------------------------
      1          7           0       -5.961422    0.938004   -0.816119
      2          6           0       -7.206255    0.251925   -1.213239
      3          6           0       -3.847412    1.496980   -0.579869
      4          7           0       -4.577859    2.424574    0.148649
      5          6           0       -5.822238    2.050683   -0.022841
      6          1           0       -6.686472    2.555049    0.410368
      7          7           0       -2.069316    0.311581   -1.577927
      8          6           0       -2.999394   -0.500371   -2.091024
      9          1           0       -2.618156   -1.312610   -2.708429
     10          7           0       -4.323468   -0.459818   -1.956592
     11          6           0       -4.686546    0.574446   -1.180123
     12          6           0       -2.466730    1.342801   -0.800934
     13          7           0       -1.539801    2.154401   -0.287835
     14          1           0       -1.788434    2.930411    0.292857
     15          1           0       -0.565775    2.014501   -0.466293
     16          1           0       -7.792396    0.886891   -1.716664
     17          1           0       -6.985620   -0.529772   -1.795813
     18          1           0       -7.687839   -0.068018   -0.397321
     19          7           0       -4.263411   -1.191444    1.198271
     20          6           0       -2.948054   -1.445437    0.892734
     21          6           0       -5.426709   -1.873441    0.596343
     22          7           0       -0.567454   -3.211590   -0.917022
     23          1           0        0.428855   -3.241819   -0.992478
     24          1           0       -1.085723   -3.840145   -1.497569
     25          7           0       -2.500895   -2.353409   -0.001527
     26          6           0       -1.181809   -2.366469   -0.075461
     27          7           0       -0.361566   -1.553357    0.668555
     28          1           0        0.636358   -1.632018    0.546446
     29          6           0       -0.799783   -0.611913    1.594582
     30          8           0        0.024131    0.072130    2.214272
     31          6           0       -2.214709   -0.586269    1.685088
     32          7           0       -3.052812    0.191463    2.472241
     33          6           0       -4.255407   -0.201380    2.150299
     34          1           0       -5.174944    0.199179    2.578423
     35          1           0       -6.006920   -1.202595    0.135779
     36          1           0       -5.107810   -2.548373   -0.067762
     37          1           0       -5.952218   -2.333367    1.311265
     38          1           0        5.464522   -2.058936   -0.989551
     39          1           0        5.613729   -3.070067    0.445717
     40          1           0        4.086440   -3.009921   -0.434693
     41          1           0        5.728575    1.308222    2.436681
     42          6           0        5.002304    0.610070    2.020336
     43          8           0        3.127869    1.699679    2.982819
     44          6           0        3.611143    0.798596    2.297771
     45          1           0        1.787933   -0.039999    1.896533
     46          7           0        2.778192   -0.140098    1.723062
     47          8           0        2.334143   -1.982236    0.471456
     48          6           0        3.146872   -1.202469    0.936308
     49          1           0        6.438355   -0.604105    1.015683
     50          6           0        5.392720   -0.416799    1.256331
     51          6           0        4.946688   -2.437543   -0.120890
     52          7           0        4.505095   -1.317190    0.714296
     53          1           0        5.461464   -1.202443   -3.495575
     54          1           0        4.239589   -1.919256   -2.686071
     55          1           0        5.729752   -1.853605   -2.023355
     56          1           0        1.648030    3.870571    0.349905
     57          1           0        3.330811    3.980011    0.092239
     58          7           0        2.487818    3.447321    0.009654
     59          6           0        2.484765    2.226860   -0.530375
     60          6           0        3.475439    0.321288   -1.554641
     61          7           0        2.328433   -0.370960   -1.652592
     62          1           0        0.341992   -0.156034   -1.196024
     63          6           0        1.313901    0.333911   -1.155817
     64          7           0        1.314918    1.556430   -0.614513
     65          1           0        6.637643    0.917847   -1.865679
     66          6           0        5.569646    0.964293   -1.650816
     67          7           0        4.966043    1.983329   -1.089641
     68          6           0        3.637682    1.588700   -1.022771
     69          6           0        5.066683   -1.365997   -2.591479
     70          7           0        4.727837   -0.076519   -1.958685
 ---------------------------------------------------------------------

 SCF Done:  E(RwB97XD) =  -2048.69245506     A.U. after   15 cycles

 The electronic state is 1-A.
 Alpha  occ. eigenvalues --  -19.24844 -19.21467 -19.20564 -14.52326 -14.51839
 Alpha  occ. eigenvalues --  -14.49950 -14.48601 -14.47221 -14.47219 -14.46725
 Alpha  occ. eigenvalues --  -14.46576 -14.44990 -14.43842 -14.43802 -14.43118
 Alpha  occ. eigenvalues --  -14.42435 -14.41711 -14.41661 -14.40964 -14.40703
 Alpha  occ. eigenvalues --  -10.44652 -10.41013 -10.39539 -10.39273 -10.38145
 Alpha  occ. eigenvalues --  -10.37673 -10.37160 -10.36869 -10.36388 -10.35329
 Alpha  occ. eigenvalues --  -10.35076 -10.34369 -10.34170 -10.34104 -10.33977
 Alpha  occ. eigenvalues --  -10.33875 -10.33193 -10.32328 -10.32257 -10.30420
 Alpha  occ. eigenvalues --  -10.30399 -10.29426 -10.27989  -1.18734  -1.15028
 Alpha  occ. eigenvalues --   -1.13115  -1.12497  -1.12434  -1.10438  -1.08898
 Alpha  occ. eigenvalues --   -1.08555  -1.08419  -1.05938  -1.04210  -1.01998
 Alpha  occ. eigenvalues --   -1.01389  -1.00878  -0.99603  -0.98360  -0.98124
 Alpha  occ. eigenvalues --   -0.96408  -0.96373  -0.93569  -0.90602  -0.88423
 Alpha  occ. eigenvalues --   -0.86573  -0.85112  -0.83921  -0.83529  -0.82951
 Alpha  occ. eigenvalues --   -0.82227  -0.78328  -0.76652  -0.74595  -0.74337
 Alpha  occ. eigenvalues --   -0.73911  -0.73468  -0.72970  -0.72010  -0.70274
 Alpha  occ. eigenvalues --   -0.67345  -0.67277  -0.67118  -0.65998  -0.64905
 Alpha  occ. eigenvalues --   -0.64072  -0.63895  -0.63627  -0.63010  -0.62447
 Alpha  occ. eigenvalues --   -0.61591  -0.61259  -0.60337  -0.59486  -0.59183
 Alpha  occ. eigenvalues --   -0.59076  -0.58262  -0.58126  -0.57547  -0.56462
 Alpha  occ. eigenvalues --   -0.55775  -0.55586  -0.55310  -0.55089  -0.54023
 Alpha  occ. eigenvalues --   -0.53860  -0.53375  -0.53262  -0.52890  -0.52728
 Alpha  occ. eigenvalues --   -0.52592  -0.51875  -0.51554  -0.51196  -0.50157
 Alpha  occ. eigenvalues --   -0.49851  -0.49565  -0.49533  -0.49254  -0.48827
 Alpha  occ. eigenvalues --   -0.48423  -0.48114  -0.48026  -0.47995  -0.47233
 Alpha  occ. eigenvalues --   -0.47009  -0.46164  -0.45500  -0.43391  -0.42038
 Alpha  occ. eigenvalues --   -0.41930  -0.40320  -0.38782  -0.38045  -0.37666
 Alpha  occ. eigenvalues --   -0.37180  -0.37004  -0.36767  -0.35781  -0.34704
 Alpha  occ. eigenvalues --   -0.34489  -0.34364  -0.33758  -0.33625  -0.32803
 Alpha  occ. eigenvalues --   -0.32676  -0.32407  -0.31732  -0.31385  -0.31254
 Alpha  occ. eigenvalues --   -0.30973  -0.28956  -0.26951  -0.25107
 Alpha virt. eigenvalues --    0.03191   0.04801   0.06844   0.07027   0.09182
 Alpha virt. eigenvalues --    0.09410   0.09597   0.10407   0.10811   0.12307
 Alpha virt. eigenvalues --    0.13061   0.13563   0.14478   0.14543   0.14901

 Mulliken charges:
               1
     1  N   -0.306723
     2  C    0.192014
     3  C    0.065242
     4  N   -0.242526
     5  C    0.117335
     6  H    0.027160
     7  N   -0.279203
     8  C    0.150115
     9  H    0.006690
    10  N   -0.275559
    11  C    0.205649
    12  C    0.069266
    13  N   -0.040476
    14  H    0.110770
    15  H    0.090319
    16  H    0.026948
    17  H    0.038558
    18  H    0.029070
    19  N   -0.289052
    20  C    0.225856
    21  C    0.227616
    22  N   -0.111770
    23  H    0.117014
    24  H    0.117484
    25  N   -0.293490
    26  C    0.222630
    27  N   -0.138300
    28  H    0.119953
    29  C    0.174657
    30  O   -0.322600
    31  C   -0.005597
    32  N   -0.218921
    33  C    0.128466
    34  H    0.019704
    35  H   -0.053766
    36  H    0.037666
    37  H    0.022465
    38  H    0.048234
    39  H    0.050828
    40  H    0.073209
    41  H    0.024902
    42  C   -0.076852
    43  O   -0.270030
    44  C    0.164746
    45  H    0.132488
    46  N   -0.119078
    47  O   -0.333903
    48  C    0.325260
    49  H    0.038341
    50  C    0.153753
    51  C    0.028944
    52  N   -0.269976
    53  H    0.024034
    54  H    0.037207
    55  H   -0.009784
    56  H    0.121379
    57  H    0.120678
    58  N   -0.054493
    59  C    0.120668
    60  C    0.204931
    61  N   -0.252714
    62  H    0.032364
    63  C    0.147480
    64  N   -0.299811
    65  H    0.033634
    66  C    0.118375
    67  N   -0.243363
    68  C    0.033081
    69  C    0.239746
    70  N   -0.308938
 Sum of Mulliken charges =  -0.00000

 Dipole moment (field-independent basis, Debye):
    X=              3.9628    Y=             -4.8489    Z=             -6.3236  Tot=              8.8996
 Quadrupole moment (field-independent basis, Debye-Ang):
   XX=           -146.0752   YY=           -224.4642   ZZ=           -264.1961
   XY=            -13.0034   XZ=            -14.8773   YZ=              2.2681

 Normal termination of Gaussian 16 at Thu Jan 25 05:46:08 2018.
