 Gaussian 16, Revision A.03,
 Gaussian 16:  EM64L-G16RevA.03 25-Dec-2016

 ---------------------------------------
 #p wb97xd/cc-pvdz sp scf=(maxcycles=20)
 ---------------------------------------

 ------------------
 Base pair stacking
 ------------------
 Symbolic Z-matrix:
 Charge =  0 Multiplicity = 1

                         Standard orientation:
 ---------------------------------------------------------------------
 Center     Atomic      Atomic             Coordinates (Angstroms)
 Number     Number       Type             X           Y           Z
 ---------------------------------------------------------------------
      1          7           0        4.768555   -2.104752   -0.430525
      2          6           0        6.002627   -2.112367   -1.239852
      3          6           0        2.664770   -1.997994    0.201935
      4          7           0        3.406548   -2.208356    1.355292
      5          6           0        4.644314   -2.264262    0.928095
      6          1           0        5.514084   -2.421349    1.566653
      7          7           0        0.873303   -1.651931   -1.292663
      8          6           0        1.791364   -1.611283   -2.263791
      9          1           0        1.399869   -1.450698   -3.267375
     10          7           0        3.114227   -1.738618   -2.181706
     11          6           0        3.490544   -1.931916   -0.906774
     12          6           0        1.283871   -1.847885   -0.020619
     13          7           0        0.368935   -1.888767    0.950161
     14          1           0        0.627540   -2.031622    1.906156
     15          1           0       -0.605646   -1.778057    0.755048
     16          1           0        6.466398   -2.992165   -1.134697
     17          1           0        5.771906   -1.971194   -2.202126
     18          1           0        6.609327   -1.378965   -0.933233
     19          7           0        5.453178    1.264542    0.240171
     20          6           0        4.139871    1.488875   -0.095933
     21          6           0        6.610816    1.476404   -0.651836
     22          7           0        1.757479    2.486072   -2.417903
     23          1           0        0.763418    2.582612   -2.459789
     24          1           0        2.271863    2.727401   -3.241245
     25          7           0        3.689941    1.936927   -1.287924
     26          6           0        2.373944    2.052541   -1.307978
     27          7           0        1.559090    1.752820   -0.243230
     28          1           0        0.563202    1.871409   -0.348638
     29          6           0        2.000233    1.290356    0.992648
     30          8           0        1.181178    1.049347    1.888079
     31          6           0        3.411906    1.161077    1.029419
     32          7           0        4.251294    0.739447    2.051450
     33          6           0        5.449375    0.817196    1.538830
     34          1           0        6.368401    0.559459    2.066290
     35          1           0        7.099279    0.613599   -0.777391
     36          1           0        6.289823    1.808347   -1.537866
     37          1           0        7.226342    2.151820   -0.247150
     38          1           0       -4.329354    2.059904   -1.719773
     39          1           0       -4.283818    3.619088   -0.900307
     40          1           0       -2.842937    3.009592   -1.715020
     41          1           0       -4.562155    0.648137    2.873621
     42          6           0       -3.822340    1.003551    2.156278
     43          8           0       -1.961996    0.276597    3.436032
     44          6           0       -2.431116    0.816672    2.434514
     45          1           0       -0.589419    1.189129    1.623506
     46          7           0       -1.580298    1.302766    1.462364
     47          8           0       -1.103962    2.324862   -0.508834
     48          6           0       -1.931826    1.927989    0.292293
     49          1           0       -5.241169    1.776229    0.764971
     50          6           0       -4.196251    1.609829    1.023485
     51          6           0       -3.714921    2.733377   -1.141007
     52          7           0       -3.291285    2.071006    0.095741
     53          1           0       -6.696591   -0.891610   -3.483761
     54          1           0       -5.327271   -0.004502   -3.493966
     55          1           0       -6.720065    0.650809   -2.951017
     56          1           0       -2.836955   -2.115279    2.734861
     57          1           0       -4.542224   -2.124944    2.689362
     58          7           0       -3.677058   -1.949623    2.218223
     59          6           0       -3.646138   -1.514272    0.956998
     60          6           0       -4.605132   -0.817163   -1.106037
     61          7           0       -3.428718   -0.590226   -1.713464
     62          1           0       -1.423575   -0.701582   -1.304069
     63          6           0       -2.418203   -0.859400   -0.889256
     64          7           0       -2.447108   -1.295524    0.374280
     65          1           0       -7.818523   -0.974773   -0.787479
     66          6           0       -6.738894   -1.009992   -0.638802
     67          7           0       -6.151356   -1.384076    0.471397
     68          6           0       -4.798205   -1.266482    0.188702
     69          6           0       -6.176811   -0.187441   -3.000062
     70          7           0       -5.863338   -0.653381   -1.635275
 ---------------------------------------------------------------------

 SCF Done:  E(RwB97XD) =  -2048.74438790     A.U. after   15 cycles

 The electronic state is 1-A.
 Alpha  occ. eigenvalues --  -19.25394 -19.21761 -19.20837 -14.52300 -14.51896
 Alpha  occ. eigenvalues --  -14.49324 -14.49043 -14.47485 -14.47262 -14.47021
 Alpha  occ. eigenvalues --  -14.46791 -14.45090 -14.44214 -14.44073 -14.42565
 Alpha  occ. eigenvalues --  -14.42189 -14.41331 -14.41281 -14.41278 -14.40768
 Alpha  occ. eigenvalues --  -10.44938 -10.41415 -10.39770 -10.39555 -10.38474
 Alpha  occ. eigenvalues --  -10.37663 -10.37113 -10.36903 -10.35816 -10.35730
 Alpha  occ. eigenvalues --  -10.34717 -10.34649 -10.34182 -10.33904 -10.33742
 Alpha  occ. eigenvalues --  -10.33680 -10.33499 -10.32280 -10.31730 -10.31534
 Alpha  occ. eigenvalues --  -10.30301 -10.28816 -10.28440  -1.18943  -1.14969
 Alpha  occ. eigenvalues --   -1.13445  -1.12760  -1.11584  -1.10996  -1.09096
 Alpha  occ. eigenvalues --   -1.08812  -1.08674  -1.05455  -1.04486  -1.02015
 Alpha  occ. eigenvalues --   -1.00780  -1.00672  -0.99891  -0.98793  -0.97257
 Alpha  occ. eigenvalues --   -0.96968  -0.96611  -0.93109  -0.90490  -0.87386
 Alpha  occ. eigenvalues --   -0.85744  -0.84665  -0.84195  -0.83221  -0.83022
 Alpha  occ. eigenvalues --   -0.82635  -0.78365  -0.76726  -0.74972  -0.74650
 Alpha  occ. eigenvalues --   -0.73817  -0.73225  -0.72828  -0.71394  -0.70060
 Alpha  occ. eigenvalues --   -0.67628  -0.66641  -0.66503  -0.66022  -0.64641
 Alpha  occ. eigenvalues --   -0.63889  -0.63593  -0.63034  -0.62789  -0.61988
 Alpha  occ. eigenvalues --   -0.60652  -0.60531  -0.60122  -0.59336  -0.59074
 Alpha  occ. eigenvalues --   -0.58764  -0.58512  -0.58435  -0.56902  -0.55853
 Alpha  occ. eigenvalues --   -0.55809  -0.55706  -0.55082  -0.54543  -0.54282
 Alpha  occ. eigenvalues --   -0.54237  -0.53624  -0.53477  -0.53234  -0.52773
 Alpha  occ. eigenvalues --   -0.52558  -0.52087  -0.51880  -0.50927  -0.50657
 Alpha  occ. eigenvalues --   -0.50452  -0.49958  -0.49517  -0.49190  -0.49124
 Alpha  occ. eigenvalues --   -0.48980  -0.48512  -0.48412  -0.47386  -0.47318
 Alpha  occ. eigenvalues --   -0.47222  -0.46187  -0.44882  -0.44550  -0.43324
 Alpha  occ. eigenvalues --   -0.41342  -0.40486  -0.39112  -0.37767  -0.37647
 Alpha  occ. eigenvalues --   -0.37485  -0.37238  -0.37218  -0.35738  -0.34603
 Alpha  occ. eigenvalues --   -0.34339  -0.34065  -0.33791  -0.33656  -0.33163
 Alpha  occ. eigenvalues --   -0.32834  -0.32444  -0.31996  -0.31724  -0.31105
 Alpha  occ. eigenvalues --   -0.30729  -0.29225  -0.26936  -0.24911
 Alpha virt. eigenvalues --    0.03203   0.04549   0.06479   0.07238   0.08628
 Alpha virt. eigenvalues --    0.09549   0.09732   0.10757   0.10941   0.11861
 Alpha virt. eigenvalues --    0.12778   0.13829   0.14217   0.14453   0.15150

 Mulliken charges:
               1
     1  N   -0.304182
     2  C    0.191592
     3  C    0.038774
     4  N   -0.233223
     5  C    0.137714
     6  H    0.024272
     7  N   -0.292600
     8  C    0.127985
     9  H    0.009164
    10  N   -0.283121
    11  C    0.243124
    12  C    0.076631
    13  N   -0.044385
    14  H    0.117246
    15  H    0.087217
    16  H    0.027864
    17  H    0.036863
    18  H    0.000078
    19  N   -0.302139
    20  C    0.252045
    21  C    0.184634
    22  N   -0.122507
    23  H    0.118237
    24  H    0.119899
    25  N   -0.306743
    26  C    0.247276
    27  N   -0.141366
    28  H    0.121153
    29  C    0.184940
    30  O   -0.321689
    31  C   -0.012879
    32  N   -0.207643
    33  C    0.103728
    34  H    0.020750
    35  H    0.008435
    36  H    0.034429
    37  H    0.028146
    38  H    0.048360
    39  H    0.055047
    40  H    0.075449
    41  H    0.017934
    42  C   -0.104490
    43  O   -0.281098
    44  C    0.176356
    45  H    0.127278
    46  N   -0.108583
    47  O   -0.349916
    48  C    0.329077
    49  H    0.044485
    50  C    0.173194
    51  C    0.048021
    52  N   -0.271299
    53  H    0.037034
    54  H    0.042611
    55  H    0.027267
    56  H    0.126845
    57  H    0.117065
    58  N   -0.033603
    59  C    0.062758
    60  C    0.222478
    61  N   -0.268576
    62  H    0.031607
    63  C    0.159550
    64  N   -0.299857
    65  H    0.037068
    66  C    0.130033
    67  N   -0.255250
    68  C    0.047704
    69  C    0.176430
    70  N   -0.310693
 Sum of Mulliken charges =  -0.00000

 Dipole moment (field-independent basis, Debye):
    X=             -4.3329    Y=              2.8502    Z=             -7.2694  Tot=              8.9298
 Quadrupole moment (field-independent basis, Debye-Ang):
   XX=           -145.8309   YY=           -236.5178   ZZ=           -249.6055
   XY=            -10.4705   XZ=              4.9803   YZ=            -17.7686

 Normal termination of Gaussian 16 at Thu Jan 25 08:03:19 2018.
