 Gaussian 16, Revision A.03,
 Gaussian 16:  EM64L-G16RevA.03 25-Dec-2016

 ---------------------------------------
 #p wb97xd/cc-pvdz sp scf=(maxcycles=20)
 ---------------------------------------

 ------------------
 Base pair stacking
 ------------------
 Symbolic Z-matrix:
 Charge =  0 Multiplicity = 1

                         Standard orientation:
 ---------------------------------------------------------------------
 Center     Atomic      Atomic             Coordinates (Angstroms)
 Number     Number       Type             X           Y           Z
 ---------------------------------------------------------------------
      1          7           0       -5.389731    1.124459   -1.114056
      2          6           0       -6.641272    0.488363   -1.569052
      3          6           0       -3.268274    1.599911   -0.781386
      4          7           0       -3.993971    2.553858   -0.082765
      5          6           0       -5.243026    2.229240   -0.311148
      6          1           0       -6.105505    2.766106    0.084869
      7          7           0       -1.494724    0.347954   -1.703384
      8          6           0       -2.431777   -0.425977   -2.260643
      9          1           0       -2.055163   -1.251236   -2.863447
     10          7           0       -3.757962   -0.333982   -2.185418
     11          6           0       -4.114933    0.712098   -1.422058
     12          6           0       -1.886112    1.392341   -0.941054
     13          7           0       -0.952217    2.166051   -0.383941
     14          1           0       -1.196225    2.950008    0.187988
     15          1           0        0.022642    1.988562   -0.519174
     16          1           0       -7.179070    1.146774   -2.095784
     17          1           0       -6.425349   -0.300172   -2.144141
     18          1           0       -7.171055    0.185826   -0.776721
     19          7           0       -4.856909   -0.977642    1.038468
     20          6           0       -3.540066   -1.282222    0.791098
     21          6           0       -6.017725   -1.612429    0.382533
     22          7           0       -1.151307   -3.136369   -0.917027
     23          1           0       -0.154550   -3.205372   -0.947958
     24          1           0       -1.667110   -3.743014   -1.522542
     25          7           0       -3.088961   -2.205156   -0.085682
     26          6           0       -1.769397   -2.269606   -0.100589
     27          7           0       -0.952305   -1.490686    0.682442
     28          1           0        0.046279   -1.608038    0.604794
     29          6           0       -1.394594   -0.534722    1.591497
     30          8           0       -0.573280    0.115337    2.250003
     31          6           0       -2.810082   -0.453985    1.618720
     32          7           0       -3.651711    0.354303    2.370535
     33          6           0       -4.853046    0.009414    1.993641
     34          1           0       -5.774556    0.444738    2.381712
     35          1           0       -6.550129   -0.918477   -0.100987
     36          1           0       -5.695897   -2.297955   -0.269192
     37          1           0       -6.592289   -2.052920    1.071489
     38          1           0        4.918168   -2.220191   -0.715311
     39          1           0        4.963366   -3.239299    0.721358
     40          1           0        3.480587   -3.117721   -0.226250
     41          1           0        5.159265    1.127096    2.732018
     42          6           0        4.425753    0.458710    2.280966
     43          8           0        2.553908    1.618779    3.162760
     44          6           0        3.031951    0.700894    2.496610
     45          1           0        1.197289   -0.064983    2.011046
     46          7           0        2.189680   -0.203360    1.881671
     47          8           0        1.730788   -2.024186    0.604495
     48          6           0        2.551609   -1.277724    1.108181
     49          1           0        5.857028   -0.808619    1.336957
     50          6           0        4.809744   -0.581082    1.531301
     51          6           0        4.347549   -2.580038    0.127880
     52          7           0        3.912921   -1.444986    0.946711
     53          1           0        6.049780   -1.455309   -3.287990
     54          1           0        4.765842   -2.125461   -2.536660
     55          1           0        6.226213   -2.119452   -1.807717
     56          1           0        2.268233    3.755033    0.402245
     57          1           0        3.963860    3.799134    0.220521
     58          7           0        3.105300    3.299980    0.098298
     59          6           0        3.078942    2.081665   -0.445948
     60          6           0        4.039575    0.140928   -1.432072
     61          7           0        2.872024   -0.505772   -1.583855
     62          1           0        0.876987   -0.214301   -1.215779
     63          6           0        1.864460    0.237197   -1.130293
     64          7           0        1.888820    1.457639   -0.584865
     65          1           0        7.233380    0.614067   -1.599099
     66          6           0        6.159442    0.701785   -1.432039
     67          7           0        5.571432    1.742481   -0.894580
     68          6           0        4.227047    1.399939   -0.888694
     69          6           0        5.608784   -1.605148   -2.403082
     70          7           0        5.292386   -0.304711   -1.781197
 ---------------------------------------------------------------------

 SCF Done:  E(RwB97XD) =  -2048.70625266     A.U. after   15 cycles

 The electronic state is 1-A.
 Alpha  occ. eigenvalues --  -19.24949 -19.21394 -19.20359 -14.52647 -14.51608
 Alpha  occ. eigenvalues --  -14.49593 -14.48857 -14.47656 -14.47134 -14.46487
 Alpha  occ. eigenvalues --  -14.46441 -14.45237 -14.44113 -14.44080 -14.43175
 Alpha  occ. eigenvalues --  -14.42074 -14.41605 -14.41431 -14.41138 -14.40864
 Alpha  occ. eigenvalues --  -10.44633 -10.40798 -10.39625 -10.39456 -10.37998
 Alpha  occ. eigenvalues --  -10.37899 -10.37095 -10.36994 -10.36309 -10.35720
 Alpha  occ. eigenvalues --  -10.34774 -10.34535 -10.34202 -10.34123 -10.34092
 Alpha  occ. eigenvalues --  -10.33827 -10.33433 -10.32413 -10.32118 -10.30656
 Alpha  occ. eigenvalues --  -10.30283 -10.29246 -10.27982  -1.18703  -1.15296
 Alpha  occ. eigenvalues --   -1.13057  -1.12376  -1.12175  -1.10528  -1.09067
 Alpha  occ. eigenvalues --   -1.08592  -1.08344  -1.05906  -1.04572  -1.01861
 Alpha  occ. eigenvalues --   -1.01270  -1.01075  -0.99515  -0.98340  -0.97975
 Alpha  occ. eigenvalues --   -0.96694  -0.96505  -0.93567  -0.90301  -0.87848
 Alpha  occ. eigenvalues --   -0.86523  -0.85501  -0.83905  -0.83746  -0.82897
 Alpha  occ. eigenvalues --   -0.82196  -0.78186  -0.76920  -0.74773  -0.74548
 Alpha  occ. eigenvalues --   -0.73805  -0.73380  -0.72696  -0.71869  -0.70346
 Alpha  occ. eigenvalues --   -0.67516  -0.67010  -0.66702  -0.65993  -0.64509
 Alpha  occ. eigenvalues --   -0.64273  -0.63660  -0.63483  -0.62421  -0.62329
 Alpha  occ. eigenvalues --   -0.61606  -0.61295  -0.60561  -0.60445  -0.59518
 Alpha  occ. eigenvalues --   -0.58967  -0.58436  -0.58178  -0.57500  -0.56423
 Alpha  occ. eigenvalues --   -0.55960  -0.55578  -0.55339  -0.54527  -0.53957
 Alpha  occ. eigenvalues --   -0.53860  -0.53607  -0.53314  -0.52938  -0.52845
 Alpha  occ. eigenvalues --   -0.52631  -0.52121  -0.51495  -0.50919  -0.50783
 Alpha  occ. eigenvalues --   -0.50188  -0.49779  -0.49641  -0.49049  -0.48847
 Alpha  occ. eigenvalues --   -0.48538  -0.48217  -0.48048  -0.47773  -0.47654
 Alpha  occ. eigenvalues --   -0.46975  -0.46179  -0.44674  -0.43967  -0.42859
 Alpha  occ. eigenvalues --   -0.41623  -0.40655  -0.38724  -0.37920  -0.37727
 Alpha  occ. eigenvalues --   -0.37387  -0.37001  -0.36574  -0.35889  -0.35001
 Alpha  occ. eigenvalues --   -0.34660  -0.34333  -0.33881  -0.33674  -0.32731
 Alpha  occ. eigenvalues --   -0.32378  -0.32279  -0.31717  -0.31315  -0.31164
 Alpha  occ. eigenvalues --   -0.30784  -0.29564  -0.27532  -0.24203
 Alpha virt. eigenvalues --    0.03003   0.04696   0.06483   0.06980   0.08346
 Alpha virt. eigenvalues --    0.09499   0.10201   0.10441   0.11141   0.12283
 Alpha virt. eigenvalues --    0.12334   0.13889   0.14232   0.14915   0.15152

 Mulliken charges:
               1
     1  N   -0.307184
     2  C    0.215203
     3  C    0.064847
     4  N   -0.237421
     5  C    0.120435
     6  H    0.025569
     7  N   -0.279988
     8  C    0.136749
     9  H    0.000710
    10  N   -0.258283
    11  C    0.213798
    12  C    0.069140
    13  N   -0.041403
    14  H    0.112376
    15  H    0.086765
    16  H    0.018974
    17  H    0.030110
    18  H    0.025296
    19  N   -0.289259
    20  C    0.219947
    21  C    0.211686
    22  N   -0.108224
    23  H    0.117522
    24  H    0.118842
    25  N   -0.272785
    26  C    0.193468
    27  N   -0.117167
    28  H    0.117003
    29  C    0.164831
    30  O   -0.323758
    31  C    0.007935
    32  N   -0.213556
    33  C    0.116676
    34  H    0.018375
    35  H   -0.052174
    36  H    0.039314
    37  H    0.023981
    38  H   -0.034765
    39  H    0.053723
    40  H    0.082056
    41  H    0.023862
    42  C   -0.085958
    43  O   -0.269654
    44  C    0.160544
    45  H    0.129500
    46  N   -0.105035
    47  O   -0.343030
    48  C    0.322313
    49  H    0.038630
    50  C    0.156627
    51  C    0.077555
    52  N   -0.263820
    53  H    0.023625
    54  H    0.036145
    55  H    0.024593
    56  H    0.122935
    57  H    0.120102
    58  N   -0.051654
    59  C    0.101657
    60  C    0.207877
    61  N   -0.266755
    62  H    0.014393
    63  C    0.165305
    64  N   -0.294465
    65  H    0.036658
    66  C    0.122172
    67  N   -0.248367
    68  C    0.049744
    69  C    0.244819
    70  N   -0.319680
 Sum of Mulliken charges =  -0.00000

 Dipole moment (field-independent basis, Debye):
    X=              4.1717    Y=             -5.0287    Z=             -6.2038  Tot=              9.0099
 Quadrupole moment (field-independent basis, Debye-Ang):
   XX=           -145.6096   YY=           -224.1671   ZZ=           -265.9365
   XY=            -12.4550   XZ=             -6.3308   YZ=              1.4638

 Normal termination of Gaussian 16 at Thu Jan 25 05:59:07 2018.
