 Gaussian 16, Revision A.03,
 Gaussian 16:  EM64L-G16RevA.03 25-Dec-2016

 ---------------------------------------
 #p wb97xd/cc-pvdz sp scf=(maxcycles=20)
 ---------------------------------------

 ------------------
 Base pair stacking
 ------------------
 Symbolic Z-matrix:
 Charge =  0 Multiplicity = 1

                         Standard orientation:
 ---------------------------------------------------------------------
 Center     Atomic      Atomic             Coordinates (Angstroms)
 Number     Number       Type             X           Y           Z
 ---------------------------------------------------------------------
      1          7           0       -7.082320   -0.686288    0.258442
      2          6           0       -8.327137   -0.198310    0.883199
      3          6           0       -4.978343   -1.200281   -0.124138
      4          7           0       -5.686846   -1.604565   -1.246327
      5          6           0       -6.926057   -1.278728   -0.970922
      6          1           0       -7.774104   -1.449111   -1.634797
      7          7           0       -3.235972   -0.773031    1.407056
      8          6           0       -4.170966   -0.253011    2.208887
      9          1           0       -3.806595    0.128345    3.161813
     10          7           0       -5.482328   -0.133912    2.011263
     11          6           0       -5.825046   -0.632471    0.811924
     12          6           0       -3.612765   -1.266377    0.207174
     13          7           0       -2.680888   -1.785871   -0.594636
     14          1           0       -2.914465   -2.162466   -1.491768
     15          1           0       -1.718030   -1.816339   -0.326069
     16          1           0       -8.971004   -0.956967    0.983467
     17          1           0       -8.121395    0.184197    1.783470
     18          1           0       -8.736082    0.509811    0.307591
     19          7           0       -2.989411    2.085365   -1.106206
     20          6           0       -1.670971    2.162202   -0.726936
     21          6           0       -4.081395    2.924381   -0.572980
     22          7           0        0.821903    3.608202    1.211226
     23          1           0        1.807302    3.504193    1.343146
     24          1           0        0.361924    4.306837    1.759905
     25          7           0       -1.155663    3.010250    0.189215
     26          6           0        0.146775    2.845560    0.338023
     27          7           0        0.889605    1.921606   -0.356269
     28          1           0        1.880554    1.865830   -0.177787
     29          6           0        0.380391    1.038877   -1.303552
     30          8           0        1.137374    0.243560   -1.873808
     31          6           0       -1.017637    1.203900   -1.474325
     32          7           0       -1.908004    0.538824   -2.306084
     33          6           0       -3.062372    1.093866   -2.053963
     34          1           0       -4.002271    0.817065   -2.532764
     35          1           0       -4.772084    2.342784   -0.144619
     36          1           0       -3.711657    3.556588    0.106636
     37          1           0       -4.498809    3.443989   -1.317689
     38          1           0        6.628291    1.651260    1.629346
     39          1           0        6.993388    2.618546    0.202565
     40          1           0        5.425129    2.774277    0.994823
     41          1           0        6.624997   -1.754719   -1.768581
     42          6           0        5.977904   -0.960643   -1.395827
     43          8           0        4.029957   -1.796336   -2.460847
     44          6           0        4.591779   -0.962084   -1.751503
     45          1           0        2.879497    0.119307   -1.456524
     46          7           0        3.862900    0.086319   -1.227253
     47          8           0        3.603253    1.983992   -0.007162
     48          6           0        4.327529    1.096881   -0.423244
     49          1           0        7.506725    0.058168   -0.313910
     50          6           0        6.460490    0.011581   -0.613214
     51          6           0        6.216063    2.087721    0.731770
     52          7           0        5.674166    1.029090   -0.124609
     53          1           0        4.184877   -0.893772    4.163635
     54          1           0        3.051995    0.206659    3.754090
     55          1           0        4.583145    0.371832    3.213343
     56          1           0        0.480741   -3.184568   -1.844442
     57          1           0        2.135196   -3.518389   -1.596583
     58          7           0        1.308254   -3.037949   -1.302362
     59          6           0        1.310028   -2.237533   -0.234413
     60          6           0        2.291749   -1.142863    1.636324
     61          7           0        1.166462   -0.510485    2.008158
     62          1           0       -0.787894   -0.341964    1.414289
     63          6           0        0.165987   -0.814471    1.183817
     64          7           0        0.162208   -1.615907    0.113654
     65          1           0        5.399205   -2.026380    1.759845
     66          6           0        4.348729   -1.890480    1.501057
     67          7           0        3.751133   -2.464374    0.485578
     68          6           0        2.446342   -1.998835    0.559785
     69          6           0        3.863221   -0.284787    3.438605
     70          7           0        3.524939   -1.077177    2.240411
 ---------------------------------------------------------------------

 SCF Done:  E(RwB97XD) =  -2048.74942741     A.U. after   15 cycles

 The electronic state is 1-A.
 Alpha  occ. eigenvalues --  -19.26017 -19.21820 -19.20851 -14.52582 -14.50651
 Alpha  occ. eigenvalues --  -14.49946 -14.48749 -14.47805 -14.47101 -14.46841
 Alpha  occ. eigenvalues --  -14.45104 -14.43242 -14.42725 -14.42716 -14.42181
 Alpha  occ. eigenvalues --  -14.42153 -14.41956 -14.41824 -14.40993 -14.40915
 Alpha  occ. eigenvalues --  -10.45604 -10.41372 -10.40018 -10.38458 -10.37626
 Alpha  occ. eigenvalues --  -10.37413 -10.36270 -10.36000 -10.35794 -10.35316
 Alpha  occ. eigenvalues --  -10.35119 -10.34500 -10.34458 -10.33937 -10.33803
 Alpha  occ. eigenvalues --  -10.33247 -10.32758 -10.31914 -10.31005 -10.30620
 Alpha  occ. eigenvalues --  -10.30365 -10.29698 -10.28253  -1.19581  -1.13423
 Alpha  occ. eigenvalues --   -1.13267  -1.12805  -1.12547  -1.10684  -1.09443
 Alpha  occ. eigenvalues --   -1.08771  -1.06791  -1.05899  -1.02487  -1.02279
 Alpha  occ. eigenvalues --   -1.01310  -0.99919  -0.98924  -0.98670  -0.98048
 Alpha  occ. eigenvalues --   -0.96597  -0.94487  -0.93469  -0.91021  -0.85700
 Alpha  occ. eigenvalues --   -0.85013  -0.84242  -0.84114  -0.83935  -0.83345
 Alpha  occ. eigenvalues --   -0.82416  -0.78891  -0.74897  -0.74660  -0.73850
 Alpha  occ. eigenvalues --   -0.73791  -0.73360  -0.72617  -0.72023  -0.68205
 Alpha  occ. eigenvalues --   -0.67501  -0.67241  -0.66601  -0.64516  -0.64477
 Alpha  occ. eigenvalues --   -0.63819  -0.63621  -0.62762  -0.62048  -0.61843
 Alpha  occ. eigenvalues --   -0.61022  -0.60250  -0.59587  -0.58512  -0.58454
 Alpha  occ. eigenvalues --   -0.57946  -0.57773  -0.57521  -0.57058  -0.56534
 Alpha  occ. eigenvalues --   -0.56094  -0.56035  -0.54450  -0.54378  -0.53705
 Alpha  occ. eigenvalues --   -0.53616  -0.53531  -0.52968  -0.52783  -0.52716
 Alpha  occ. eigenvalues --   -0.51980  -0.51805  -0.51718  -0.51104  -0.50827
 Alpha  occ. eigenvalues --   -0.50222  -0.49935  -0.49480  -0.48826  -0.48571
 Alpha  occ. eigenvalues --   -0.48255  -0.48111  -0.47955  -0.47821  -0.47689
 Alpha  occ. eigenvalues --   -0.47248  -0.45978  -0.44854  -0.44127  -0.42568
 Alpha  occ. eigenvalues --   -0.42100  -0.39600  -0.38672  -0.38187  -0.37446
 Alpha  occ. eigenvalues --   -0.37344  -0.36082  -0.35329  -0.35277  -0.34662
 Alpha  occ. eigenvalues --   -0.34496  -0.34374  -0.33282  -0.32821  -0.32555
 Alpha  occ. eigenvalues --   -0.32504  -0.32201  -0.32015  -0.31959  -0.31869
 Alpha  occ. eigenvalues --   -0.31154  -0.27584  -0.26614  -0.25537
 Alpha virt. eigenvalues --    0.03124   0.06002   0.06915   0.08274   0.08961
 Alpha virt. eigenvalues --    0.09248   0.09747   0.10219   0.10818   0.12769
 Alpha virt. eigenvalues --    0.13007   0.13479   0.14355   0.14775   0.15382

 Mulliken charges:
               1
     1  N   -0.310307
     2  C    0.180398
     3  C    0.024374
     4  N   -0.256660
     5  C    0.128937
     6  H    0.029461
     7  N   -0.281518
     8  C    0.132434
     9  H    0.018466
    10  N   -0.288746
    11  C    0.237489
    12  C    0.085429
    13  N   -0.029446
    14  H    0.107854
    15  H    0.093095
    16  H    0.028690
    17  H    0.037274
    18  H    0.024926
    19  N   -0.304834
    20  C    0.255300
    21  C    0.182929
    22  N   -0.123249
    23  H    0.114018
    24  H    0.119160
    25  N   -0.307906
    26  C    0.246044
    27  N   -0.134427
    28  H    0.117733
    29  C    0.175878
    30  O   -0.327783
    31  C   -0.012587
    32  N   -0.231981
    33  C    0.124500
    34  H    0.030492
    35  H    0.030955
    36  H    0.028701
    37  H    0.022266
    38  H    0.054804
    39  H    0.064148
    40  H    0.075251
    41  H    0.029977
    42  C   -0.079510
    43  O   -0.274684
    44  C    0.189571
    45  H    0.134455
    46  N   -0.125929
    47  O   -0.352112
    48  C    0.343990
    49  H    0.043977
    50  C    0.150521
    51  C    0.038309
    52  N   -0.291254
    53  H    0.030327
    54  H    0.039266
    55  H    0.013486
    56  H    0.113916
    57  H    0.122687
    58  N   -0.045352
    59  C    0.131784
    60  C    0.242683
    61  N   -0.278471
    62  H    0.030505
    63  C    0.155636
    64  N   -0.308206
    65  H    0.021791
    66  C    0.115249
    67  N   -0.243591
    68  C    0.011184
    69  C    0.182368
    70  N   -0.304132
 Sum of Mulliken charges =  -0.00000

 Dipole moment (field-independent basis, Debye):
    X=              4.2273    Y=              5.0971    Z=              5.0186  Tot=              8.3089
 Quadrupole moment (field-independent basis, Debye-Ang):
   XX=           -140.7515   YY=           -229.3207   ZZ=           -250.2132
   XY=              7.0584   XZ=             29.1314   YZ=              7.1210

 Normal termination of Gaussian 16 at Thu Jan 25 18:42:21 2018.
