 Gaussian 16, Revision A.03,
 Gaussian 16:  EM64L-G16RevA.03 25-Dec-2016

 ---------------------------------------
 #p wb97xd/cc-pvdz sp scf=(maxcycles=20)
 ---------------------------------------

 ------------------
 Base pair stacking
 ------------------
 Symbolic Z-matrix:
 Charge =  0 Multiplicity = 1

                         Standard orientation:
 ---------------------------------------------------------------------
 Center     Atomic      Atomic             Coordinates (Angstroms)
 Number     Number       Type             X           Y           Z
 ---------------------------------------------------------------------
      1          7           0       -5.675712    0.926446   -0.993866
      2          6           0       -6.923314    0.214377   -1.332170
      3          6           0       -3.558194    1.482529   -0.783682
      4          7           0       -4.287642    2.498102   -0.182657
      5          6           0       -5.534179    2.122433   -0.333338
      6          1           0       -6.398393    2.684866    0.021255
      7          7           0       -1.780402    0.166198   -1.602022
      8          6           0       -2.713138   -0.688403   -2.034726
      9          1           0       -2.333078   -1.572029   -2.545633
     10          7           0       -4.038651   -0.615716   -1.931552
     11          6           0       -4.400103    0.506768   -1.288264
     12          6           0       -2.176233    1.286157   -0.958528
     13          7           0       -1.246643    2.140457   -0.525850
     14          1           0       -1.494031    2.982131   -0.044614
     15          1           0       -0.271788    1.968372   -0.667912
     16          1           0       -7.491005    0.793445   -1.917500
     17          1           0       -6.703973   -0.632813   -1.815165
     18          1           0       -7.423959   -0.001832   -0.493960
     19          7           0       -4.564484   -0.965240    1.160273
     20          6           0       -3.248395   -1.258244    0.895483
     21          6           0       -5.728469   -1.638913    0.550357
     22          7           0       -0.866556   -3.132727   -0.800066
     23          1           0        0.130304   -3.187834   -0.849664
     24          1           0       -1.385146   -3.766957   -1.374116
     25          7           0       -2.801044   -2.203207    0.040519
     26          6           0       -1.481220   -2.248397   -0.000021
     27          7           0       -0.660476   -1.431568    0.739353
     28          1           0        0.338011   -1.536534    0.644631
     29          6           0       -1.098873   -0.452382    1.625280
     30          8           0       -0.274477    0.231563    2.244409
     31          6           0       -2.514605   -0.391926    1.679602
     32          7           0       -3.353139    0.428450    2.421729
     33          6           0       -4.556427    0.053219    2.081867
     34          1           0       -5.476452    0.487490    2.474589
     35          1           0       -6.281475   -0.969588    0.055387
     36          1           0       -5.409422   -2.341014   -0.084888
     37          1           0       -6.281806   -2.064606    1.265501
     38          1           0        5.190720   -2.119771   -0.756705
     39          1           0        5.281340   -3.089371    0.711731
     40          1           0        3.777697   -3.021774   -0.207961
     41          1           0        5.450259    1.344395    2.571776
     42          6           0        4.718161    0.650377    2.158705
     43          8           0        2.846940    1.811281    3.040715
     44          6           0        3.325477    0.878823    2.395493
     45          1           0        1.493419    0.069786    1.974347
     46          7           0        2.484989   -0.058004    1.828771
     47          8           0        2.028448   -1.927268    0.622682
     48          6           0        2.847690   -1.152167    1.083921
     49          1           0        6.149375   -0.626347    1.227357
     50          6           0        5.102873   -0.408101    1.436050
     51          6           0        4.643243   -2.459643    0.109795
     52          7           0        4.207844   -1.304398    0.899461
     53          1           0        5.759964   -1.656555   -3.184016
     54          1           0        4.513491   -2.258289   -2.320136
     55          1           0        5.992486   -2.134373   -1.640953
     56          1           0        1.954400    3.879109   -0.031308
     57          1           0        3.642917    3.936430   -0.267422
     58          7           0        2.793734    3.408410   -0.303539
     59          6           0        2.782212    2.133292   -0.697394
     60          6           0        3.762610    0.108664   -1.472919
     61          7           0        2.607417   -0.575776   -1.511548
     62          1           0        0.616590   -0.283888   -1.121643
     63          6           0        1.594766    0.195098   -1.120134
     64          7           0        1.604262    1.472431   -0.725285
     65          1           0        6.938301    0.624827   -1.790306
     66          6           0        5.867464    0.709554   -1.603009
     67          7           0        5.269134    1.794753   -1.176371
     68          6           0        3.934115    1.427439   -1.089578
     69          6           0        5.346860   -1.708242   -2.274803
     70          7           0        5.015944   -0.349434   -1.803500
 ---------------------------------------------------------------------

 SCF Done:  E(RwB97XD) =  -2048.65563263     A.U. after   15 cycles

 The electronic state is 1-A.
 Alpha  occ. eigenvalues --  -19.24522 -19.21267 -19.20413 -14.52730 -14.51476
 Alpha  occ. eigenvalues --  -14.49742 -14.48689 -14.47593 -14.47088 -14.46592
 Alpha  occ. eigenvalues --  -14.46519 -14.45336 -14.44126 -14.44042 -14.43256
 Alpha  occ. eigenvalues --  -14.42276 -14.41585 -14.41305 -14.40956 -14.40779
 Alpha  occ. eigenvalues --  -10.44375 -10.40834 -10.39606 -10.39361 -10.38057
 Alpha  occ. eigenvalues --  -10.38044 -10.37227 -10.36949 -10.36408 -10.35721
 Alpha  occ. eigenvalues --  -10.34911 -10.34887 -10.34212 -10.34097 -10.33996
 Alpha  occ. eigenvalues --  -10.33345 -10.32906 -10.32522 -10.32337 -10.30270
 Alpha  occ. eigenvalues --  -10.30198 -10.29234 -10.28028  -1.18530  -1.15487
 Alpha  occ. eigenvalues --   -1.13118  -1.12346  -1.12248  -1.10439  -1.09114
 Alpha  occ. eigenvalues --   -1.08485  -1.08351  -1.05945  -1.04588  -1.01954
 Alpha  occ. eigenvalues --   -1.01385  -1.01341  -0.99585  -0.98325  -0.98198
 Alpha  occ. eigenvalues --   -0.96766  -0.96409  -0.93606  -0.90531  -0.89038
 Alpha  occ. eigenvalues --   -0.87010  -0.85536  -0.83874  -0.83798  -0.82492
 Alpha  occ. eigenvalues --   -0.82054  -0.78103  -0.77032  -0.74860  -0.74454
 Alpha  occ. eigenvalues --   -0.73928  -0.73424  -0.72732  -0.71982  -0.70589
 Alpha  occ. eigenvalues --   -0.67497  -0.67292  -0.67100  -0.66358  -0.64885
 Alpha  occ. eigenvalues --   -0.64397  -0.64178  -0.63677  -0.62878  -0.62416
 Alpha  occ. eigenvalues --   -0.61619  -0.61409  -0.60748  -0.60505  -0.59595
 Alpha  occ. eigenvalues --   -0.59106  -0.58488  -0.58215  -0.57604  -0.56659
 Alpha  occ. eigenvalues --   -0.56287  -0.55763  -0.55184  -0.54659  -0.54196
 Alpha  occ. eigenvalues --   -0.53845  -0.53513  -0.53172  -0.53072  -0.52631
 Alpha  occ. eigenvalues --   -0.52407  -0.51791  -0.51670  -0.51109  -0.50178
 Alpha  occ. eigenvalues --   -0.49787  -0.49740  -0.49523  -0.49077  -0.48705
 Alpha  occ. eigenvalues --   -0.48420  -0.47970  -0.47942  -0.47810  -0.47111
 Alpha  occ. eigenvalues --   -0.46723  -0.45899  -0.45404  -0.43418  -0.41912
 Alpha  occ. eigenvalues --   -0.41699  -0.40694  -0.38568  -0.37950  -0.37910
 Alpha  occ. eigenvalues --   -0.37434  -0.36949  -0.36262  -0.35878  -0.34887
 Alpha  occ. eigenvalues --   -0.34765  -0.34595  -0.33765  -0.33512  -0.32694
 Alpha  occ. eigenvalues --   -0.32288  -0.32114  -0.31757  -0.31701  -0.31053
 Alpha  occ. eigenvalues --   -0.30774  -0.29381  -0.27388  -0.24388
 Alpha virt. eigenvalues --    0.03649   0.04139   0.06915   0.07311   0.08766
 Alpha virt. eigenvalues --    0.09207   0.09800   0.10197   0.10610   0.12177
 Alpha virt. eigenvalues --    0.12881   0.13657   0.14212   0.14715   0.14941

 Mulliken charges:
               1
     1  N   -0.313776
     2  C    0.238643
     3  C    0.067281
     4  N   -0.240197
     5  C    0.116026
     6  H    0.026003
     7  N   -0.277285
     8  C    0.146279
     9  H   -0.001382
    10  N   -0.261364
    11  C    0.201377
    12  C    0.067291
    13  N   -0.041823
    14  H    0.110784
    15  H    0.087921
    16  H    0.015934
    17  H    0.029619
    18  H    0.023054
    19  N   -0.285719
    20  C    0.210454
    21  C    0.239194
    22  N   -0.104631
    23  H    0.117274
    24  H    0.118884
    25  N   -0.274476
    26  C    0.199719
    27  N   -0.121722
    28  H    0.114798
    29  C    0.169116
    30  O   -0.322512
    31  C    0.009185
    32  N   -0.216631
    33  C    0.124618
    34  H    0.018030
    35  H   -0.090019
    36  H    0.041922
    37  H    0.023323
    38  H   -0.010932
    39  H    0.047197
    40  H    0.078970
    41  H    0.024061
    42  C   -0.083795
    43  O   -0.270250
    44  C    0.164555
    45  H    0.130618
    46  N   -0.111268
    47  O   -0.335558
    48  C    0.320940
    49  H    0.035977
    50  C    0.155574
    51  C    0.040699
    52  N   -0.261592
    53  H    0.014075
    54  H    0.029424
    55  H    0.012159
    56  H    0.122141
    57  H    0.121087
    58  N   -0.057945
    59  C    0.116143
    60  C    0.202165
    61  N   -0.255323
    62  H    0.018791
    63  C    0.160946
    64  N   -0.296003
    65  H    0.036443
    66  C    0.119860
    67  N   -0.245491
    68  C    0.044565
    69  C    0.292703
    70  N   -0.326127
 Sum of Mulliken charges =  -0.00000

 Dipole moment (field-independent basis, Debye):
    X=              4.1356    Y=             -5.1716    Z=             -6.4377  Tot=              9.2354
 Quadrupole moment (field-independent basis, Debye-Ang):
   XX=           -145.6149   YY=           -224.4681   ZZ=           -266.3816
   XY=            -13.1883   XZ=            -10.5924   YZ=             -0.7483

 Normal termination of Gaussian 16 at Thu Jan 25 09:54:13 2018.
