 Gaussian 16, Revision A.03,
 Gaussian 16:  EM64L-G16RevA.03 25-Dec-2016

 ---------------------------------------
 #p wb97xd/cc-pvdz sp scf=(maxcycles=20)
 ---------------------------------------

 ------------------
 Base pair stacking
 ------------------
 Symbolic Z-matrix:
 Charge =  0 Multiplicity = 1

                         Standard orientation:
 ---------------------------------------------------------------------
 Center     Atomic      Atomic             Coordinates (Angstroms)
 Number     Number       Type             X           Y           Z
 ---------------------------------------------------------------------
      1          7           0       -5.983530   -1.362664    0.519174
      2          6           0       -7.234654   -1.015476    1.220708
      3          6           0       -3.863466   -1.667088    0.019203
      4          7           0       -4.587422   -2.089200   -1.086441
      5          6           0       -5.835710   -1.888900   -0.740966
      6          1           0       -6.696802   -2.109262   -1.372546
      7          7           0       -2.092942   -1.144213    1.487121
      8          6           0       -3.030017   -0.743967    2.352738
      9          1           0       -2.654677   -0.369297    3.304050
     10          7           0       -4.354893   -0.737106    2.220269
     11          6           0       -4.710359   -1.216602    1.016870
     12          6           0       -2.482798   -1.621605    0.284960
     13          7           0       -1.548882   -2.021618   -0.580459
     14          1           0       -1.791782   -2.381853   -1.481811
     15          1           0       -0.575106   -1.974884   -0.357459
     16          1           0       -7.802607   -1.833058    1.316494
     17          1           0       -7.019808   -0.652020    2.126729
     18          1           0       -7.732910   -0.325197    0.696069
     19          7           0       -4.237189    1.771559   -0.781781
     20          6           0       -2.917860    1.925853   -0.430180
     21          6           0       -5.387415    2.342107   -0.052304
     22          7           0       -0.506216    3.223883    1.705443
     23          1           0        0.490127    3.214304    1.785691
     24          1           0       -1.012736    3.731290    2.403081
     25          7           0       -2.454341    2.619015    0.632237
     26          6           0       -1.135700    2.585296    0.707509
     27          7           0       -0.330739    1.923925   -0.188108
     28          1           0        0.668116    1.952060   -0.052222
     29          6           0       -0.785925    1.204360   -1.288519
     30          8           0        0.025058    0.643526   -2.035852
     31          6           0       -2.200597    1.231465   -1.382619
     32          7           0       -3.052474    0.652874   -2.313438
     33          6           0       -4.247280    0.999239   -1.917592
     34          1           0       -5.173648    0.717472   -2.419299
     35          1           0       -5.985315    1.604622    0.259851
     36          1           0       -5.056346    2.857811    0.736822
     37          1           0       -5.898530    2.951915   -0.657043
     38          1           0        5.497026    1.938527    1.539661
     39          1           0        5.676851    3.220120    0.343905
     40          1           0        4.144137    3.015873    1.192697
     41          1           0        5.700431   -0.654863   -2.507500
     42          6           0        4.988409   -0.040594   -1.956205
     43          8           0        3.094162   -0.863562   -3.123110
     44          6           0        3.594688   -0.134843   -2.266813
     45          1           0        1.789359    0.645899   -1.701507
     46          7           0        2.780776    0.684596   -1.510943
     47          8           0        2.373136    2.238975    0.093717
     48          6           0        3.169954    1.552819   -0.521866
     49          1           0        6.447071    0.905903   -0.722407
     50          6           0        5.398614    0.797084   -0.996708
     51          6           0        4.992501    2.500313    0.767706
     52          7           0        4.529327    1.587079   -0.280730
     53          1           0        5.435659   -0.697904    3.896119
     54          1           0        4.190418    0.310143    3.587383
     55          1           0        5.672286    0.635618    2.985545
     56          1           0        1.659555   -3.075370   -2.032981
     57          1           0        3.347366   -3.266619   -1.875414
     58          7           0        2.496354   -2.875672   -1.523046
     59          6           0        2.479276   -2.121655   -0.421983
     60          6           0        3.450288   -1.017523    1.448782
     61          7           0        2.292764   -0.505686    1.898855
     62          1           0        0.304336   -0.492443    1.402291
     63          6           0        1.284051   -0.866474    1.108145
     64          7           0        1.299110   -1.621607    0.004916
     65          1           0        6.626447   -1.618359    1.392040
     66          6           0        5.556587   -1.568557    1.187442
     67          7           0        4.963323   -2.153585    0.175773
     68          6           0        3.627453   -1.812232    0.329602
     69          6           0        5.025725   -0.092347    3.214032
     70          7           0        4.700924   -0.863863    1.998598
 ---------------------------------------------------------------------

 SCF Done:  E(RwB97XD) =  -2048.74570886     A.U. after   15 cycles

 The electronic state is 1-A.
 Alpha  occ. eigenvalues --  -19.25390 -19.21825 -19.20664 -14.52166 -14.51730
 Alpha  occ. eigenvalues --  -14.49656 -14.48778 -14.47437 -14.46891 -14.46610
 Alpha  occ. eigenvalues --  -14.46149 -14.44411 -14.43375 -14.43112 -14.42656
 Alpha  occ. eigenvalues --  -14.42159 -14.41942 -14.41536 -14.40823 -14.40748
 Alpha  occ. eigenvalues --  -10.45094 -10.41166 -10.39735 -10.38514 -10.38249
 Alpha  occ. eigenvalues --  -10.37112 -10.37039 -10.36331 -10.36051 -10.35411
 Alpha  occ. eigenvalues --  -10.34935 -10.34841 -10.34301 -10.34148 -10.33709
 Alpha  occ. eigenvalues --  -10.33698 -10.33268 -10.31930 -10.31611 -10.30948
 Alpha  occ. eigenvalues --  -10.30486 -10.29245 -10.28076  -1.19045  -1.14364
 Alpha  occ. eigenvalues --   -1.13184  -1.12887  -1.12187  -1.10567  -1.09027
 Alpha  occ. eigenvalues --   -1.08538  -1.07982  -1.05647  -1.03478  -1.02233
 Alpha  occ. eigenvalues --   -1.01031  -1.00025  -0.99692  -0.98479  -0.97737
 Alpha  occ. eigenvalues --   -0.96546  -0.95654  -0.93263  -0.90561  -0.86826
 Alpha  occ. eigenvalues --   -0.85332  -0.84746  -0.84066  -0.83579  -0.83129
 Alpha  occ. eigenvalues --   -0.82497  -0.78496  -0.75975  -0.74578  -0.73810
 Alpha  occ. eigenvalues --   -0.73603  -0.73551  -0.73038  -0.71724  -0.69338
 Alpha  occ. eigenvalues --   -0.67317  -0.66987  -0.66214  -0.65658  -0.64304
 Alpha  occ. eigenvalues --   -0.63662  -0.63421  -0.63057  -0.62550  -0.61680
 Alpha  occ. eigenvalues --   -0.61120  -0.60865  -0.59517  -0.59165  -0.58518
 Alpha  occ. eigenvalues --   -0.58315  -0.57949  -0.57921  -0.57172  -0.56202
 Alpha  occ. eigenvalues --   -0.55924  -0.55687  -0.55339  -0.54582  -0.54165
 Alpha  occ. eigenvalues --   -0.53631  -0.53545  -0.52899  -0.52873  -0.52524
 Alpha  occ. eigenvalues --   -0.52344  -0.51924  -0.51558  -0.51474  -0.50908
 Alpha  occ. eigenvalues --   -0.50179  -0.49812  -0.49481  -0.49171  -0.49021
 Alpha  occ. eigenvalues --   -0.48722  -0.48315  -0.47968  -0.47670  -0.47530
 Alpha  occ. eigenvalues --   -0.47340  -0.46013  -0.45407  -0.43035  -0.42849
 Alpha  occ. eigenvalues --   -0.41747  -0.39792  -0.39106  -0.37806  -0.37401
 Alpha  occ. eigenvalues --   -0.37171  -0.37082  -0.36579  -0.35826  -0.34408
 Alpha  occ. eigenvalues --   -0.34246  -0.33874  -0.33786  -0.33308  -0.33116
 Alpha  occ. eigenvalues --   -0.32654  -0.32376  -0.31869  -0.31638  -0.31014
 Alpha  occ. eigenvalues --   -0.30720  -0.28436  -0.26528  -0.25289
 Alpha virt. eigenvalues --    0.03156   0.04998   0.07216   0.07500   0.09030
 Alpha virt. eigenvalues --    0.09655   0.09853   0.10356   0.11084   0.12020
 Alpha virt. eigenvalues --    0.13239   0.13877   0.13935   0.14754   0.14831

 Mulliken charges:
               1
     1  N   -0.307942
     2  C    0.177815
     3  C    0.042013
     4  N   -0.239206
     5  C    0.114895
     6  H    0.026296
     7  N   -0.288404
     8  C    0.141187
     9  H    0.013286
    10  N   -0.287841
    11  C    0.234889
    12  C    0.086847
    13  N   -0.038986
    14  H    0.113274
    15  H    0.093284
    16  H    0.029907
    17  H    0.036069
    18  H    0.023527
    19  N   -0.301328
    20  C    0.252683
    21  C    0.189545
    22  N   -0.122775
    23  H    0.117161
    24  H    0.118589
    25  N   -0.307496
    26  C    0.243175
    27  N   -0.145947
    28  H    0.120301
    29  C    0.183311
    30  O   -0.326605
    31  C   -0.023093
    32  N   -0.221315
    33  C    0.133940
    34  H    0.020913
    35  H    0.008448
    36  H    0.032783
    37  H    0.023642
    38  H    0.034430
    39  H    0.062093
    40  H    0.078513
    41  H    0.022742
    42  C   -0.057556
    43  O   -0.274705
    44  C    0.148752
    45  H    0.135235
    46  N   -0.119201
    47  O   -0.346373
    48  C    0.341448
    49  H    0.038613
    50  C    0.156664
    51  C    0.046464
    52  N   -0.279732
    53  H    0.033771
    54  H    0.041038
    55  H    0.018159
    56  H    0.120111
    57  H    0.115940
    58  N   -0.020534
    59  C    0.092189
    60  C    0.232224
    61  N   -0.268112
    62  H    0.028157
    63  C    0.154997
    64  N   -0.299692
    65  H    0.029978
    66  C    0.116138
    67  N   -0.242533
    68  C    0.015235
    69  C    0.180868
    70  N   -0.302164
 Sum of Mulliken charges =  -0.00000

 Dipole moment (field-independent basis, Debye):
    X=              4.0824    Y=              3.8684    Z=              6.2356  Tot=              8.3972
 Quadrupole moment (field-independent basis, Debye-Ang):
   XX=           -145.4278   YY=           -229.9428   ZZ=           -253.9744
   XY=              6.7354   XZ=             17.5063   YZ=             12.9241

 Normal termination of Gaussian 16 at Thu Jan 25 06:11:19 2018.
