 Gaussian 16, Revision A.03,
 Gaussian 16:  EM64L-G16RevA.03 25-Dec-2016

 ---------------------------------------
 #p wb97xd/cc-pvdz sp scf=(maxcycles=20)
 ---------------------------------------

 ------------------
 Base pair stacking
 ------------------
 Symbolic Z-matrix:
 Charge =  0 Multiplicity = 1

                         Standard orientation:
 ---------------------------------------------------------------------
 Center     Atomic      Atomic             Coordinates (Angstroms)
 Number     Number       Type             X           Y           Z
 ---------------------------------------------------------------------
      1          7           0        5.384773   -1.771375   -0.516243
      2          6           0        6.632104   -1.601441   -1.286504
      3          6           0        3.266784   -1.871261    0.068108
      4          7           0        3.998098   -2.185617    1.204361
      5          6           0        5.244841   -2.112853    0.806841
      6          1           0        6.110365   -2.300151    1.443017
      7          7           0        1.486076   -1.439920   -1.417150
      8          6           0        2.418151   -1.219780   -2.350070
      9          1           0        2.036617   -0.953578   -3.334870
     10          7           0        3.744552   -1.278821   -2.249617
     11          6           0        4.107806   -1.613508   -1.000433
     12          6           0        1.883730   -1.774865   -0.170252
     13          7           0        0.954796   -1.995008    0.762376
     14          1           0        1.203526   -2.245286    1.698715
     15          1           0       -0.020878   -1.917311    0.557068
     16          1           0        7.147168   -2.458685   -1.282780
     17          1           0        6.411423   -1.350382   -2.228515
     18          1           0        7.186494   -0.879687   -0.872115
     19          7           0        4.858240    1.565056    0.492099
     20          6           0        3.540215    1.753622    0.152524
     21          6           0        6.017331    1.958465   -0.333990
     22          7           0        1.145364    2.902127   -2.085192
     23          1           0        0.148216    2.944777   -2.140946
     24          1           0        1.659421    3.278036   -2.856659
     25          7           0        3.086216    2.325389   -0.983708
     26          6           0        1.766213    2.365180   -1.024000
     27          7           0        0.951331    1.882511   -0.028758
     28          1           0       -0.047795    1.955113   -0.144710
     29          6           0        1.396616    1.290275    1.148888
     30          8           0        0.577134    0.887439    1.983708
     31          6           0        2.812621    1.240398    1.206570
     32          7           0        3.656863    0.739707    2.188128
     33          6           0        4.857383    0.953511    1.722000
     34          1           0        5.780376    0.683899    2.236448
     35          1           0        6.560367    1.149421   -0.556147
     36          1           0        5.693354    2.383157   -1.178342
     37          1           0        6.582242    2.610595    0.170405
     38          1           0       -4.915756    2.032436   -1.610870
     39          1           0       -4.982019    3.472054   -0.597084
     40          1           0       -3.491091    3.059075   -1.444411
     41          1           0       -5.148195    0.025301    2.755367
     42          6           0       -4.418224    0.513607    2.109655
     43          8           0       -2.541217   -0.262805    3.334869
     44          6           0       -3.023655    0.374190    2.398780
     45          1           0       -1.193372    0.956206    1.691926
     46          7           0       -2.186134    1.031419    1.520221
     47          8           0       -1.736408    2.326866   -0.289960
     48          6           0       -2.553278    1.781482    0.431116
     49          1           0       -5.855338    1.375670    0.791565
     50          6           0       -4.807253    1.238767    1.054474
     51          6           0       -4.355119    2.660002   -0.934179
     52          7           0       -3.914993    1.868749    0.218190
     53          1           0       -6.073343   -0.847356   -3.694507
     54          1           0       -4.761388    0.112409   -3.554048
     55          1           0       -6.201987    0.608826   -2.968955
     56          1           0       -2.264319   -2.638999    2.416702
     57          1           0       -3.964576   -2.742749    2.324679
     58          7           0       -3.103082   -2.457293    1.903282
     59          6           0       -3.075135   -1.860895    0.709673
     60          6           0       -4.035963   -0.959462   -1.271734
     61          7           0       -2.864466   -0.586959   -1.813250
     62          1           0       -0.864404   -0.632608   -1.367971
     63          6           0       -1.855101   -0.901032   -1.003662
     64          7           0       -1.881033   -1.498375    0.192207
     65          1           0       -7.238984   -1.345432   -1.062241
     66          6           0       -6.162256   -1.336213   -0.890447
     67          7           0       -5.573935   -1.816054    0.177874
     68          6           0       -4.225500   -1.583552   -0.051024
     69          6           0       -5.607252   -0.182618   -3.110650
     70          7           0       -5.291602   -0.802517   -1.809073
 ---------------------------------------------------------------------

 SCF Done:  E(RwB97XD) =  -2048.73919336     A.U. after   15 cycles

 The electronic state is 1-A.
 Alpha  occ. eigenvalues --  -19.25466 -19.21641 -19.20656 -14.52127 -14.52099
 Alpha  occ. eigenvalues --  -14.49269 -14.49036 -14.47437 -14.46900 -14.46668
 Alpha  occ. eigenvalues --  -14.46620 -14.44788 -14.43767 -14.43493 -14.42588
 Alpha  occ. eigenvalues --  -14.42031 -14.41653 -14.41342 -14.40907 -14.40754
 Alpha  occ. eigenvalues --  -10.45071 -10.41234 -10.39767 -10.38906 -10.38304
 Alpha  occ. eigenvalues --  -10.37486 -10.37186 -10.36593 -10.35888 -10.35214
 Alpha  occ. eigenvalues --  -10.35146 -10.34460 -10.34397 -10.33891 -10.33823
 Alpha  occ. eigenvalues --  -10.33558 -10.33478 -10.31925 -10.31785 -10.31382
 Alpha  occ. eigenvalues --  -10.30463 -10.28951 -10.28185  -1.19065  -1.14720
 Alpha  occ. eigenvalues --   -1.13257  -1.12839  -1.11809  -1.10731  -1.08988
 Alpha  occ. eigenvalues --   -1.08593  -1.08435  -1.05502  -1.03920  -1.02195
 Alpha  occ. eigenvalues --   -1.00844  -1.00381  -0.99752  -0.98580  -0.97429
 Alpha  occ. eigenvalues --   -0.96734  -0.96071  -0.93140  -0.90603  -0.87114
 Alpha  occ. eigenvalues --   -0.85575  -0.84576  -0.84194  -0.83436  -0.83032
 Alpha  occ. eigenvalues --   -0.82647  -0.78517  -0.76330  -0.74752  -0.74194
 Alpha  occ. eigenvalues --   -0.73650  -0.73366  -0.72986  -0.71497  -0.69674
 Alpha  occ. eigenvalues --   -0.67452  -0.66763  -0.66189  -0.66046  -0.64453
 Alpha  occ. eigenvalues --   -0.63711  -0.63486  -0.63111  -0.62651  -0.61808
 Alpha  occ. eigenvalues --   -0.60921  -0.60703  -0.59815  -0.59185  -0.58848
 Alpha  occ. eigenvalues --   -0.58474  -0.58400  -0.58268  -0.57006  -0.55944
 Alpha  occ. eigenvalues --   -0.55815  -0.55758  -0.55044  -0.54870  -0.54217
 Alpha  occ. eigenvalues --   -0.53933  -0.53674  -0.53178  -0.53068  -0.52406
 Alpha  occ. eigenvalues --   -0.52298  -0.52240  -0.52059  -0.51233  -0.50743
 Alpha  occ. eigenvalues --   -0.50304  -0.49798  -0.49611  -0.49189  -0.49132
 Alpha  occ. eigenvalues --   -0.48888  -0.48394  -0.47901  -0.47476  -0.47413
 Alpha  occ. eigenvalues --   -0.47356  -0.46255  -0.44974  -0.43430  -0.43323
 Alpha  occ. eigenvalues --   -0.41453  -0.40144  -0.39139  -0.37720  -0.37600
 Alpha  occ. eigenvalues --   -0.37287  -0.37108  -0.36856  -0.35800  -0.34645
 Alpha  occ. eigenvalues --   -0.34083  -0.33851  -0.33602  -0.33394  -0.33045
 Alpha  occ. eigenvalues --   -0.32701  -0.32363  -0.31908  -0.31554  -0.31190
 Alpha  occ. eigenvalues --   -0.30778  -0.28691  -0.26922  -0.24751
 Alpha virt. eigenvalues --    0.02689   0.04779   0.06970   0.07683   0.08911
 Alpha virt. eigenvalues --    0.09351   0.09795   0.10793   0.11041   0.11683
 Alpha virt. eigenvalues --    0.12773   0.14005   0.14286   0.14516   0.15209

 Mulliken charges:
               1
     1  N   -0.304555
     2  C    0.180707
     3  C    0.042563
     4  N   -0.232195
     5  C    0.117706
     6  H    0.023872
     7  N   -0.291051
     8  C    0.135579
     9  H    0.010965
    10  N   -0.284535
    11  C    0.240468
    12  C    0.083069
    13  N   -0.040240
    14  H    0.115081
    15  H    0.087501
    16  H    0.027463
    17  H    0.035071
    18  H    0.020394
    19  N   -0.302421
    20  C    0.253249
    21  C    0.191527
    22  N   -0.124654
    23  H    0.117644
    24  H    0.119130
    25  N   -0.307357
    26  C    0.246573
    27  N   -0.142406
    28  H    0.119580
    29  C    0.184724
    30  O   -0.327306
    31  C   -0.018152
    32  N   -0.211143
    33  C    0.122101
    34  H    0.019078
    35  H   -0.002648
    36  H    0.035136
    37  H    0.027010
    38  H    0.034413
    39  H    0.058835
    40  H    0.078547
    41  H    0.022220
    42  C   -0.081987
    43  O   -0.279005
    44  C    0.156122
    45  H    0.128976
    46  N   -0.103658
    47  O   -0.349608
    48  C    0.337614
    49  H    0.041407
    50  C    0.167853
    51  C    0.050059
    52  N   -0.273644
    53  H    0.035642
    54  H    0.041127
    55  H    0.029546
    56  H    0.124410
    57  H    0.114485
    58  N   -0.018583
    59  C    0.050659
    60  C    0.225895
    61  N   -0.267937
    62  H    0.026613
    63  C    0.154783
    64  N   -0.289591
    65  H    0.034736
    66  C    0.118428
    67  N   -0.247861
    68  C    0.043898
    69  C    0.176253
    70  N   -0.308176
 Sum of Mulliken charges =  -0.00000

 Dipole moment (field-independent basis, Debye):
    X=             -4.2419    Y=              3.4327    Z=             -6.7675  Tot=              8.6935
 Quadrupole moment (field-independent basis, Debye-Ang):
   XX=           -145.7694   YY=           -233.1727   ZZ=           -252.2544
   XY=             -8.0113   XZ=             11.2644   YZ=            -16.0580

 Normal termination of Gaussian 16 at Thu Jan 25 06:23:27 2018.
