 Gaussian 16, Revision A.03,
 Gaussian 16:  EM64L-G16RevA.03 25-Dec-2016

 ---------------------------------------
 #p wb97xd/cc-pvdz sp scf=(maxcycles=20)
 ---------------------------------------

 ------------------
 Base pair stacking
 ------------------
 Symbolic Z-matrix:
 Charge =  0 Multiplicity = 1

                         Standard orientation:
 ---------------------------------------------------------------------
 Center     Atomic      Atomic             Coordinates (Angstroms)
 Number     Number       Type             X           Y           Z
 ---------------------------------------------------------------------
      1          7           0       -5.954606    0.844431   -0.837152
      2          6           0       -7.196742    0.111105   -1.149133
      3          6           0       -3.843033    1.437417   -0.673110
      4          7           0       -4.576596    2.438743   -0.053458
      5          6           0       -5.819377    2.041415   -0.177088
      6          1           0       -6.685204    2.587769    0.198125
      7          7           0       -2.061129    0.154355   -1.534220
      8          6           0       -2.988134   -0.715735   -1.947965
      9          1           0       -2.604120   -1.591470   -2.469371
     10          7           0       -4.312073   -0.666684   -1.814948
     11          6           0       -4.678716    0.447942   -1.161045
     12          6           0       -2.462097    1.265847   -0.879334
     13          7           0       -1.538233    2.135573   -0.465539
     14          1           0       -1.789555    2.971786    0.023141
     15          1           0       -0.563929    1.981033   -0.629804
     16          1           0       -7.787539    0.681212   -1.720206
     17          1           0       -6.973398   -0.731117   -1.638943
     18          1           0       -7.674558   -0.115602   -0.300435
     19          7           0       -4.270627   -1.064933    1.232058
     20          6           0       -2.955851   -1.334111    0.937162
     21          6           0       -5.435950   -1.757862    0.646750
     22          7           0       -0.579991   -3.162808   -0.815802
     23          1           0        0.416331   -3.200190   -0.887846
     24          1           0       -1.100073   -3.804954   -1.379610
     25          7           0       -2.511203   -2.269302    0.070125
     26          6           0       -1.192028   -2.291094   -0.000076
     27          7           0       -0.369425   -1.461355    0.722687
     28          1           0        0.628371   -1.548480    0.605381
     29          6           0       -0.805031   -0.491858    1.620553
     30          8           0        0.020878    0.205317    2.222693
     31          6           0       -2.220023   -0.456532    1.706723
     32          7           0       -3.056022    0.347405    2.469401
     33          6           0       -4.259843   -0.048337    2.155678
     34          1           0       -5.178336    0.368823    2.569947
     35          1           0       -6.011622   -1.097411    0.165898
     36          1           0       -5.118913   -2.452937    0.002846
     37          1           0       -5.965506   -2.194682    1.373088
     38          1           0        5.457952   -2.043065   -0.905699
     39          1           0        5.598567   -3.013855    0.558018
     40          1           0        4.073701   -2.970992   -0.327608
     41          1           0        5.731008    1.418474    2.424432
     42          6           0        5.002180    0.712468    2.026201
     43          8           0        3.131042    1.838343    2.952678
     44          6           0        3.611339    0.915788    2.294662
     45          1           0        1.784846    0.075352    1.912724
     46          7           0        2.774988   -0.034618    1.744669
     47          8           0        2.324523   -1.909227    0.544634
     48          6           0        3.140111   -1.120701    0.989257
     49          1           0        6.434405   -0.536913    1.059973
     50          6           0        5.389165   -0.337598    1.292577
     51          6           0        4.936118   -2.394291   -0.027971
     52          7           0        4.498255   -1.248505    0.774029
     53          1           0        5.472805   -1.531704   -3.289059
     54          1           0        4.256814   -2.157098   -2.398922
     55          1           0        5.748262   -2.008418   -1.752731
     56          1           0        1.641974    3.929542   -0.038649
     57          1           0        3.323486    4.017156   -0.312378
     58          7           0        2.483144    3.474280   -0.330740
     59          6           0        2.485260    2.199954   -0.727284
     60          6           0        3.483537    0.194523   -1.529422
     61          7           0        2.340008   -0.510144   -1.543823
     62          1           0        0.353597   -0.254271   -1.108721
     63          6           0        1.322967    0.241922   -1.127974
     64          7           0        1.318809    1.518439   -0.730383
     65          1           0        6.641719    0.767352   -1.916627
     66          6           0        5.574027    0.832768   -1.705190
     67          7           0        4.966399    1.906369   -1.262659
     68          6           0        3.640334    1.515355   -1.146873
     69          6           0        5.081169   -1.592502   -2.370948
     70          7           0        4.737026   -0.240693   -1.889089
 ---------------------------------------------------------------------

 SCF Done:  E(RwB97XD) =  -2048.62186916     A.U. after   15 cycles

 The electronic state is 1-A.
 Alpha  occ. eigenvalues --  -19.24607 -19.21325 -19.20600 -14.52598 -14.51626
 Alpha  occ. eigenvalues --  -14.49965 -14.48567 -14.47405 -14.47119 -14.46732
 Alpha  occ. eigenvalues --  -14.46700 -14.45222 -14.43978 -14.43958 -14.43190
 Alpha  occ. eigenvalues --  -14.42451 -14.41675 -14.41512 -14.40847 -14.40718
 Alpha  occ. eigenvalues --  -10.44418 -10.41031 -10.39429 -10.39415 -10.38176
 Alpha  occ. eigenvalues --  -10.37931 -10.37074 -10.37069 -10.36419 -10.35402
 Alpha  occ. eigenvalues --  -10.35062 -10.34463 -10.34356 -10.34070 -10.34027
 Alpha  occ. eigenvalues --  -10.33197 -10.32664 -10.32471 -10.32410 -10.30334
 Alpha  occ. eigenvalues --  -10.30069 -10.29363 -10.28028  -1.18633  -1.15339
 Alpha  occ. eigenvalues --   -1.13194  -1.12545  -1.12305  -1.10441  -1.09042
 Alpha  occ. eigenvalues --   -1.08548  -1.08413  -1.05965  -1.04420  -1.02104
 Alpha  occ. eigenvalues --   -1.01458  -1.01258  -0.99686  -0.98409  -0.98218
 Alpha  occ. eigenvalues --   -0.96645  -0.96397  -0.93590  -0.91371  -0.89508
 Alpha  occ. eigenvalues --   -0.86938  -0.85221  -0.83924  -0.83639  -0.82505
 Alpha  occ. eigenvalues --   -0.82121  -0.78227  -0.76877  -0.74792  -0.74407
 Alpha  occ. eigenvalues --   -0.73957  -0.73548  -0.73186  -0.72052  -0.70776
 Alpha  occ. eigenvalues --   -0.68301  -0.67412  -0.67250  -0.66245  -0.65249
 Alpha  occ. eigenvalues --   -0.64246  -0.64115  -0.63731  -0.62958  -0.62499
 Alpha  occ. eigenvalues --   -0.61650  -0.61359  -0.60669  -0.59929  -0.59452
 Alpha  occ. eigenvalues --   -0.59139  -0.58512  -0.58280  -0.57621  -0.56649
 Alpha  occ. eigenvalues --   -0.56152  -0.55803  -0.55219  -0.54870  -0.54259
 Alpha  occ. eigenvalues --   -0.53825  -0.53464  -0.53212  -0.53004  -0.52770
 Alpha  occ. eigenvalues --   -0.52506  -0.51580  -0.51449  -0.51228  -0.50199
 Alpha  occ. eigenvalues --   -0.49818  -0.49681  -0.49569  -0.48978  -0.48727
 Alpha  occ. eigenvalues --   -0.48357  -0.48108  -0.47971  -0.47517  -0.47064
 Alpha  occ. eigenvalues --   -0.46581  -0.46267  -0.45434  -0.43087  -0.42062
 Alpha  occ. eigenvalues --   -0.40968  -0.40400  -0.38697  -0.38066  -0.37792
 Alpha  occ. eigenvalues --   -0.37371  -0.37016  -0.36689  -0.35812  -0.34852
 Alpha  occ. eigenvalues --   -0.34472  -0.34425  -0.33770  -0.33514  -0.32863
 Alpha  occ. eigenvalues --   -0.32767  -0.32321  -0.31749  -0.31254  -0.31061
 Alpha  occ. eigenvalues --   -0.30808  -0.28850  -0.27041  -0.25031
 Alpha virt. eigenvalues --    0.03210   0.04692   0.06682   0.06975   0.09141
 Alpha virt. eigenvalues --    0.09199   0.09607   0.10441   0.10857   0.12106
 Alpha virt. eigenvalues --    0.13066   0.13340   0.14312   0.14616   0.14833

 Mulliken charges:
               1
     1  N   -0.309299
     2  C    0.206956
     3  C    0.070312
     4  N   -0.243314
     5  C    0.116798
     6  H    0.026886
     7  N   -0.277344
     8  C    0.158434
     9  H    0.001645
    10  N   -0.275086
    11  C    0.198104
    12  C    0.064218
    13  N   -0.041361
    14  H    0.110007
    15  H    0.089587
    16  H    0.023671
    17  H    0.038295
    18  H    0.026557
    19  N   -0.287217
    20  C    0.213316
    21  C    0.246328
    22  N   -0.106581
    23  H    0.117135
    24  H    0.117973
    25  N   -0.290453
    26  C    0.217495
    27  N   -0.135682
    28  H    0.119824
    29  C    0.172855
    30  O   -0.321236
    31  C    0.002888
    32  N   -0.218794
    33  C    0.128515
    34  H    0.019602
    35  H   -0.076456
    36  H    0.039665
    37  H    0.020645
    38  H    0.096072
    39  H    0.041954
    40  H    0.067206
    41  H    0.024793
    42  C   -0.080715
    43  O   -0.270052
    44  C    0.167728
    45  H    0.131478
    46  N   -0.118267
    47  O   -0.329257
    48  C    0.318290
    49  H    0.037573
    50  C    0.153410
    51  C   -0.008160
    52  N   -0.264890
    53  H    0.018878
    54  H    0.035717
    55  H   -0.043704
    56  H    0.121309
    57  H    0.121189
    58  N   -0.059891
    59  C    0.125742
    60  C    0.200544
    61  N   -0.248738
    62  H    0.031910
    63  C    0.146512
    64  N   -0.299847
    65  H    0.034869
    66  C    0.119553
    67  N   -0.243154
    68  C    0.038031
    69  C    0.284993
    70  N   -0.315969
 Sum of Mulliken charges =  -0.00000

 Dipole moment (field-independent basis, Debye):
    X=              3.9985    Y=             -5.0741    Z=             -6.5188  Tot=              9.1776
 Quadrupole moment (field-independent basis, Debye-Ang):
   XX=           -146.3072   YY=           -224.5841   ZZ=           -265.6634
   XY=            -13.6810   XZ=            -14.7092   YZ=             -0.1066

 Normal termination of Gaussian 16 at Thu Jan 25 10:19:34 2018.
