 Gaussian 16, Revision A.03,
 Gaussian 16:  EM64L-G16RevA.03 25-Dec-2016

 ---------------------------------------
 #p wb97xd/cc-pvdz sp scf=(maxcycles=20)
 ---------------------------------------

 ------------------
 Base pair stacking
 ------------------
 Symbolic Z-matrix:
 Charge =  0 Multiplicity = 1

                         Standard orientation:
 ---------------------------------------------------------------------
 Center     Atomic      Atomic             Coordinates (Angstroms)
 Number     Number       Type             X           Y           Z
 ---------------------------------------------------------------------
      1          7           0       -6.812044   -0.755972    0.391794
      2          6           0       -8.052604   -0.172116    0.937821
      3          6           0       -4.708568   -1.314482    0.074362
      4          7           0       -5.429296   -1.922117   -0.943510
      5          6           0       -6.667717   -1.561303   -0.711525
      6          1           0       -7.523665   -1.856524   -1.319098
      7          7           0       -2.948302   -0.601587    1.472997
      8          6           0       -3.876816    0.048478    2.182122
      9          1           0       -3.502429    0.599997    3.043478
     10          7           0       -5.192173    0.119226    1.987910
     11          6           0       -5.547315   -0.592274    0.905286
     12          6           0       -3.337577   -1.308327    0.389459
     13          7           0       -2.412200   -1.957906   -0.319683
     14          1           0       -2.655026   -2.493528   -1.129225
     15          1           0       -1.445179   -1.931324   -0.066085
     16          1           0       -8.686693   -0.904841    1.185244
     17          1           0       -7.837625    0.369672    1.749832
     18          1           0       -8.477676    0.415977    0.249732
     19          7           0       -3.311268    1.817691   -1.226217
     20          6           0       -1.995367    1.953245   -0.854616
     21          6           0       -4.434350    2.617736   -0.697704
     22          7           0        0.444835    3.524213    1.053056
     23          1           0        1.434277    3.462354    1.181224
     24          1           0       -0.040939    4.210117    1.595515
     25          7           0       -1.511158    2.833009    0.048490
     26          6           0       -0.202383    2.723746    0.192665
     27          7           0        0.574591    1.822530   -0.494088
     28          1           0        1.567811    1.809664   -0.319973
     29          6           0        0.097754    0.907970   -1.427937
     30          8           0        0.884156    0.137381   -1.992295
     31          6           0       -1.306645    1.013361   -1.593592
     32          7           0       -2.172738    0.302063   -2.412645
     33          6           0       -3.347767    0.812366   -2.161438
     34          1           0       -4.277686    0.491323   -2.632035
     35          1           0       -5.098588    2.013644   -0.258780
     36          1           0       -4.087788    3.272957   -0.027739
     37          1           0       -4.876165    3.110510   -1.446563
     38          1           0        6.328587    1.812475    1.465451
     39          1           0        6.647088    2.776183    0.025147
     40          1           0        5.077407    2.877232    0.823420
     41          1           0        6.449672   -1.632606   -1.890649
     42          6           0        5.772210   -0.861187   -1.524313
     43          8           0        3.855383   -1.789232   -2.569138
     44          6           0        4.385698   -0.923906   -1.872878
     45          1           0        2.631807    0.089895   -1.582401
     46          7           0        3.616766    0.100116   -1.357752
     47          8           0        3.284959    2.000505   -0.159576
     48          6           0        4.043161    1.138770   -0.568494
     49          1           0        7.262817    0.232811   -0.462691
     50          6           0        6.218022    0.139637   -0.756065
     51          6           0        5.894666    2.220506    0.564731
     52          7           0        5.392805    1.130003   -0.275911
     53          1           0        4.513621   -0.159374    4.081916
     54          1           0        3.362978    0.839013    3.497667
     55          1           0        4.884032    0.914922    2.910537
     56          1           0        0.745363   -3.536008   -1.346169
     57          1           0        2.406830   -3.806005   -1.069155
     58          7           0        1.579227   -3.286516   -0.853659
     59          6           0        1.588273   -2.304870    0.050477
     60          6           0        2.585871   -0.879850    1.674010
     61          7           0        1.459504   -0.199187    1.943082
     62          1           0       -0.505178   -0.157139    1.360969
     63          6           0        0.450202   -0.656203    1.204612
     64          7           0        0.439122   -1.639286    0.298511
     65          1           0        5.704169   -1.701538    1.904773
     66          6           0        4.648553   -1.623365    1.643039
     67          7           0        4.042127   -2.377430    0.759110
     68          6           0        2.733639   -1.916462    0.768944
     69          6           0        4.174663    0.304711    3.263539
     70          7           0        3.827142   -0.695446    2.235470
 ---------------------------------------------------------------------

 SCF Done:  E(RwB97XD) =  -2048.75216777     A.U. after   15 cycles

 The electronic state is 1-A.
 Alpha  occ. eigenvalues --  -19.25951 -19.21977 -19.20664 -14.52542 -14.51073
 Alpha  occ. eigenvalues --  -14.50018 -14.48579 -14.47814 -14.46890 -14.46630
 Alpha  occ. eigenvalues --  -14.45691 -14.43742 -14.42849 -14.42730 -14.42606
 Alpha  occ. eigenvalues --  -14.42419 -14.41975 -14.41925 -14.41072 -14.40775
 Alpha  occ. eigenvalues --  -10.45550 -10.41180 -10.40045 -10.38248 -10.37865
 Alpha  occ. eigenvalues --  -10.37515 -10.36467 -10.36351 -10.35900 -10.35499
 Alpha  occ. eigenvalues --  -10.35345 -10.34545 -10.34306 -10.34200 -10.34004
 Alpha  occ. eigenvalues --  -10.33146 -10.33145 -10.32012 -10.30946 -10.30799
 Alpha  occ. eigenvalues --  -10.30434 -10.29742 -10.28069  -1.19529  -1.13678
 Alpha  occ. eigenvalues --   -1.13216  -1.12937  -1.12608  -1.10518  -1.09418
 Alpha  occ. eigenvalues --   -1.08570  -1.07265  -1.05968  -1.02776  -1.02514
 Alpha  occ. eigenvalues --   -1.01386  -0.99719  -0.99367  -0.98495  -0.98107
 Alpha  occ. eigenvalues --   -0.96433  -0.94942  -0.93556  -0.90975  -0.86128
 Alpha  occ. eigenvalues --   -0.85081  -0.84656  -0.84018  -0.83935  -0.83412
 Alpha  occ. eigenvalues --   -0.82246  -0.78862  -0.75323  -0.74514  -0.73922
 Alpha  occ. eigenvalues --   -0.73620  -0.73358  -0.73059  -0.72088  -0.68671
 Alpha  occ. eigenvalues --   -0.67350  -0.67288  -0.66567  -0.64971  -0.64442
 Alpha  occ. eigenvalues --   -0.63722  -0.63684  -0.62605  -0.62509  -0.61664
 Alpha  occ. eigenvalues --   -0.61113  -0.60795  -0.59534  -0.58907  -0.58313
 Alpha  occ. eigenvalues --   -0.58098  -0.57756  -0.57710  -0.57298  -0.56409
 Alpha  occ. eigenvalues --   -0.56152  -0.55991  -0.54882  -0.54398  -0.53938
 Alpha  occ. eigenvalues --   -0.53606  -0.53566  -0.52883  -0.52843  -0.52724
 Alpha  occ. eigenvalues --   -0.52118  -0.51875  -0.51712  -0.51291  -0.51133
 Alpha  occ. eigenvalues --   -0.50083  -0.50021  -0.49447  -0.48751  -0.48608
 Alpha  occ. eigenvalues --   -0.48254  -0.48195  -0.47941  -0.47885  -0.47819
 Alpha  occ. eigenvalues --   -0.47387  -0.45956  -0.45147  -0.44042  -0.42898
 Alpha  occ. eigenvalues --   -0.42063  -0.39512  -0.39123  -0.38238  -0.37270
 Alpha  occ. eigenvalues --   -0.37197  -0.36218  -0.35877  -0.35799  -0.34743
 Alpha  occ. eigenvalues --   -0.34567  -0.34265  -0.33194  -0.32967  -0.32684
 Alpha  occ. eigenvalues --   -0.32534  -0.32279  -0.32009  -0.31909  -0.31748
 Alpha  occ. eigenvalues --   -0.31262  -0.27922  -0.26683  -0.25426
 Alpha virt. eigenvalues --    0.02928   0.05900   0.06884   0.08084   0.08939
 Alpha virt. eigenvalues --    0.09214   0.09805   0.10171   0.10992   0.12368
 Alpha virt. eigenvalues --    0.12912   0.13441   0.14389   0.14820   0.15093

 Mulliken charges:
               1
     1  N   -0.309838
     2  C    0.179937
     3  C    0.032400
     4  N   -0.252575
     5  C    0.127037
     6  H    0.029440
     7  N   -0.279433
     8  C    0.133477
     9  H    0.017651
    10  N   -0.287375
    11  C    0.230010
    12  C    0.089459
    13  N   -0.032378
    14  H    0.108532
    15  H    0.089906
    16  H    0.029214
    17  H    0.036786
    18  H    0.024826
    19  N   -0.302466
    20  C    0.253885
    21  C    0.186588
    22  N   -0.120093
    23  H    0.114385
    24  H    0.118180
    25  N   -0.305063
    26  C    0.238582
    27  N   -0.133660
    28  H    0.119009
    29  C    0.168834
    30  O   -0.326464
    31  C   -0.007034
    32  N   -0.229821
    33  C    0.122739
    34  H    0.026953
    35  H    0.023590
    36  H    0.029471
    37  H    0.021467
    38  H    0.056607
    39  H    0.065020
    40  H    0.075904
    41  H    0.028660
    42  C   -0.069219
    43  O   -0.270027
    44  C    0.179358
    45  H    0.133703
    46  N   -0.126308
    47  O   -0.347936
    48  C    0.342031
    49  H    0.041969
    50  C    0.146359
    51  C    0.035925
    52  N   -0.285673
    53  H    0.032629
    54  H    0.039883
    55  H   -0.002593
    56  H    0.116255
    57  H    0.121499
    58  N   -0.049509
    59  C    0.129648
    60  C    0.228890
    61  N   -0.276842
    62  H    0.030893
    63  C    0.158896
    64  N   -0.307433
    65  H    0.023716
    66  C    0.121300
    67  N   -0.244530
    68  C    0.015109
    69  C    0.189994
    70  N   -0.300337
 Sum of Mulliken charges =  -0.00000

 Dipole moment (field-independent basis, Debye):
    X=              3.9848    Y=              4.9827    Z=              5.2204  Tot=              8.2437
 Quadrupole moment (field-independent basis, Debye-Ang):
   XX=           -142.1252   YY=           -227.2870   ZZ=           -254.7358
   XY=             10.4445   XZ=             25.7124   YZ=              6.1197

 Normal termination of Gaussian 16 at Thu Jan 25 08:40:28 2018.
