 Gaussian 16, Revision A.03,
 Gaussian 16:  EM64L-G16RevA.03 25-Dec-2016

 ---------------------------------------
 #p wb97xd/cc-pvdz sp scf=(maxcycles=20)
 ---------------------------------------

 ------------------
 Base pair stacking
 ------------------
 Symbolic Z-matrix:
 Charge =  0 Multiplicity = 1

                         Standard orientation:
 ---------------------------------------------------------------------
 Center     Atomic      Atomic             Coordinates (Angstroms)
 Number     Number       Type             X           Y           Z
 ---------------------------------------------------------------------
      1          7           0       -4.446536    2.401763   -0.181788
      2          6           0       -5.657102    2.653826   -0.987381
      3          6           0       -2.366651    2.054048    0.443105
      4          7           0       -3.129781    2.025628    1.601354
      5          6           0       -4.352295    2.236249    1.178530
      6          1           0       -5.231646    2.281248    1.821672
      7          7           0       -0.551556    1.981046   -1.061240
      8          6           0       -1.444152    2.209058   -2.030176
      9          1           0       -1.032840    2.267385   -3.037002
     10          7           0       -2.762363    2.375054   -1.942571
     11          6           0       -3.164431    2.284942   -0.664036
     12          6           0       -0.987646    1.895784    0.214548
     13          7           0       -0.098161    1.668223    1.183162
     14          1           0       -0.376184    1.597535    2.141765
     15          1           0        0.875919    1.560707    0.983751
     16          1           0       -6.086865    3.505837   -0.688112
     17          1           0       -5.406700    2.728894   -1.952163
     18          1           0       -6.301532    1.898253   -0.869848
     19          7           0       -5.741126   -1.186513    0.036200
     20          6           0       -4.432615   -1.425609   -0.308321
     21          6           0       -6.899305   -1.311016   -0.871449
     22          7           0       -2.065791   -2.342466   -2.678817
     23          1           0       -1.074508   -2.463478   -2.722951
     24          1           0       -2.582116   -2.518262   -3.517402
     25          7           0       -3.988648   -1.811354   -1.524106
     26          6           0       -2.676191   -1.961573   -1.546453
     27          7           0       -1.859208   -1.750682   -0.462211
     28          1           0       -0.866369   -1.889824   -0.571106
     29          6           0       -2.294247   -1.353521    0.798298
     30          8           0       -1.473758   -1.190860    1.709922
     31          6           0       -3.702061   -1.188066    0.837829
     32          7           0       -4.535148   -0.807500    1.880912
     33          6           0       -5.732136   -0.820523    1.360060
     34          1           0       -6.646632   -0.570738    1.899100
     35          1           0       -7.363468   -0.429018   -0.945148
     36          1           0       -6.582704   -1.596265   -1.775145
     37          1           0       -7.535106   -1.992983   -0.511614
     38          1           0        4.026549   -2.127462   -1.933324
     39          1           0        3.934274   -3.732449   -1.212114
     40          1           0        2.514873   -3.034472   -1.992824
     41          1           0        4.272995   -1.009079    2.739480
     42          6           0        3.527656   -1.299062    1.998797
     43          8           0        1.680916   -0.601780    3.314265
     44          6           0        2.140551   -1.091617    2.282964
     45          1           0        0.293782   -1.362573    1.443706
     46          7           0        1.282065   -1.493187    1.279471
     47          8           0        0.788711   -2.378091   -0.752941
     48          6           0        1.622743   -2.054340    0.074247
     49          1           0        4.932401   -2.022952    0.567539
     50          6           0        3.891024   -1.844232    0.832026
     51          6           0        3.390954   -2.818282   -1.399614
     52          7           0        2.978847   -2.222198   -0.125804
     53          1           0        7.036574    1.399196   -3.243910
     54          1           0        5.632614    0.602999   -3.482794
     55          1           0        6.982143   -0.224067   -3.084278
     56          1           0        3.065349    1.326366    3.024232
     57          1           0        4.770179    1.267291    3.010367
     58          7           0        3.911465    1.246168    2.497151
     59          6           0        3.896442    1.116751    1.168920
     60          6           0        4.880838    0.872898   -0.983571
     61          7           0        3.712775    0.847602   -1.646446
     62          1           0        1.703665    0.953849   -1.255512
     63          6           0        2.692478    0.965025   -0.799020
     64          7           0        2.705462    1.094736    0.531617
     65          1           0        8.088301    0.803393   -0.584119
     66          6           0        7.007445    0.853180   -0.449163
     67          7           0        6.406271    0.986689    0.707746
     68          6           0        5.057501    1.000597    0.383182
     69          6           0        6.475432    0.626977   -2.945931
     70          7           0        6.144961    0.778069   -1.515566
 ---------------------------------------------------------------------

 SCF Done:  E(RwB97XD) =  -2048.73629930     A.U. after   15 cycles

 The electronic state is 1-A.
 Alpha  occ. eigenvalues --  -19.25420 -19.22274 -19.20969 -14.52223 -14.51923
 Alpha  occ. eigenvalues --  -14.49518 -14.48754 -14.47514 -14.47267 -14.47197
 Alpha  occ. eigenvalues --  -14.46968 -14.45093 -14.44258 -14.44072 -14.42405
 Alpha  occ. eigenvalues --  -14.42372 -14.41502 -14.41155 -14.40926 -14.40591
 Alpha  occ. eigenvalues --  -10.45011 -10.41627 -10.40126 -10.39569 -10.38636
 Alpha  occ. eigenvalues --  -10.37656 -10.37002 -10.36848 -10.35808 -10.35624
 Alpha  occ. eigenvalues --  -10.34938 -10.34650 -10.33953 -10.33840 -10.33733
 Alpha  occ. eigenvalues --  -10.33460 -10.33315 -10.32315 -10.31803 -10.31212
 Alpha  occ. eigenvalues --  -10.30285 -10.28641 -10.28604  -1.18997  -1.14951
 Alpha  occ. eigenvalues --   -1.13616  -1.13203  -1.11311  -1.11171  -1.09197
 Alpha  occ. eigenvalues --   -1.08962  -1.08716  -1.05258  -1.04583  -1.02217
 Alpha  occ. eigenvalues --   -1.00660  -1.00569  -1.00082  -0.98991  -0.97245
 Alpha  occ. eigenvalues --   -0.96899  -0.96627  -0.92913  -0.90538  -0.87385
 Alpha  occ. eigenvalues --   -0.85664  -0.84759  -0.83979  -0.83270  -0.83066
 Alpha  occ. eigenvalues --   -0.82426  -0.78432  -0.76747  -0.75145  -0.74677
 Alpha  occ. eigenvalues --   -0.74004  -0.73017  -0.72958  -0.71172  -0.70070
 Alpha  occ. eigenvalues --   -0.67807  -0.66637  -0.66388  -0.66056  -0.64788
 Alpha  occ. eigenvalues --   -0.63891  -0.63765  -0.62950  -0.62783  -0.62176
 Alpha  occ. eigenvalues --   -0.60477  -0.60281  -0.59989  -0.59319  -0.59108
 Alpha  occ. eigenvalues --   -0.58871  -0.58657  -0.57870  -0.56647  -0.56131
 Alpha  occ. eigenvalues --   -0.55979  -0.55551  -0.54997  -0.54744  -0.54383
 Alpha  occ. eigenvalues --   -0.54113  -0.53754  -0.53440  -0.53359  -0.52852
 Alpha  occ. eigenvalues --   -0.52539  -0.52037  -0.51803  -0.50883  -0.50686
 Alpha  occ. eigenvalues --   -0.50372  -0.50019  -0.49806  -0.49340  -0.49026
 Alpha  occ. eigenvalues --   -0.48983  -0.48767  -0.48485  -0.47559  -0.47186
 Alpha  occ. eigenvalues --   -0.47041  -0.46050  -0.45061  -0.44661  -0.42906
 Alpha  occ. eigenvalues --   -0.41223  -0.40491  -0.39225  -0.37833  -0.37697
 Alpha  occ. eigenvalues --   -0.37560  -0.37219  -0.37083  -0.35699  -0.34624
 Alpha  occ. eigenvalues --   -0.34344  -0.34167  -0.33881  -0.33550  -0.33376
 Alpha  occ. eigenvalues --   -0.33117  -0.32613  -0.32086  -0.31390  -0.31080
 Alpha  occ. eigenvalues --   -0.30540  -0.29439  -0.26593  -0.25272
 Alpha virt. eigenvalues --    0.03533   0.04203   0.06646   0.07772   0.08530
 Alpha virt. eigenvalues --    0.09181   0.09507   0.10710   0.10861   0.12084
 Alpha virt. eigenvalues --    0.12849   0.13791   0.14220   0.14414   0.14737

 Mulliken charges:
               1
     1  N   -0.307008
     2  C    0.185839
     3  C    0.028751
     4  N   -0.231717
     5  C    0.144218
     6  H    0.023872
     7  N   -0.296326
     8  C    0.129176
     9  H    0.010255
    10  N   -0.286218
    11  C    0.244712
    12  C    0.082693
    13  N   -0.050549
    14  H    0.121064
    15  H    0.091336
    16  H    0.026278
    17  H    0.035578
    18  H    0.009891
    19  N   -0.306131
    20  C    0.254995
    21  C    0.180667
    22  N   -0.123135
    23  H    0.118649
    24  H    0.120017
    25  N   -0.312018
    26  C    0.252923
    27  N   -0.146565
    28  H    0.120331
    29  C    0.189758
    30  O   -0.320597
    31  C   -0.013716
    32  N   -0.208757
    33  C    0.102459
    34  H    0.022627
    35  H    0.018466
    36  H    0.032748
    37  H    0.027978
    38  H    0.054999
    39  H    0.055835
    40  H    0.073931
    41  H    0.014719
    42  C   -0.092013
    43  O   -0.287995
    44  C    0.186575
    45  H    0.129598
    46  N   -0.117271
    47  O   -0.353192
    48  C    0.342826
    49  H    0.045027
    50  C    0.164932
    51  C    0.045680
    52  N   -0.276490
    53  H    0.035035
    54  H    0.041482
    55  H    0.027434
    56  H    0.124886
    57  H    0.118028
    58  N   -0.039038
    59  C    0.047156
    60  C    0.233027
    61  N   -0.270472
    62  H    0.033321
    63  C    0.159342
    64  N   -0.299504
    65  H    0.037600
    66  C    0.135047
    67  N   -0.258270
    68  C    0.048172
    69  C    0.178837
    70  N   -0.311787
 Sum of Mulliken charges =  -0.00000

 Dipole moment (field-independent basis, Debye):
    X=              4.2633    Y=             -2.9534    Z=             -7.4477  Tot=              9.0757
 Quadrupole moment (field-independent basis, Debye-Ang):
   XX=           -145.2023   YY=           -239.9260   ZZ=           -244.4435
   XY=            -11.4775   XZ=             -3.3488   YZ=             16.9703

 Normal termination of Gaussian 16 at Thu Jan 25 18:05:11 2018.
