 Gaussian 16, Revision A.03,
 Gaussian 16:  EM64L-G16RevA.03 25-Dec-2016

 ---------------------------------------
 #p wb97xd/cc-pvdz sp scf=(maxcycles=20)
 ---------------------------------------

 ------------------
 Base pair stacking
 ------------------
 Symbolic Z-matrix:
 Charge =  0 Multiplicity = 1

                         Standard orientation:
 ---------------------------------------------------------------------
 Center     Atomic      Atomic             Coordinates (Angstroms)
 Number     Number       Type             X           Y           Z
 ---------------------------------------------------------------------
      1          7           0        4.776085   -1.977467   -0.626813
      2          6           0        6.015171   -1.855342   -1.419111
      3          6           0        2.667648   -1.980880   -0.000848
      4          7           0        3.403870   -2.356861    1.113308
      5          6           0        4.644655   -2.339761    0.691594
      6          1           0        5.511637   -2.585002    1.305717
      7          7           0        0.882879   -1.426598   -1.439700
      8          6           0        1.806609   -1.234612   -2.387028
      9          1           0        1.420121   -0.927955   -3.358030
     10          7           0        3.129876   -1.363939   -2.315326
     11          6           0        3.499754   -1.743730   -1.081069
     12          6           0        1.287048   -1.808360   -0.208448
     13          7           0        0.366454   -2.000504    0.738521
     14          1           0        0.620210   -2.283388    1.664160
     15          1           0       -0.607728   -1.868330    0.555112
     16          1           0        6.485069   -2.737828   -1.443664
     17          1           0        5.789361   -1.572991   -2.350996
     18          1           0        6.614286   -1.172160   -1.001581
     19          7           0        5.449260    1.189036    0.362234
     20          6           0        4.135373    1.434988    0.043999
     21          6           0        6.605122    1.456865   -0.516940
     22          7           0        1.748633    2.579501   -2.204395
     23          1           0        0.754543    2.678990   -2.237860
     24          1           0        2.261399    2.872664   -3.011768
     25          7           0        3.683177    1.958431   -1.115980
     26          6           0        2.367204    2.075711   -1.125754
     27          7           0        1.554447    1.709013   -0.080543
     28          1           0        0.558414    1.834562   -0.175999
     29          6           0        1.997948    1.168381    1.122329
     30          8           0        1.180672    0.871083    2.002327
     31          6           0        3.409620    1.036358    1.147706
     32          7           0        4.250941    0.549941    2.138905
     33          6           0        5.447960    0.659691    1.629687
     34          1           0        6.367969    0.368368    2.137627
     35          1           0        7.092786    0.603606   -0.698383
     36          1           0        6.282442    1.844847   -1.379268
     37          1           0        7.221918    2.104775   -0.071298
     38          1           0       -4.336961    2.112507   -1.521663
     39          1           0       -4.288711    3.616173   -0.604425
     40          1           0       -2.849959    3.059254   -1.459524
     41          1           0       -4.560781    0.410482    2.972729
     42          6           0       -3.822295    0.810613    2.277928
     43          8           0       -1.959659    0.002566    3.504623
     44          6           0       -2.430597    0.605705    2.540646
     45          1           0       -0.590405    1.028300    1.751068
     46          7           0       -1.581565    1.152460    1.599669
     47          8           0       -1.108823    2.298092   -0.303292
     48          6           0       -1.935213    1.851272    0.472659
     49          1           0       -5.243615    1.671194    0.941882
     50          6           0       -4.198259    1.488155    1.186969
     51          6           0       -3.720870    2.747370   -0.902418
     52          7           0       -3.294993    2.007182    0.288594
     53          1           0       -6.678918   -0.397054   -3.547198
     54          1           0       -5.316459    0.490716   -3.414299
     55          1           0       -6.717607    1.047822   -2.789408
     56          1           0       -2.848608   -2.513621    2.445666
     57          1           0       -4.553441   -2.527786    2.386786
     58          7           0       -3.686751   -2.277992    1.953577
     59          6           0       -3.651366   -1.658211    0.772138
     60          6           0       -4.602895   -0.666025   -1.169996
     61          7           0       -3.424521   -0.342670   -1.727929
     62          1           0       -1.421157   -0.500721   -1.325250
     63          6           0       -2.417091   -0.725633   -0.946055
     64          7           0       -2.450474   -1.346504    0.237571
     65          1           0       -7.816882   -0.891184   -0.902114
     66          6           0       -6.737956   -0.941061   -0.752533
     67          7           0       -6.154450   -1.473465    0.293285
     68          6           0       -4.800530   -1.305732    0.041301
     69          6           0       -6.167604    0.230082   -2.959611
     70          7           0       -5.859019   -0.433167   -1.677859
 ---------------------------------------------------------------------

 SCF Done:  E(RwB97XD) =  -2048.74587918     A.U. after   15 cycles

 The electronic state is 1-A.
 Alpha  occ. eigenvalues --  -19.25318 -19.21597 -19.20785 -14.52411 -14.51787
 Alpha  occ. eigenvalues --  -14.49317 -14.49130 -14.47707 -14.47159 -14.46947
 Alpha  occ. eigenvalues --  -14.46742 -14.45168 -14.44293 -14.44191 -14.42702
 Alpha  occ. eigenvalues --  -14.42116 -14.41417 -14.41395 -14.41288 -14.40867
 Alpha  occ. eigenvalues --  -10.44854 -10.41348 -10.39691 -10.39630 -10.38424
 Alpha  occ. eigenvalues --  -10.37743 -10.37084 -10.37005 -10.35919 -10.35819
 Alpha  occ. eigenvalues --  -10.34684 -10.34487 -10.34292 -10.34027 -10.33768
 Alpha  occ. eigenvalues --  -10.33741 -10.33586 -10.32391 -10.31731 -10.31581
 Alpha  occ. eigenvalues --  -10.30239 -10.28908 -10.28411  -1.18865  -1.15073
 Alpha  occ. eigenvalues --   -1.13403  -1.12585  -1.11676  -1.10975  -1.09189
 Alpha  occ. eigenvalues --   -1.08750  -1.08602  -1.05556  -1.04604  -1.01900
 Alpha  occ. eigenvalues --   -1.00889  -1.00780  -0.99832  -0.98750  -0.97351
 Alpha  occ. eigenvalues --   -0.96967  -0.96722  -0.93212  -0.90392  -0.87493
 Alpha  occ. eigenvalues --   -0.85864  -0.84740  -0.84222  -0.83266  -0.82941
 Alpha  occ. eigenvalues --   -0.82653  -0.78269  -0.76839  -0.74942  -0.74749
 Alpha  occ. eigenvalues --   -0.73766  -0.73323  -0.72731  -0.71490  -0.70182
 Alpha  occ. eigenvalues --   -0.67586  -0.66746  -0.66601  -0.65946  -0.64631
 Alpha  occ. eigenvalues --   -0.64020  -0.63485  -0.63142  -0.62743  -0.61939
 Alpha  occ. eigenvalues --   -0.60763  -0.60674  -0.60241  -0.59449  -0.59020
 Alpha  occ. eigenvalues --   -0.58886  -0.58741  -0.58445  -0.57011  -0.55914
 Alpha  occ. eigenvalues --   -0.55762  -0.55422  -0.55225  -0.54448  -0.54442
 Alpha  occ. eigenvalues --   -0.54197  -0.53599  -0.53511  -0.53186  -0.52775
 Alpha  occ. eigenvalues --   -0.52656  -0.52173  -0.51750  -0.50868  -0.50723
 Alpha  occ. eigenvalues --   -0.50381  -0.50057  -0.49373  -0.49295  -0.49078
 Alpha  occ. eigenvalues --   -0.48907  -0.48553  -0.48336  -0.47420  -0.47355
 Alpha  occ. eigenvalues --   -0.47281  -0.46196  -0.44837  -0.44641  -0.43275
 Alpha  occ. eigenvalues --   -0.41386  -0.40567  -0.39033  -0.37781  -0.37690
 Alpha  occ. eigenvalues --   -0.37479  -0.37348  -0.37226  -0.35743  -0.34604
 Alpha  occ. eigenvalues --   -0.34439  -0.34132  -0.33832  -0.33759  -0.33079
 Alpha  occ. eigenvalues --   -0.32711  -0.32497  -0.32002  -0.31741  -0.31081
 Alpha  occ. eigenvalues --   -0.30808  -0.29296  -0.27043  -0.24877
 Alpha virt. eigenvalues --    0.03291   0.04437   0.06453   0.07137   0.08561
 Alpha virt. eigenvalues --    0.09573   0.09748   0.10690   0.10937   0.11961
 Alpha virt. eigenvalues --    0.12764   0.13808   0.14175   0.14657   0.15189

 Mulliken charges:
               1
     1  N   -0.302099
     2  C    0.194629
     3  C    0.043589
     4  N   -0.234912
     5  C    0.137764
     6  H    0.024824
     7  N   -0.289525
     8  C    0.124698
     9  H    0.007732
    10  N   -0.278777
    11  C    0.238684
    12  C    0.073815
    13  N   -0.044527
    14  H    0.116261
    15  H    0.086732
    16  H    0.028203
    17  H    0.037043
    18  H   -0.004021
    19  N   -0.300525
    20  C    0.247270
    21  C    0.185394
    22  N   -0.120204
    23  H    0.118324
    24  H    0.119893
    25  N   -0.301249
    26  C    0.240755
    27  N   -0.136670
    28  H    0.121060
    29  C    0.182078
    30  O   -0.320917
    31  C   -0.010782
    32  N   -0.207822
    33  C    0.102766
    34  H    0.020733
    35  H    0.005504
    36  H    0.035140
    37  H    0.028359
    38  H    0.043980
    39  H    0.053782
    40  H    0.075349
    41  H    0.019083
    42  C   -0.104873
    43  O   -0.277991
    44  C    0.174206
    45  H    0.127525
    46  N   -0.108686
    47  O   -0.348513
    48  C    0.323207
    49  H    0.043964
    50  C    0.169347
    51  C    0.050413
    52  N   -0.267929
    53  H    0.037584
    54  H    0.044321
    55  H    0.027628
    56  H    0.126437
    57  H    0.117952
    58  N   -0.040375
    59  C    0.076843
    60  C    0.219263
    61  N   -0.269064
    62  H    0.030958
    63  C    0.161113
    64  N   -0.301768
    65  H    0.037484
    66  C    0.130582
    67  N   -0.254755
    68  C    0.048604
    69  C    0.175935
    70  N   -0.310827
 Sum of Mulliken charges =  -0.00000

 Dipole moment (field-independent basis, Debye):
    X=             -4.3783    Y=              3.1021    Z=             -7.1695  Tot=              8.9551
 Quadrupole moment (field-independent basis, Debye-Ang):
   XX=           -145.7587   YY=           -233.3266   ZZ=           -253.8279
   XY=            -10.8451   XZ=              3.7985   YZ=            -16.7174

 Normal termination of Gaussian 16 at Fri Jan 26 08:11:41 2018.
