 Gaussian 16, Revision A.03,
 Gaussian 16:  EM64L-G16RevA.03 25-Dec-2016

 ---------------------------------------
 #p wb97xd/cc-pvdz sp scf=(maxcycles=20)
 ---------------------------------------

 ------------------
 Base pair stacking
 ------------------
 Symbolic Z-matrix:
 Charge =  0 Multiplicity = 1

                         Standard orientation:
 ---------------------------------------------------------------------
 Center     Atomic      Atomic             Coordinates (Angstroms)
 Number     Number       Type             X           Y           Z
 ---------------------------------------------------------------------
      1          7           0        4.804091   -0.693323   -1.717075
      2          6           0        6.053666    0.040760   -1.995830
      3          6           0        2.685716   -1.221136   -1.450216
      4          7           0        3.410855   -2.367867   -1.160551
      5          6           0        4.658076   -2.003977   -1.332912
      6          1           0        5.519626   -2.657351   -1.192290
      7          7           0        0.914009    0.298297   -1.789869
      8          6           0        1.849451    1.201770   -2.100137
      9          1           0        1.472989    2.189377   -2.363123
     10          7           0        3.173892    1.069061   -2.134168
     11          6           0        3.530835   -0.180701   -1.794882
     12          6           0        1.305343   -0.950053   -1.452850
     13          7           0        0.373045   -1.853317   -1.142817
     14          1           0        0.617081   -2.789486   -0.887382
     15          1           0       -0.600575   -1.625161   -1.155288
     16          1           0        6.544044   -0.405442   -2.744570
     17          1           0        5.837685    0.981882   -2.254208
     18          1           0        6.629582    0.045138   -1.178341
     19          7           0        5.430104    0.421143    1.030222
     20          6           0        4.114081    0.812394    0.974818
     21          6           0        6.579684    1.224278    0.567495
     22          7           0        1.711708    3.176435    0.137179
     23          1           0        0.717457    3.267269    0.186736
     24          1           0        2.218752    3.945830   -0.252252
     25          7           0        3.653751    1.986816    0.492247
     26          6           0        2.337827    2.072869    0.573090
     27          7           0        1.532486    1.085474    1.086884
     28          1           0        0.535851    1.237764    1.109220
     29          6           0        1.984412   -0.130899    1.588944
     30          8           0        1.173386   -0.954503    2.030126
     31          6           0        3.396141   -0.237961    1.508792
     32          7           0        4.244368   -1.267902    1.891710
     33          6           0        5.437721   -0.833342    1.589559
     34          1           0        6.361220   -1.389514    1.754149
     35          1           0        7.065500    0.729964   -0.152540
     36          1           0        6.250960    2.096562    0.207875
     37          1           0        7.200107    1.392977    1.332630
     38          1           0       -4.369026    2.340617    0.348556
     39          1           0       -4.313189    2.806088    2.047045
     40          1           0       -2.881032    2.993787    1.034579
     41          1           0       -4.561127   -1.981401    2.453265
     42          6           0       -3.827477   -1.210327    2.217829
     43          8           0       -1.956436   -2.631182    2.545709
     44          6           0       -2.434023   -1.533286    2.260527
     45          1           0       -0.599380   -0.675843    1.965228
     46          7           0       -1.591536   -0.486170    1.945868
     47          8           0       -1.131980    1.654805    1.344025
     48          6           0       -1.952966    0.793704    1.607001
     49          1           0       -5.257982    0.325787    1.843888
     50          6           0       -4.210968    0.029248    1.890728
     51          6           0       -3.748056    2.380769    1.231078
     52          7           0       -3.313966    1.027216    1.587754
     53          1           0       -6.631583    2.651951   -2.244435
     54          1           0       -5.292369    3.004020   -1.381490
     55          1           0       -6.716602    2.771083   -0.619007
     56          1           0       -2.858630   -3.565496   -0.770065
     57          1           0       -4.561404   -3.518410   -0.862039
     58          7           0       -3.693258   -3.020931   -0.853638
     59          6           0       -3.651553   -1.690433   -0.949686
     60          6           0       -4.591638    0.485357   -1.159159
     61          7           0       -3.411452    1.126755   -1.145159
     62          1           0       -1.412303    0.695960   -1.009459
     63          6           0       -2.409267    0.257844   -1.028937
     64          7           0       -2.448992   -1.075092   -0.932602
     65          1           0       -7.803786    0.147590   -1.301171
     66          6           0       -6.726769   -0.008670   -1.233659
     67          7           0       -6.149494   -1.179510   -1.117232
     68          6           0       -4.795593   -0.880577   -1.068931
     69          6           0       -6.145101    2.482538   -1.387316
     70          7           0       -5.843735    1.042984   -1.265394
 ---------------------------------------------------------------------

 SCF Done:  E(RwB97XD) =  -2048.70605719     A.U. after   15 cycles

 The electronic state is 1-A.
 Alpha  occ. eigenvalues --  -19.25109 -19.21229 -19.20714 -14.52765 -14.51436
 Alpha  occ. eigenvalues --  -14.49316 -14.49287 -14.48109 -14.46973 -14.46755
 Alpha  occ. eigenvalues --  -14.46723 -14.45408 -14.44461 -14.44314 -14.42988
 Alpha  occ. eigenvalues --  -14.41832 -14.41655 -14.41415 -14.41370 -14.40955
 Alpha  occ. eigenvalues --  -10.44631 -10.41124 -10.39993 -10.39315 -10.38322
 Alpha  occ. eigenvalues --  -10.37988 -10.37261 -10.36957 -10.36069 -10.35945
 Alpha  occ. eigenvalues --  -10.34583 -10.34532 -10.34444 -10.33887 -10.33788
 Alpha  occ. eigenvalues --  -10.33743 -10.33571 -10.32692 -10.31503 -10.31298
 Alpha  occ. eigenvalues --  -10.30085 -10.29053 -10.28374  -1.18713  -1.15407
 Alpha  occ. eigenvalues --   -1.13399  -1.12244  -1.11873  -1.10964  -1.09475
 Alpha  occ. eigenvalues --   -1.08683  -1.08405  -1.05723  -1.04922  -1.01666
 Alpha  occ. eigenvalues --   -1.01137  -1.01106  -0.99796  -0.98720  -0.97676
 Alpha  occ. eigenvalues --   -0.97074  -0.96898  -0.93383  -0.90153  -0.87805
 Alpha  occ. eigenvalues --   -0.86274  -0.85604  -0.84058  -0.83776  -0.82613
 Alpha  occ. eigenvalues --   -0.82340  -0.78054  -0.77151  -0.75086  -0.74939
 Alpha  occ. eigenvalues --   -0.73728  -0.73500  -0.72519  -0.71672  -0.70527
 Alpha  occ. eigenvalues --   -0.67690  -0.66996  -0.66950  -0.65735  -0.64863
 Alpha  occ. eigenvalues --   -0.64405  -0.63421  -0.63231  -0.62678  -0.61899
 Alpha  occ. eigenvalues --   -0.61419  -0.61324  -0.60691  -0.60563  -0.59749
 Alpha  occ. eigenvalues --   -0.58941  -0.58770  -0.58385  -0.57365  -0.56203
 Alpha  occ. eigenvalues --   -0.55912  -0.55606  -0.55580  -0.54370  -0.54129
 Alpha  occ. eigenvalues --   -0.53834  -0.53755  -0.53395  -0.53108  -0.53009
 Alpha  occ. eigenvalues --   -0.52515  -0.52298  -0.51326  -0.51172  -0.50392
 Alpha  occ. eigenvalues --   -0.50335  -0.49986  -0.49541  -0.49143  -0.49075
 Alpha  occ. eigenvalues --   -0.48723  -0.48512  -0.48057  -0.47533  -0.47446
 Alpha  occ. eigenvalues --   -0.47080  -0.46444  -0.44549  -0.44103  -0.43072
 Alpha  occ. eigenvalues --   -0.41079  -0.40648  -0.38872  -0.38274  -0.37861
 Alpha  occ. eigenvalues --   -0.37618  -0.37499  -0.36939  -0.35685  -0.34722
 Alpha  occ. eigenvalues --   -0.34686  -0.34474  -0.33991  -0.33888  -0.32978
 Alpha  occ. eigenvalues --   -0.32632  -0.32393  -0.31968  -0.31767  -0.31008
 Alpha  occ. eigenvalues --   -0.30341  -0.29321  -0.27507  -0.24482
 Alpha virt. eigenvalues --    0.03372   0.04161   0.06371   0.06747   0.08041
 Alpha virt. eigenvalues --    0.09646   0.09743   0.10641   0.11381   0.12185
 Alpha virt. eigenvalues --    0.12203   0.13666   0.14106   0.14936   0.15203

 Mulliken charges:
               1
     1  N   -0.296383
     2  C    0.204405
     3  C    0.061395
     4  N   -0.240332
     5  C    0.136755
     6  H    0.025550
     7  N   -0.277527
     8  C    0.116986
     9  H   -0.003340
    10  N   -0.260535
    11  C    0.215200
    12  C    0.064857
    13  N   -0.045726
    14  H    0.112972
    15  H    0.085294
    16  H    0.024705
    17  H    0.032765
    18  H   -0.002775
    19  N   -0.298238
    20  C    0.221620
    21  C    0.194243
    22  N   -0.101013
    23  H    0.119356
    24  H    0.120664
    25  N   -0.265957
    26  C    0.187422
    27  N   -0.109208
    28  H    0.119876
    29  C    0.170770
    30  O   -0.318861
    31  C    0.005049
    32  N   -0.208439
    33  C    0.101042
    34  H    0.020757
    35  H   -0.005520
    36  H    0.035713
    37  H    0.024818
    38  H    0.019044
    39  H    0.045977
    40  H    0.073493
    41  H    0.022195
    42  C   -0.102798
    43  O   -0.272878
    44  C    0.173920
    45  H    0.128153
    46  N   -0.107712
    47  O   -0.343214
    48  C    0.303488
    49  H    0.042042
    50  C    0.161441
    51  C    0.071960
    52  N   -0.261718
    53  H    0.035563
    54  H    0.054156
    55  H    0.026885
    56  H    0.124675
    57  H    0.120155
    58  N   -0.055857
    59  C    0.108755
    60  C    0.215854
    61  N   -0.278119
    62  H    0.027905
    63  C    0.169539
    64  N   -0.306250
    65  H    0.038661
    66  C    0.132227
    67  N   -0.253466
    68  C    0.047475
    69  C    0.182973
    70  N   -0.312885
 Sum of Mulliken charges =  -0.00000

 Dipole moment (field-independent basis, Debye):
    X=             -4.4406    Y=              7.1496    Z=             -3.6731  Tot=              9.1830
 Quadrupole moment (field-independent basis, Debye-Ang):
   XX=           -145.2027   YY=           -228.9196   ZZ=           -262.1085
   XY=             -9.3940   XZ=             -5.6791   YZ=             13.5433

 Normal termination of Gaussian 16 at Thu Jan 25 07:39:33 2018.
