 Gaussian 16, Revision A.03,
 Gaussian 16:  EM64L-G16RevA.03 25-Dec-2016

 ---------------------------------------
 #p wb97xd/cc-pvdz sp scf=(maxcycles=20)
 ---------------------------------------

 ------------------
 Base pair stacking
 ------------------
 Symbolic Z-matrix:
 Charge =  0 Multiplicity = 1

                         Standard orientation:
 ---------------------------------------------------------------------
 Center     Atomic      Atomic             Coordinates (Angstroms)
 Number     Number       Type             X           Y           Z
 ---------------------------------------------------------------------
      1          7           0       -7.070303   -0.588461    0.319088
      2          6           0       -8.304919    0.056354    0.806874
      3          6           0       -4.974859   -1.207469    0.067571
      4          7           0       -5.696618   -1.873771   -0.912135
      5          6           0       -6.930162   -1.474179   -0.721389
      6          1           0       -7.785318   -1.796712   -1.316055
      7          7           0       -3.215720   -0.427894    1.431620
      8          6           0       -4.138777    0.288976    2.080963
      9          1           0       -3.762735    0.894420    2.904554
     10          7           0       -5.450432    0.369870    1.866707
     11          6           0       -5.808035   -0.411494    0.834218
     12          6           0       -3.607347   -1.203944    0.397475
     13          7           0       -2.687416   -1.920273   -0.251955
     14          1           0       -2.932161   -2.508555   -1.023466
     15          1           0       -1.722745   -1.893334    0.010415
     16          1           0       -8.955614   -0.644620    1.099138
     17          1           0       -8.087924    0.651477    1.580083
     18          1           0       -8.711354    0.600821    0.073154
     19          7           0       -3.015007    1.774401   -1.345696
     20          6           0       -1.700653    1.912074   -0.969429
     21          6           0       -4.127796    2.631352   -0.889604
     22          7           0        0.749604    3.571582    0.848279
     23          1           0        1.736271    3.500826    0.992199
     24          1           0        0.271595    4.303904    1.334016
     25          7           0       -1.208881    2.845829   -0.126625
     26          6           0        0.095966    2.723023    0.040433
     27          7           0        0.862423    1.760140   -0.570230
     28          1           0        1.853348    1.741490   -0.383984
     29          6           0        0.377668    0.789323   -1.441092
     30          8           0        1.154810   -0.034604   -1.939016
     31          6           0       -1.022632    0.908495   -1.630413
     32          7           0       -1.893785    0.155912   -2.406044
     33          6           0       -3.061256    0.704791   -2.206184
     34          1           0       -3.992284    0.367812   -2.663255
     35          1           0       -4.808126    2.073092   -0.416011
     36          1           0       -3.775579    3.326854   -0.264710
     37          1           0       -4.552192    3.076688   -1.677247
     38          1           0        6.594499    1.785298    1.452375
     39          1           0        6.946537    2.636015   -0.049958
     40          1           0        5.370901    2.823773    0.720430
     41          1           0        6.683652   -1.895577   -1.644359
     42          6           0        6.017492   -1.087205   -1.342710
     43          8           0        4.094004   -2.052783   -2.340191
     44          6           0        4.633726   -1.149269   -1.702096
     45          1           0        2.896868   -0.084698   -1.506259
     46          7           0        3.879466   -0.076506   -1.271366
     47          8           0        3.572103    1.911542   -0.217636
     48          6           0        4.317677    1.008522   -0.554277
     49          1           0        7.517920    0.052983   -0.345465
     50          6           0        6.474619   -0.041790   -0.643603
     51          6           0        6.177938    2.134966    0.519491
     52          7           0        5.663788    0.995914   -0.245986
     53          1           0        4.225904    0.063619    4.089239
     54          1           0        3.100934    1.038230    3.420899
     55          1           0        4.629181    1.043145    2.847742
     56          1           0        0.449472   -3.626959   -1.124562
     57          1           0        2.102434   -3.906964   -0.809250
     58          7           0        1.282855   -3.357959   -0.641596
     59          6           0        1.301530   -2.313711    0.189288
     60          6           0        2.309644   -0.793546    1.717207
     61          7           0        1.193938   -0.074385    1.923150
     62          1           0       -0.763416   -0.038166    1.316480
     63          6           0        0.183690   -0.564898    1.207827
     64          7           0        0.162974   -1.610675    0.375067
     65          1           0        5.408882   -1.654103    2.043367
     66          6           0        4.357750   -1.575519    1.764286
     67          7           0        3.746035   -2.380270    0.930091
     68          6           0        2.446689   -1.895580    0.891222
     69          6           0        3.904503    0.473386    3.235552
     70          7           0        3.548361   -0.592018    2.278427
 ---------------------------------------------------------------------

 SCF Done:  E(RwB97XD) =  -2048.75226677     A.U. after   15 cycles

 The electronic state is 1-A.
 Alpha  occ. eigenvalues --  -19.26053 -19.21853 -19.20709 -14.52648 -14.50879
 Alpha  occ. eigenvalues --  -14.50101 -14.48564 -14.47820 -14.46855 -14.46653
 Alpha  occ. eigenvalues --  -14.45655 -14.43537 -14.43000 -14.42851 -14.42438
 Alpha  occ. eigenvalues --  -14.42303 -14.42058 -14.41990 -14.41214 -14.40750
 Alpha  occ. eigenvalues --  -10.45641 -10.41177 -10.39994 -10.38294 -10.37782
 Alpha  occ. eigenvalues --  -10.37688 -10.36511 -10.36245 -10.35935 -10.35456
 Alpha  occ. eigenvalues --  -10.35373 -10.34686 -10.34298 -10.34142 -10.34074
 Alpha  occ. eigenvalues --  -10.33127 -10.32977 -10.32038 -10.31069 -10.30646
 Alpha  occ. eigenvalues --  -10.30358 -10.29893 -10.28094  -1.19622  -1.13494
 Alpha  occ. eigenvalues --   -1.13225  -1.12848  -1.12711  -1.10519  -1.09498
 Alpha  occ. eigenvalues --   -1.08586  -1.07146  -1.06120  -1.02675  -1.02488
 Alpha  occ. eigenvalues --   -1.01537  -0.99733  -0.99184  -0.98496  -0.98211
 Alpha  occ. eigenvalues --   -0.96414  -0.94833  -0.93702  -0.91084  -0.85953
 Alpha  occ. eigenvalues --   -0.85183  -0.84481  -0.84049  -0.83948  -0.83504
 Alpha  occ. eigenvalues --   -0.82213  -0.78936  -0.75188  -0.74520  -0.74035
 Alpha  occ. eigenvalues --   -0.73625  -0.73374  -0.72921  -0.72222  -0.68530
 Alpha  occ. eigenvalues --   -0.67452  -0.67324  -0.66615  -0.64838  -0.64477
 Alpha  occ. eigenvalues --   -0.63827  -0.63706  -0.62624  -0.62382  -0.61678
 Alpha  occ. eigenvalues --   -0.61214  -0.60577  -0.59594  -0.58766  -0.58338
 Alpha  occ. eigenvalues --   -0.58079  -0.57876  -0.57704  -0.57332  -0.56439
 Alpha  occ. eigenvalues --   -0.56275  -0.56060  -0.54562  -0.54445  -0.53785
 Alpha  occ. eigenvalues --   -0.53659  -0.53566  -0.52947  -0.52881  -0.52750
 Alpha  occ. eigenvalues --   -0.52099  -0.51924  -0.51752  -0.51290  -0.51103
 Alpha  occ. eigenvalues --   -0.50145  -0.50051  -0.49474  -0.48675  -0.48495
 Alpha  occ. eigenvalues --   -0.48260  -0.48147  -0.48018  -0.47911  -0.47688
 Alpha  occ. eigenvalues --   -0.47346  -0.46105  -0.44985  -0.44172  -0.42856
 Alpha  occ. eigenvalues --   -0.42212  -0.39595  -0.38964  -0.38365  -0.37282
 Alpha  occ. eigenvalues --   -0.37205  -0.36101  -0.35626  -0.35533  -0.34767
 Alpha  occ. eigenvalues --   -0.34668  -0.34343  -0.33193  -0.32808  -0.32745
 Alpha  occ. eigenvalues --   -0.32646  -0.32291  -0.32001  -0.31946  -0.31912
 Alpha  occ. eigenvalues --   -0.31370  -0.27868  -0.26842  -0.25416
 Alpha virt. eigenvalues --    0.03091   0.05734   0.06707   0.08295   0.08940
 Alpha virt. eigenvalues --    0.09005   0.09890   0.10096   0.10898   0.12458
 Alpha virt. eigenvalues --    0.12854   0.13342   0.14548   0.14828   0.15312

 Mulliken charges:
               1
     1  N   -0.310001
     2  C    0.180155
     3  C    0.029518
     4  N   -0.255797
     5  C    0.130151
     6  H    0.030215
     7  N   -0.276170
     8  C    0.128919
     9  H    0.019099
    10  N   -0.286044
    11  C    0.232614
    12  C    0.082305
    13  N   -0.030840
    14  H    0.107544
    15  H    0.092103
    16  H    0.029051
    17  H    0.037048
    18  H    0.025650
    19  N   -0.300932
    20  C    0.249588
    21  C    0.186389
    22  N   -0.120104
    23  H    0.112775
    24  H    0.118114
    25  N   -0.303766
    26  C    0.238476
    27  N   -0.125479
    28  H    0.118057
    29  C    0.158861
    30  O   -0.326130
    31  C   -0.004663
    32  N   -0.228818
    33  C    0.119996
    34  H    0.029143
    35  H    0.025618
    36  H    0.028698
    37  H    0.021842
    38  H    0.056571
    39  H    0.065874
    40  H    0.076298
    41  H    0.030764
    42  C   -0.082881
    43  O   -0.268339
    44  C    0.186824
    45  H    0.134121
    46  N   -0.126316
    47  O   -0.349907
    48  C    0.340574
    49  H    0.044408
    50  C    0.149959
    51  C    0.035548
    52  N   -0.289635
    53  H    0.031047
    54  H    0.038218
    55  H    0.003203
    56  H    0.115330
    57  H    0.122973
    58  N   -0.055480
    59  C    0.140096
    60  C    0.232820
    61  N   -0.276313
    62  H    0.035228
    63  C    0.155638
    64  N   -0.307378
    65  H    0.022687
    66  C    0.112686
    67  N   -0.243520
    68  C    0.018317
    69  C    0.187341
    70  N   -0.299940
 Sum of Mulliken charges =  -0.00000

 Dipole moment (field-independent basis, Debye):
    X=              3.9355    Y=              5.2692    Z=              4.8953  Tot=              8.1986
 Quadrupole moment (field-independent basis, Debye-Ang):
   XX=           -140.6049   YY=           -227.2391   ZZ=           -254.1582
   XY=             12.6638   XZ=             27.9083   YZ=              4.0398

 Normal termination of Gaussian 16 at Thu Jan 25 09:29:07 2018.
