 Gaussian 16, Revision A.03,
 Gaussian 16:  EM64L-G16RevA.03 25-Dec-2016

 ---------------------------------------
 #p wb97xd/cc-pvdz sp scf=(maxcycles=20)
 ---------------------------------------

 ------------------
 Base pair stacking
 ------------------
 Symbolic Z-matrix:
 Charge =  0 Multiplicity = 1

                         Standard orientation:
 ---------------------------------------------------------------------
 Center     Atomic      Atomic             Coordinates (Angstroms)
 Number     Number       Type             X           Y           Z
 ---------------------------------------------------------------------
      1          7           0        4.827636   -0.236037   -1.686629
      2          6           0        6.080857    0.543349   -1.684728
      3          6           0        2.705596   -0.812898   -1.647622
      4          7           0        3.427289   -1.994219   -1.739152
      5          6           0        4.676847   -1.599395   -1.758991
      6          1           0        5.536819   -2.266405   -1.825975
      7          7           0        0.937779    0.741400   -1.499519
      8          6           0        1.877212    1.692485   -1.477256
      9          1           0        1.503922    2.713228   -1.406627
     10          7           0        3.202300    1.572528   -1.528888
     11          6           0        3.555123    0.279218   -1.614306
     12          6           0        1.325016   -0.549979   -1.585992
     13          7           0        0.388743   -1.500795   -1.608350
     14          1           0        0.629665   -2.469911   -1.671555
     15          1           0       -0.584894   -1.276974   -1.562700
     16          1           0        6.586017    0.366863   -2.529625
     17          1           0        5.868024    1.517977   -1.622151
     18          1           0        6.641328    0.275309   -0.901140
     19          7           0        5.410491    0.146867    1.018719
     20          6           0        4.092280    0.534439    1.031579
     21          6           0        6.554180    1.021119    0.689547
     22          7           0        1.674670    2.989628    0.596914
     23          1           0        0.680158    3.065532    0.663488
     24          1           0        2.176281    3.815008    0.336441
     25          7           0        3.624112    1.769122    0.747952
     26          6           0        2.308073    1.833399    0.845549
     27          7           0        1.509757    0.770981    1.194105
     28          1           0        0.512457    0.911955    1.243834
     29          6           0        1.969819   -0.508295    1.490152
     30          8           0        1.164702   -1.397322    1.793742
     31          6           0        3.381770   -0.592875    1.389531
     32          7           0        4.236712   -1.666577    1.597222
     33          6           0        5.426660   -1.181862    1.366377
     34          1           0        6.353621   -1.752157    1.435550
     35          1           0        7.039789    0.653349   -0.102746
     36          1           0        6.219631    1.938426    0.477676
     37          1           0        7.176625    1.066553    1.470138
     38          1           0       -4.400862    2.096056    0.687094
     39          1           0       -4.340964    2.279184    2.438530
     40          1           0       -2.913651    2.637283    1.465962
     41          1           0       -4.562819   -2.511913    2.060756
     42          6           0       -3.834022   -1.708650    1.951845
     43          8           0       -1.954498   -3.153294    2.038623
     44          6           0       -2.438789   -2.026349    1.937354
     45          1           0       -0.609698   -1.121870    1.780229
     46          7           0       -1.602882   -0.937206    1.794889
     47          8           0       -1.156594    1.275752    1.548243
     48          6           0       -1.972146    0.378686    1.669928
     49          1           0       -5.273790   -0.140305    1.837093
     50          6           0       -4.225114   -0.434567    1.832002
     51          6           0       -3.776761    1.995554    1.562578
     52          7           0       -3.334390    0.604484    1.692897
     53          1           0       -6.602274    3.146826   -1.290472
     54          1           0       -5.280141    3.188635   -0.335324
     55          1           0       -6.717987    2.723604    0.281448
     56          1           0       -2.846200   -3.225725   -1.880425
     57          1           0       -4.547032   -3.143366   -1.982896
     58          7           0       -3.680117   -2.680357   -1.794984
     59          6           0       -3.639063   -1.392832   -1.446053
     60          6           0       -4.579056    0.734479   -0.943351
     61          7           0       -3.400530    1.330116   -0.696977
     62          1           0       -1.403486    0.869779   -0.674364
     63          6           0       -2.399096    0.467038   -0.855508
     64          7           0       -2.438172   -0.822906   -1.204950
     65          1           0       -7.787351    0.476731   -1.247631
     66          6           0       -6.711508    0.302163   -1.215720
     67          7           0       -6.134353   -0.844128   -1.481422
     68          6           0       -4.782154   -0.583876   -1.312437
     69          6           0       -6.131650    2.702051   -0.528440
     70          7           0       -5.829977    1.301499   -0.882641
 ---------------------------------------------------------------------

 SCF Done:  E(RwB97XD) =  -2048.55242194     A.U. after   16 cycles

 The electronic state is 1-A.
 Alpha  occ. eigenvalues --  -19.25029 -19.21078 -19.20738 -14.53051 -14.51189
 Alpha  occ. eigenvalues --  -14.49344 -14.49233 -14.48250 -14.47019 -14.46964
 Alpha  occ. eigenvalues --  -14.46719 -14.45586 -14.44544 -14.44077 -14.42929
 Alpha  occ. eigenvalues --  -14.41670 -14.41604 -14.41488 -14.41049 -14.40634
 Alpha  occ. eigenvalues --  -10.44550 -10.41114 -10.40110 -10.39183 -10.38290
 Alpha  occ. eigenvalues --  -10.38174 -10.37402 -10.36869 -10.35840 -10.35836
 Alpha  occ. eigenvalues --  -10.34737 -10.34522 -10.34514 -10.33895 -10.33755
 Alpha  occ. eigenvalues --  -10.32952 -10.32901 -10.32873 -10.30997 -10.30482
 Alpha  occ. eigenvalues --  -10.29995 -10.28896 -10.28409  -1.18775  -1.15704
 Alpha  occ. eigenvalues --   -1.13776  -1.12130  -1.11916  -1.11022  -1.09675
 Alpha  occ. eigenvalues --   -1.09216  -1.08368  -1.05533  -1.05142  -1.01622
 Alpha  occ. eigenvalues --   -1.01400  -1.01246  -1.00368  -0.99028  -0.98200
 Alpha  occ. eigenvalues --   -0.97294  -0.96841  -0.93243  -0.90065  -0.88028
 Alpha  occ. eigenvalues --   -0.87933  -0.86638  -0.84296  -0.83804  -0.82503
 Alpha  occ. eigenvalues --   -0.81605  -0.77999  -0.77356  -0.75399  -0.75173
 Alpha  occ. eigenvalues --   -0.74113  -0.73466  -0.72475  -0.71712  -0.70773
 Alpha  occ. eigenvalues --   -0.68707  -0.67343  -0.67268  -0.65744  -0.65609
 Alpha  occ. eigenvalues --   -0.64671  -0.63682  -0.63216  -0.62867  -0.62624
 Alpha  occ. eigenvalues --   -0.62219  -0.61908  -0.61009  -0.60802  -0.59964
 Alpha  occ. eigenvalues --   -0.59252  -0.59023  -0.58652  -0.58176  -0.56662
 Alpha  occ. eigenvalues --   -0.56576  -0.56223  -0.55701  -0.54621  -0.54427
 Alpha  occ. eigenvalues --   -0.53960  -0.53800  -0.53341  -0.52977  -0.52550
 Alpha  occ. eigenvalues --   -0.52404  -0.52093  -0.51425  -0.50918  -0.50493
 Alpha  occ. eigenvalues --   -0.50393  -0.50017  -0.49444  -0.49174  -0.49137
 Alpha  occ. eigenvalues --   -0.48670  -0.48299  -0.47947  -0.47474  -0.46991
 Alpha  occ. eigenvalues --   -0.46892  -0.46015  -0.44018  -0.42993  -0.42251
 Alpha  occ. eigenvalues --   -0.40709  -0.40351  -0.38976  -0.38588  -0.37988
 Alpha  occ. eigenvalues --   -0.37728  -0.37616  -0.36442  -0.35558  -0.35155
 Alpha  occ. eigenvalues --   -0.34783  -0.34712  -0.33851  -0.33530  -0.32944
 Alpha  occ. eigenvalues --   -0.32365  -0.32187  -0.31976  -0.31781  -0.30684
 Alpha  occ. eigenvalues --   -0.29152  -0.29097  -0.27918  -0.23415
 Alpha virt. eigenvalues --    0.03233   0.03978   0.06052   0.06357   0.07159
 Alpha virt. eigenvalues --    0.09568   0.10088   0.10723   0.11449   0.12215
 Alpha virt. eigenvalues --    0.12469   0.13560   0.13970   0.14754   0.15094

 Mulliken charges:
               1
     1  N   -0.291239
     2  C    0.208454
     3  C    0.075763
     4  N   -0.244077
     5  C    0.133729
     6  H    0.024587
     7  N   -0.269740
     8  C    0.117307
     9  H   -0.004653
    10  N   -0.250700
    11  C    0.194180
    12  C    0.053090
    13  N   -0.048179
    14  H    0.110080
    15  H    0.084124
    16  H    0.014118
    17  H    0.020897
    18  H    0.018101
    19  N   -0.303298
    20  C    0.198287
    21  C    0.215338
    22  N   -0.078706
    23  H    0.123438
    24  H    0.125025
    25  N   -0.223178
    26  C    0.113923
    27  N   -0.081516
    28  H    0.120247
    29  C    0.161850
    30  O   -0.317486
    31  C    0.022816
    32  N   -0.208792
    33  C    0.102009
    34  H    0.021155
    35  H   -0.013100
    36  H    0.032534
    37  H    0.013082
    38  H    0.010579
    39  H    0.032122
    40  H    0.069773
    41  H    0.023313
    42  C   -0.099086
    43  O   -0.270831
    44  C    0.174818
    45  H    0.128462
    46  N   -0.105580
    47  O   -0.340751
    48  C    0.289626
    49  H    0.040552
    50  C    0.159162
    51  C    0.098109
    52  N   -0.261856
    53  H    0.031656
    54  H    0.056450
    55  H    0.026040
    56  H    0.123352
    57  H    0.121302
    58  N   -0.062506
    59  C    0.121474
    60  C    0.232364
    61  N   -0.299922
    62  H    0.028247
    63  C    0.174899
    64  N   -0.307267
    65  H    0.039588
    66  C    0.133300
    67  N   -0.252593
    68  C    0.040042
    69  C    0.195173
    70  N   -0.319485
 Sum of Mulliken charges =  -0.00000

 Dipole moment (field-independent basis, Debye):
    X=             -4.4538    Y=              8.0021    Z=             -2.6948  Tot=              9.5463
 Quadrupole moment (field-independent basis, Debye-Ang):
   XX=           -144.8750   YY=           -237.0825   ZZ=           -257.2253
   XY=             -7.1574   XZ=             -7.3914   YZ=             20.0720

 Normal termination of Gaussian 16 at Thu Jan 25 16:51:59 2018.
