 Gaussian 16, Revision A.03,
 Gaussian 16:  EM64L-G16RevA.03 25-Dec-2016

 ---------------------------------------
 #p wb97xd/cc-pvdz sp scf=(maxcycles=20)
 ---------------------------------------

 ------------------
 Base pair stacking
 ------------------
 Symbolic Z-matrix:
 Charge =  0 Multiplicity = 1

                         Standard orientation:
 ---------------------------------------------------------------------
 Center     Atomic      Atomic             Coordinates (Angstroms)
 Number     Number       Type             X           Y           Z
 ---------------------------------------------------------------------
      1          7           0        5.685796   -1.463311   -0.645122
      2          6           0        6.936804   -1.096232   -1.336670
      3          6           0        3.564880   -1.752920   -0.140000
      4          7           0        4.291092   -2.270012    0.922985
      5          6           0        5.539802   -2.074835    0.576129
      6          1           0        6.402529   -2.360016    1.178891
      7          7           0        1.790741   -1.084844   -1.543237
      8          6           0        2.727206   -0.645731   -2.390464
      9          1           0        2.350117   -0.195175   -3.307565
     10          7           0        4.053305   -0.679468   -2.275470
     11          6           0        4.410892   -1.252133   -1.114176
     12          6           0        2.182755   -1.656130   -0.383478
     13          7           0        1.249440   -2.095072    0.463537
     14          1           0        1.493923   -2.524540    1.333604
     15          1           0        0.274580   -2.009644    0.257408
     16          1           0        7.483530   -1.917950   -1.498066
     17          1           0        6.720410   -0.663882   -2.211518
     18          1           0        7.457770   -0.457178   -0.770796
     19          7           0        4.552768    1.562825    0.766421
     20          6           0        3.234516    1.757536    0.431225
     21          6           0        5.711140    2.082114    0.011965
     22          7           0        0.837931    3.106385   -1.689801
     23          1           0       -0.159223    3.130190   -1.755746
     24          1           0        1.351333    3.585391   -2.402319
     25          7           0        2.779613    2.450389   -0.635107
     26          6           0        1.459624    2.461329   -0.691139
     27          7           0        0.645591    1.841792    0.225939
     28          1           0       -0.353584    1.902543    0.103810
     29          6           0        1.091822    1.123420    1.330778
     30          8           0        0.273066    0.602328    2.098128
     31          6           0        2.507820    1.102798    1.404375
     32          7           0        3.352838    0.508989    2.331863
     33          6           0        4.552918    0.807709    1.913785
     34          1           0        5.476310    0.501500    2.406604
     35          1           0        6.278595    1.319727   -0.297191
     36          1           0        5.386489    2.597124   -0.780266
     37          1           0        6.251821    2.682794    0.599888
     38          1           0       -5.202995    2.032812   -1.419028
     39          1           0       -5.320886    3.337636   -0.240808
     40          1           0       -3.808782    3.067614   -1.107993
     41          1           0       -5.436162   -0.491071    2.670262
     42          6           0       -4.711560    0.089790    2.099487
     43          8           0       -2.829874   -0.780873    3.251993
     44          6           0       -3.317496   -0.048122    2.391714
     45          1           0       -1.494834    0.660932    1.788845
     46          7           0       -2.487022    0.731164    1.611791
     47          8           0       -2.049666    2.246251   -0.022344
     48          6           0       -2.860535    1.597468    0.615025
     49          1           0       -6.154698    1.067781    0.872004
     50          6           0       -5.106697    0.926741    1.133055
     51          6           0       -4.668081    2.588245   -0.663089
     52          7           0       -4.221309    1.675278    0.392679
     53          1           0       -5.752135   -0.290566   -3.814012
     54          1           0       -4.479222    0.663285   -3.450731
     55          1           0       -5.945654    0.979499   -2.807570
     56          1           0       -1.966679   -3.174559    1.879709
     57          1           0       -3.660353   -3.314366    1.731357
     58          7           0       -2.804210   -2.919257    1.396490
     59          6           0       -2.781524   -2.088921    0.351883
     60          6           0       -3.746943   -0.831160   -1.422303
     61          7           0       -2.582571   -0.315702   -1.850064
     62          1           0       -0.588795   -0.384738   -1.380284
     63          6           0       -1.573860   -0.755771   -1.100567
     64          7           0       -1.594543   -1.587430   -0.053900
     65          1           0       -6.935920   -1.359805   -1.366364
     66          6           0       -5.862867   -1.349908   -1.172963
     67          7           0       -5.272362   -2.019650   -0.213574
     68          6           0       -3.930444   -1.699607   -0.360395
     69          6           0       -5.319701    0.254797   -3.095973
     70          7           0       -4.999745   -0.609199   -1.943084
 ---------------------------------------------------------------------

 SCF Done:  E(RwB97XD) =  -2048.74683102     A.U. after   15 cycles

 The electronic state is 1-A.
 Alpha  occ. eigenvalues --  -19.25291 -19.21628 -19.20575 -14.52090 -14.52075
 Alpha  occ. eigenvalues --  -14.49546 -14.48879 -14.47397 -14.46810 -14.46651
 Alpha  occ. eigenvalues --  -14.46576 -14.44740 -14.43706 -14.43462 -14.42765
 Alpha  occ. eigenvalues --  -14.41994 -14.41916 -14.41489 -14.40866 -14.40789
 Alpha  occ. eigenvalues --  -10.44992 -10.41124 -10.39685 -10.38918 -10.38210
 Alpha  occ. eigenvalues --  -10.37434 -10.37121 -10.36660 -10.36072 -10.35228
 Alpha  occ. eigenvalues --  -10.35170 -10.34683 -10.34326 -10.34059 -10.33998
 Alpha  occ. eigenvalues --  -10.33715 -10.33352 -10.31976 -10.31943 -10.31118
 Alpha  occ. eigenvalues --  -10.30452 -10.29160 -10.28080  -1.18956  -1.14710
 Alpha  occ. eigenvalues --   -1.13150  -1.12698  -1.12076  -1.10594  -1.08928
 Alpha  occ. eigenvalues --   -1.08493  -1.08380  -1.05658  -1.03875  -1.02134
 Alpha  occ. eigenvalues --   -1.01028  -1.00384  -0.99651  -0.98460  -0.97679
 Alpha  occ. eigenvalues --   -0.96593  -0.96033  -0.93290  -0.90522  -0.87164
 Alpha  occ. eigenvalues --   -0.85681  -0.84737  -0.84097  -0.83444  -0.83156
 Alpha  occ. eigenvalues --   -0.82551  -0.78434  -0.76325  -0.74611  -0.74143
 Alpha  occ. eigenvalues --   -0.73572  -0.73537  -0.72955  -0.71687  -0.69695
 Alpha  occ. eigenvalues --   -0.67326  -0.66963  -0.66166  -0.66006  -0.64327
 Alpha  occ. eigenvalues --   -0.63655  -0.63548  -0.63278  -0.62538  -0.61686
 Alpha  occ. eigenvalues --   -0.61427  -0.60888  -0.59842  -0.59131  -0.58854
 Alpha  occ. eigenvalues --   -0.58451  -0.58277  -0.58125  -0.57191  -0.56041
 Alpha  occ. eigenvalues --   -0.55835  -0.55622  -0.55223  -0.54925  -0.54111
 Alpha  occ. eigenvalues --   -0.53767  -0.53551  -0.53188  -0.52909  -0.52537
 Alpha  occ. eigenvalues --   -0.52366  -0.52201  -0.51606  -0.51400  -0.50909
 Alpha  occ. eigenvalues --   -0.50145  -0.49874  -0.49451  -0.49243  -0.49106
 Alpha  occ. eigenvalues --   -0.48729  -0.48273  -0.47989  -0.47665  -0.47509
 Alpha  occ. eigenvalues --   -0.47260  -0.46179  -0.45258  -0.43376  -0.42940
 Alpha  occ. eigenvalues --   -0.41677  -0.40106  -0.39015  -0.37736  -0.37548
 Alpha  occ. eigenvalues --   -0.37148  -0.37017  -0.36828  -0.35872  -0.34527
 Alpha  occ. eigenvalues --   -0.34250  -0.33987  -0.33595  -0.33577  -0.32958
 Alpha  occ. eigenvalues --   -0.32580  -0.32384  -0.31850  -0.31565  -0.31073
 Alpha  occ. eigenvalues --   -0.30973  -0.28920  -0.26815  -0.24971
 Alpha virt. eigenvalues --    0.03319   0.04528   0.07127   0.07803   0.08888
 Alpha virt. eigenvalues --    0.09313   0.09791   0.10375   0.10898   0.12068
 Alpha virt. eigenvalues --    0.13060   0.13977   0.14304   0.14698   0.14883

 Mulliken charges:
               1
     1  N   -0.305726
     2  C    0.179312
     3  C    0.046868
     4  N   -0.235887
     5  C    0.114291
     6  H    0.025407
     7  N   -0.288686
     8  C    0.140234
     9  H    0.011317
    10  N   -0.283346
    11  C    0.233431
    12  C    0.083012
    13  N   -0.039979
    14  H    0.113547
    15  H    0.089836
    16  H    0.028122
    17  H    0.035207
    18  H    0.026784
    19  N   -0.298926
    20  C    0.248023
    21  C    0.197455
    22  N   -0.123010
    23  H    0.117587
    24  H    0.118447
    25  N   -0.304134
    26  C    0.242748
    27  N   -0.141387
    28  H    0.116941
    29  C    0.183584
    30  O   -0.326535
    31  C   -0.019723
    32  N   -0.215227
    33  C    0.127941
    34  H    0.018795
    35  H   -0.011658
    36  H    0.035528
    37  H    0.025748
    38  H    0.020594
    39  H    0.060141
    40  H    0.079879
    41  H    0.022654
    42  C   -0.069924
    43  O   -0.275409
    44  C    0.151789
    45  H    0.132602
    46  N   -0.110852
    47  O   -0.346567
    48  C    0.337294
    49  H    0.038503
    50  C    0.160290
    51  C    0.052130
    52  N   -0.273569
    53  H    0.032821
    54  H    0.040025
    55  H    0.030841
    56  H    0.122374
    57  H    0.116574
    58  N   -0.028124
    59  C    0.079803
    60  C    0.227162
    61  N   -0.265100
    62  H    0.026206
    63  C    0.155513
    64  N   -0.293647
    65  H    0.033315
    66  C    0.115139
    67  N   -0.244926
    68  C    0.031863
    69  C    0.181607
    70  N   -0.306941
 Sum of Mulliken charges =  -0.00000

 Dipole moment (field-independent basis, Debye):
    X=             -4.1523    Y=              3.8247    Z=             -6.5084  Tot=              8.6156
 Quadrupole moment (field-independent basis, Debye-Ang):
   XX=           -145.7129   YY=           -229.0245   ZZ=           -256.6242
   XY=             -8.4719   XZ=             13.9045   YZ=            -12.7745

 Normal termination of Gaussian 16 at Thu Jan 25 19:52:48 2018.
