 Gaussian 16, Revision A.03,
 Gaussian 16:  EM64L-G16RevA.03 25-Dec-2016

 ---------------------------------------
 #p wb97xd/cc-pvdz sp scf=(maxcycles=20)
 ---------------------------------------

 ------------------
 Base pair stacking
 ------------------
 Symbolic Z-matrix:
 Charge =  0 Multiplicity = 1

                         Standard orientation:
 ---------------------------------------------------------------------
 Center     Atomic      Atomic             Coordinates (Angstroms)
 Number     Number       Type             X           Y           Z
 ---------------------------------------------------------------------
      1          7           0        5.385697   -1.653683   -0.658234
      2          6           0        6.635025   -1.368647   -1.390316
      3          6           0        3.266052   -1.847801   -0.104409
      4          7           0        3.994756   -2.316840    0.978968
      5          6           0        5.242601   -2.181120    0.601950
      6          1           0        6.106726   -2.452352    1.209129
      7          7           0        1.488651   -1.219112   -1.521645
      8          6           0        2.423077   -0.862945   -2.409112
      9          1           0        2.043829   -0.461185   -3.347741
     10          7           0        3.749403   -0.928245   -2.311639
     11          6           0        4.109727   -1.435580   -1.121180
     12          6           0        1.883388   -1.726182   -0.333311
     13          7           0        0.952121   -2.082285    0.553873
     14          1           0        1.198646   -2.462109    1.446156
     15          1           0       -0.023193   -1.981596    0.356989
     16          1           0        7.155434   -2.214750   -1.506347
     17          1           0        6.416566   -0.987069   -2.287982
     18          1           0        7.183218   -0.710255   -0.874580
     19          7           0        4.858604    1.459082    0.623264
     20          6           0        3.541065    1.670613    0.295581
     21          6           0        6.018630    1.894641   -0.180053
     22          7           0        1.149021    2.950684   -1.872678
     23          1           0        0.151991    2.999544   -1.925382
     24          1           0        1.663974    3.367727   -2.622084
     25          7           0        3.088453    2.306785   -0.806454
     26          6           0        1.768571    2.352960   -0.843699
     27          7           0        0.952539    1.817678    0.123301
     28          1           0       -0.046399    1.899849    0.012183
     29          6           0        1.396385    1.158781    1.265540
     30          8           0        0.575944    0.712247    2.076848
     31          6           0        2.812239    1.101255    1.319520
     32          7           0        3.655264    0.543503    2.270898
     33          6           0        4.856279    0.779382    1.816852
     34          1           0        5.778611    0.478351    2.314802
     35          1           0        6.559000    1.097643   -0.447654
     36          1           0        5.695689    2.367148   -0.999022
     37          1           0        6.585812    2.515597    0.359877
     38          1           0       -4.914661    2.074891   -1.444550
     39          1           0       -4.975931    3.455438   -0.351405
     40          1           0       -3.486660    3.086027   -1.221446
     41          1           0       -5.151807   -0.173776    2.802082
     42          6           0       -4.420530    0.347743    2.184428
     43          8           0       -2.545534   -0.502253    3.363000
     44          6           0       -3.026306    0.187879    2.464465
     45          1           0       -1.194449    0.802910    1.790412
     46          7           0       -2.187033    0.890805    1.623768
     47          8           0       -1.733873    2.284535   -0.110989
     48          6           0       -2.552200    1.702066    0.578750
     49          1           0       -5.855394    1.287087    0.917702
     50          6           0       -4.807651    1.132300    1.171897
     51          6           0       -4.351759    2.661641   -0.733973
     52          7           0       -3.913714    1.805473    0.371853
     53          1           0       -6.065128   -0.350406   -3.728009
     54          1           0       -4.759789    0.586891   -3.445775
     55          1           0       -6.205805    0.986700   -2.802913
     56          1           0       -2.269516   -2.973687    2.083802
     57          1           0       -3.968700   -3.072828    1.969647
     58          7           0       -3.107339   -2.725361    1.597458
     59          6           0       -3.078335   -1.964708    0.501217
     60          6           0       -4.036830   -0.795371   -1.336082
     61          7           0       -2.865522   -0.342871   -1.813260
     62          1           0       -0.867007   -0.440291   -1.369314
     63          6           0       -1.857468   -0.763489   -1.051807
     64          7           0       -1.884455   -1.525390    0.046530
     65          1           0       -7.238180   -1.225284   -1.199346
     66          6           0       -6.162228   -1.234589   -1.022755
     67          7           0       -5.575209   -1.858553   -0.030910
     68          6           0       -4.227349   -1.588200   -0.217758
     69          6           0       -5.605555    0.226894   -3.053089
     70          7           0       -5.291259   -0.570471   -1.851668
 ---------------------------------------------------------------------

 SCF Done:  E(RwB97XD) =  -2048.74313753     A.U. after   15 cycles

 The electronic state is 1-A.
 Alpha  occ. eigenvalues --  -19.25369 -19.21612 -19.20579 -14.52231 -14.52021
 Alpha  occ. eigenvalues --  -14.49362 -14.49003 -14.47357 -14.46962 -14.46804
 Alpha  occ. eigenvalues --  -14.46606 -14.44897 -14.43891 -14.43655 -14.42738
 Alpha  occ. eigenvalues --  -14.41952 -14.41761 -14.41423 -14.40897 -14.40870
 Alpha  occ. eigenvalues --  -10.44985 -10.41151 -10.39700 -10.39122 -10.38231
 Alpha  occ. eigenvalues --  -10.37582 -10.37145 -10.36724 -10.36003 -10.35350
 Alpha  occ. eigenvalues --  -10.35035 -10.34498 -10.34409 -10.34049 -10.33910
 Alpha  occ. eigenvalues --  -10.33652 -10.33467 -10.32058 -10.31890 -10.31328
 Alpha  occ. eigenvalues --  -10.30425 -10.29044 -10.28133  -1.18979  -1.14848
 Alpha  occ. eigenvalues --   -1.13193  -1.12692  -1.11907  -1.10686  -1.08898
 Alpha  occ. eigenvalues --   -1.08612  -1.08520  -1.05611  -1.04094  -1.02104
 Alpha  occ. eigenvalues --   -1.00956  -1.00532  -0.99682  -0.98517  -0.97546
 Alpha  occ. eigenvalues --   -0.96693  -0.96236  -0.93253  -0.90527  -0.87258
 Alpha  occ. eigenvalues --   -0.85748  -0.84701  -0.84153  -0.83358  -0.83154
 Alpha  occ. eigenvalues --   -0.82601  -0.78434  -0.76477  -0.74703  -0.74327
 Alpha  occ. eigenvalues --   -0.73588  -0.73467  -0.72915  -0.71597  -0.69840
 Alpha  occ. eigenvalues --   -0.67401  -0.66870  -0.66211  -0.66109  -0.64417
 Alpha  occ. eigenvalues --   -0.63683  -0.63629  -0.63231  -0.62591  -0.61751
 Alpha  occ. eigenvalues --   -0.61182  -0.60826  -0.59974  -0.59146  -0.59005
 Alpha  occ. eigenvalues --   -0.58682  -0.58416  -0.58324  -0.57123  -0.55978
 Alpha  occ. eigenvalues --   -0.55736  -0.55609  -0.55111  -0.54870  -0.54151
 Alpha  occ. eigenvalues --   -0.54012  -0.53589  -0.53325  -0.53015  -0.52492
 Alpha  occ. eigenvalues --   -0.52396  -0.52316  -0.51900  -0.51246  -0.50842
 Alpha  occ. eigenvalues --   -0.50214  -0.49889  -0.49410  -0.49270  -0.49094
 Alpha  occ. eigenvalues --   -0.48820  -0.48313  -0.47903  -0.47708  -0.47510
 Alpha  occ. eigenvalues --   -0.47270  -0.46239  -0.44978  -0.43709  -0.43277
 Alpha  occ. eigenvalues --   -0.41530  -0.40265  -0.39045  -0.37659  -0.37636
 Alpha  occ. eigenvalues --   -0.37234  -0.37071  -0.36963  -0.35876  -0.34672
 Alpha  occ. eigenvalues --   -0.34204  -0.33949  -0.33710  -0.33468  -0.32970
 Alpha  occ. eigenvalues --   -0.32616  -0.32382  -0.31866  -0.31489  -0.31226
 Alpha  occ. eigenvalues --   -0.30867  -0.29035  -0.27043  -0.24685
 Alpha virt. eigenvalues --    0.02833   0.04739   0.06878   0.07478   0.08857
 Alpha virt. eigenvalues --    0.09358   0.09870   0.10793   0.10900   0.11910
 Alpha virt. eigenvalues --    0.12747   0.13989   0.14442   0.14532   0.15237

 Mulliken charges:
               1
     1  N   -0.303872
     2  C    0.181837
     3  C    0.046868
     4  N   -0.233326
     5  C    0.118388
     6  H    0.024391
     7  N   -0.288716
     8  C    0.135200
     9  H    0.010056
    10  N   -0.280413
    11  C    0.236155
    12  C    0.079838
    13  N   -0.040460
    14  H    0.114440
    15  H    0.087275
    16  H    0.026787
    17  H    0.034607
    18  H    0.024013
    19  N   -0.299469
    20  C    0.247532
    21  C    0.196112
    22  N   -0.123483
    23  H    0.117740
    24  H    0.118857
    25  N   -0.302718
    26  C    0.241196
    27  N   -0.138299
    28  H    0.119038
    29  C    0.180309
    30  O   -0.326239
    31  C   -0.013688
    32  N   -0.211722
    33  C    0.120676
    34  H    0.018994
    35  H   -0.014248
    36  H    0.036461
    37  H    0.027350
    38  H    0.021696
    39  H    0.058222
    40  H    0.079346
    41  H    0.022620
    42  C   -0.082910
    43  O   -0.275700
    44  C    0.156671
    45  H    0.129227
    46  N   -0.104397
    47  O   -0.348281
    48  C    0.334716
    49  H    0.040890
    50  C    0.163618
    51  C    0.054838
    52  N   -0.270843
    53  H    0.034941
    54  H    0.041681
    55  H    0.032480
    56  H    0.123859
    57  H    0.116320
    58  N   -0.029347
    59  C    0.066329
    60  C    0.221558
    61  N   -0.266684
    62  H    0.024964
    63  C    0.154758
    64  N   -0.290371
    65  H    0.035241
    66  C    0.119134
    67  N   -0.247807
    68  C    0.044853
    69  C    0.179167
    70  N   -0.308252
 Sum of Mulliken charges =  -0.00000

 Dipole moment (field-independent basis, Debye):
    X=             -4.2220    Y=              3.6023    Z=             -6.7284  Tot=              8.7220
 Quadrupole moment (field-independent basis, Debye-Ang):
   XX=           -145.8668   YY=           -230.4226   ZZ=           -255.9645
   XY=             -9.0633   XZ=             10.5127   YZ=            -14.4425

 Normal termination of Gaussian 16 at Thu Jan 25 22:13:00 2018.
