 Gaussian 16, Revision A.03,
 Gaussian 16:  EM64L-G16RevA.03 25-Dec-2016

 ---------------------------------------
 #p wb97xd/cc-pvdz sp scf=(maxcycles=20)
 ---------------------------------------

 ------------------
 Base pair stacking
 ------------------
 Symbolic Z-matrix:
 Charge =  0 Multiplicity = 1

                         Standard orientation:
 ---------------------------------------------------------------------
 Center     Atomic      Atomic             Coordinates (Angstroms)
 Number     Number       Type             X           Y           Z
 ---------------------------------------------------------------------
      1          7           0        5.097405   -1.071762   -1.356062
      2          6           0        6.348996   -0.416049   -1.782154
      3          6           0        2.976251   -1.542818   -1.015299
      4          7           0        3.701128   -2.568007   -0.425161
      5          6           0        4.950033   -2.243179   -0.654077
      6          1           0        5.811922   -2.827443   -0.330470
      7          7           0        1.204010   -0.184176   -1.774379
      8          6           0        2.141291    0.623043   -2.281807
      9          1           0        1.765325    1.505897   -2.797048
     10          7           0        3.467048    0.503991   -2.248483
     11          6           0        3.823237   -0.613161   -1.593102
     12          6           0        1.594627   -1.300074   -1.120723
     13          7           0        0.660493   -2.107099   -0.613492
     14          1           0        0.903927   -2.943934   -0.121903
     15          1           0       -0.313975   -1.902860   -0.707521
     16          1           0        6.862529   -1.031574   -2.380144
     17          1           0        6.133651    0.425205   -2.277166
     18          1           0        6.902521   -0.195781   -0.978965
     19          7           0        5.146846    0.772978    1.011476
     20          6           0        3.830153    1.119351    0.825981
     21          6           0        6.303011    1.447248    0.387491
     22          7           0        1.435198    3.159290   -0.645265
     23          1           0        0.439369    3.246271   -0.644824
     24          1           0        1.947314    3.810900   -1.205498
     25          7           0        3.375027    2.125764    0.048786
     26          6           0        2.056826    2.211742    0.072819
     27          7           0        1.244656    1.376984    0.801561
     28          1           0        0.246770    1.516436    0.759946
     29          6           0        1.691152    0.334859    1.608086
     30          8           0        0.874142   -0.360101    2.224734
     31          6           0        3.105246    0.230046    1.592414
     32          7           0        3.949835   -0.656803    2.245928
     33          6           0        5.147916   -0.297426    1.872223
     34          1           0        6.070412   -0.780767    2.195720
     35          1           0        6.811537    0.792454   -0.170595
     36          1           0        5.978172    2.194619   -0.190595
     37          1           0        6.901296    1.813669    1.099246
     38          1           0       -4.643152    2.322623   -0.376469
     39          1           0       -4.636545    3.206102    1.148019
     40          1           0       -3.178817    3.149077    0.156494
     41          1           0       -4.862538   -1.322889    2.755408
     42          6           0       -4.128087   -0.627368    2.349151
     43          8           0       -2.256919   -1.892362    3.074143
     44          6           0       -2.734118   -0.909897    2.506843
     45          1           0       -0.898086   -0.131189    2.047599
     46          7           0       -1.890632    0.033842    1.956263
     47          8           0       -1.429642    1.956907    0.839800
     48          6           0       -2.251523    1.180163    1.293507
     49          1           0       -5.558444    0.743304    1.561014
     50          6           0       -4.511083    0.482684    1.707504
     51          6           0       -4.046619    2.594651    0.481556
     52          7           0       -3.613062    1.382616    1.182084
     53          1           0       -6.342472    1.873651   -2.998408
     54          1           0       -5.029576    2.452024   -2.221307
     55          1           0       -6.472311    2.401739   -1.459679
     56          1           0       -2.568269   -3.711456    0.104407
     57          1           0       -4.268209   -3.712414   -0.038133
     58          7           0       -3.404044   -3.217497   -0.135644
     59          6           0       -3.368883   -1.954922   -0.566730
     60          6           0       -4.317857    0.082807   -1.347003
     61          7           0       -3.142913    0.722540   -1.468179
     62          1           0       -1.145265    0.367628   -1.178276
     63          6           0       -2.138305   -0.074456   -1.109759
     64          7           0       -2.171478   -1.339294   -0.677733
     65          1           0       -7.522586   -0.323459   -1.476691
     66          6           0       -6.446746   -0.442768   -1.345256
     67          7           0       -5.864816   -1.537407   -0.920036
     68          6           0       -4.514803   -1.217718   -0.916466
     69          6           0       -5.878238    1.934763   -2.114811
     70          7           0       -5.570414    0.577969   -1.622511
 ---------------------------------------------------------------------

 SCF Done:  E(RwB97XD) =  -2048.69951101     A.U. after   15 cycles

 The electronic state is 1-A.
 Alpha  occ. eigenvalues --  -19.25117 -19.21338 -19.20510 -14.52735 -14.51505
 Alpha  occ. eigenvalues --  -14.49457 -14.49044 -14.47921 -14.47038 -14.46601
 Alpha  occ. eigenvalues --  -14.46527 -14.45329 -14.44266 -14.44240 -14.43069
 Alpha  occ. eigenvalues --  -14.41864 -14.41660 -14.41408 -14.41073 -14.41071
 Alpha  occ. eigenvalues --  -10.44663 -10.40896 -10.39820 -10.39394 -10.38115
 Alpha  occ. eigenvalues --  -10.37934 -10.37132 -10.37009 -10.36163 -10.35799
 Alpha  occ. eigenvalues --  -10.34673 -10.34497 -10.34340 -10.34123 -10.33965
 Alpha  occ. eigenvalues --  -10.33644 -10.33559 -10.32541 -10.31749 -10.30912
 Alpha  occ. eigenvalues --  -10.30162 -10.29145 -10.28116  -1.18758  -1.15353
 Alpha  occ. eigenvalues --   -1.13196  -1.12333  -1.12037  -1.10707  -1.09275
 Alpha  occ. eigenvalues --   -1.08576  -1.08442  -1.05818  -1.04752  -1.01777
 Alpha  occ. eigenvalues --   -1.01191  -1.01096  -0.99635  -0.98488  -0.97849
 Alpha  occ. eigenvalues --   -0.96869  -0.96672  -0.93477  -0.90237  -0.87766
 Alpha  occ. eigenvalues --   -0.86368  -0.85703  -0.83949  -0.83800  -0.82820
 Alpha  occ. eigenvalues --   -0.82218  -0.78142  -0.77031  -0.74925  -0.74732
 Alpha  occ. eigenvalues --   -0.73716  -0.73469  -0.72622  -0.71761  -0.70432
 Alpha  occ. eigenvalues --   -0.67665  -0.66993  -0.66822  -0.65859  -0.64767
 Alpha  occ. eigenvalues --   -0.64317  -0.63523  -0.63320  -0.62523  -0.61788
 Alpha  occ. eigenvalues --   -0.61713  -0.61421  -0.60767  -0.60530  -0.59651
 Alpha  occ. eigenvalues --   -0.58906  -0.58647  -0.58282  -0.57449  -0.56326
 Alpha  occ. eigenvalues --   -0.55996  -0.55630  -0.55482  -0.54253  -0.54032
 Alpha  occ. eigenvalues --   -0.53951  -0.53648  -0.53339  -0.53036  -0.52976
 Alpha  occ. eigenvalues --   -0.52526  -0.52283  -0.51375  -0.51247  -0.50652
 Alpha  occ. eigenvalues --   -0.50243  -0.49891  -0.49595  -0.49010  -0.48900
 Alpha  occ. eigenvalues --   -0.48654  -0.48116  -0.48061  -0.47887  -0.47524
 Alpha  occ. eigenvalues --   -0.47029  -0.46361  -0.44321  -0.44052  -0.43156
 Alpha  occ. eigenvalues --   -0.41347  -0.40697  -0.38830  -0.38027  -0.37769
 Alpha  occ. eigenvalues --   -0.37531  -0.37269  -0.36759  -0.35801  -0.35056
 Alpha  occ. eigenvalues --   -0.34669  -0.34427  -0.33939  -0.33755  -0.32813
 Alpha  occ. eigenvalues --   -0.32399  -0.32343  -0.31834  -0.31579  -0.31092
 Alpha  occ. eigenvalues --   -0.30239  -0.29439  -0.27645  -0.24141
 Alpha virt. eigenvalues --    0.02884   0.04602   0.06256   0.06511   0.07811
 Alpha virt. eigenvalues --    0.09841   0.10283   0.10638   0.11714   0.11939
 Alpha virt. eigenvalues --    0.12225   0.13835   0.14146   0.15029   0.15148

 Mulliken charges:
               1
     1  N   -0.302378
     2  C    0.211047
     3  C    0.068357
     4  N   -0.237994
     5  C    0.127884
     6  H    0.025550
     7  N   -0.278126
     8  C    0.126507
     9  H   -0.001824
    10  N   -0.255913
    11  C    0.215279
    12  C    0.060150
    13  N   -0.041668
    14  H    0.112648
    15  H    0.085872
    16  H    0.022609
    17  H    0.030257
    18  H    0.009718
    19  N   -0.293017
    20  C    0.220584
    21  C    0.200280
    22  N   -0.104826
    23  H    0.118611
    24  H    0.120426
    25  N   -0.265550
    26  C    0.182239
    27  N   -0.111325
    28  H    0.120543
    29  C    0.163279
    30  O   -0.321552
    31  C    0.009855
    32  N   -0.210531
    33  C    0.107373
    34  H    0.019032
    35  H   -0.024025
    36  H    0.036697
    37  H    0.023662
    38  H   -0.016500
    39  H    0.051574
    40  H    0.078363
    41  H    0.023071
    42  C   -0.096204
    43  O   -0.270545
    44  C    0.165631
    45  H    0.128126
    46  N   -0.103675
    47  O   -0.343877
    48  C    0.311496
    49  H    0.040603
    50  C    0.160950
    51  C    0.080156
    52  N   -0.263013
    53  H    0.031161
    54  H    0.049481
    55  H    0.026942
    56  H    0.123815
    57  H    0.119894
    58  N   -0.052683
    59  C    0.104250
    60  C    0.212447
    61  N   -0.273224
    62  H    0.017807
    63  C    0.169943
    64  N   -0.300263
    65  H    0.037668
    66  C    0.126651
    67  N   -0.250951
    68  C    0.050799
    69  C    0.205726
    70  N   -0.315352
 Sum of Mulliken charges =  -0.00000

 Dipole moment (field-independent basis, Debye):
    X=             -4.3000    Y=              5.7505    Z=             -5.5595  Tot=              9.0811
 Quadrupole moment (field-independent basis, Debye-Ang):
   XX=           -145.6225   YY=           -224.2467   ZZ=           -266.5118
   XY=            -11.9874   XZ=              0.7904   YZ=              2.9697

 Normal termination of Gaussian 16 at Thu Jan 25 06:49:45 2018.
