 Gaussian 16, Revision A.03,
 Gaussian 16:  EM64L-G16RevA.03 25-Dec-2016

 ---------------------------------------
 #p wb97xd/cc-pvdz sp scf=(maxcycles=20)
 ---------------------------------------

 ------------------
 Base pair stacking
 ------------------
 Symbolic Z-matrix:
 Charge =  0 Multiplicity = 1

                         Standard orientation:
 ---------------------------------------------------------------------
 Center     Atomic      Atomic             Coordinates (Angstroms)
 Number     Number       Type             X           Y           Z
 ---------------------------------------------------------------------
      1          7           0       -5.687940   -1.572995    0.526415
      2          6           0       -6.938437   -1.314251    1.266201
      3          6           0       -3.567294   -1.776398   -0.020214
      4          7           0       -4.294464   -2.142486   -1.143577
      5          6           0       -5.542973   -2.005291   -0.769282
      6          1           0       -6.406274   -2.207498   -1.403924
      7          7           0       -1.791831   -1.302874    1.458448
      8          6           0       -2.727631   -0.993004    2.361677
      9          1           0       -2.349741   -0.674185    3.332150
     10          7           0       -4.053931   -1.017712    2.246642
     11          6           0       -4.412535   -1.422856    1.017129
     12          6           0       -2.184850   -1.707065    0.230748
     13          7           0       -1.252193   -2.016830   -0.672227
     14          1           0       -1.497433   -2.320645   -1.593515
     15          1           0       -0.277090   -1.955789   -0.458732
     16          1           0       -7.480287   -2.153620    1.311524
     17          1           0       -6.721294   -1.008412    2.192710
     18          1           0       -7.464716   -0.604742    0.797554
     19          7           0       -4.549596    1.684153   -0.632305
     20          6           0       -3.230446    1.854106   -0.287317
     21          6           0       -5.705526    2.166767    0.149752
     22          7           0       -0.827567    3.073719    1.903680
     23          1           0        0.169697    3.089250    1.970548
     24          1           0       -1.338711    3.515414    2.641482
     25          7           0       -2.772300    2.485452    0.815203
     26          6           0       -1.452279    2.487185    0.871387
     27          7           0       -0.641159    1.914965   -0.078430
     28          1           0        0.358297    1.964299    0.046562
     29          6           0       -1.090744    1.260206   -1.220811
     30          8           0       -0.274442    0.778072   -2.015738
     31          6           0       -2.506823    1.250221   -1.295035
     32          7           0       -3.354621    0.711981   -2.253388
     33          6           0       -4.553287    0.992958   -1.819270
     34          1           0       -5.478101    0.718475   -2.327856
     35          1           0       -6.276514    1.391254    0.416888
     36          1           0       -5.378459    2.636152    0.968884
     37          1           0       -6.243409    2.801219   -0.404281
     38          1           0        5.208288    1.988500    1.572911
     39          1           0        5.332234    3.355272    0.467822
     40          1           0        3.818915    3.045247    1.319348
     41          1           0        5.429622   -0.308912   -2.648399
     42          6           0        4.707746    0.243210   -2.046497
     43          8           0        2.821995   -0.554330   -3.244407
     44          6           0        3.313055    0.127978   -2.345454
     45          1           0        1.493725    0.811449   -1.704194
     46          7           0        2.486233    0.867267   -1.523837
     47          8           0        2.055964    2.292702    0.190862
     48          6           0        2.863790    1.675995   -0.481268
     49          1           0        6.155448    1.145846   -0.767741
     50          6           0        5.106796    1.024186   -1.035832
     51          6           0        4.675953    2.586940    0.848644
     52          7           0        4.224914    1.735199   -0.255370
     53          1           0        5.754607   -0.794013    3.798241
     54          1           0        4.475451    0.194287    3.576598
     55          1           0        5.937975    0.606401    2.980539
     56          1           0        1.964610   -2.867449   -2.235192
     57          1           0        3.659504   -3.017166   -2.112605
     58          7           0        2.802463   -2.678120   -1.723038
     59          6           0        2.779037   -2.003589   -0.571677
     60          6           0        3.743993   -1.003202    1.359597
     61          7           0        2.578434   -0.559873    1.858935
     62          1           0        0.583431   -0.573280    1.389483
     63          6           0        1.569452   -0.895542    1.057577
     64          7           0        1.590861   -1.571104   -0.096005
     65          1           0        6.935491   -1.500547    1.221048
     66          6           0        5.861738   -1.469566    1.033876
     67          7           0        5.271428   -2.000618   -0.008822
     68          6           0        3.928365   -1.712121    0.185297
     69          6           0        5.316832   -0.155284    3.165496
     70          7           0        4.997413   -0.849815    1.903114
 ---------------------------------------------------------------------

 SCF Done:  E(RwB97XD) =  -2048.74246619     A.U. after   15 cycles

 The electronic state is 1-A.
 Alpha  occ. eigenvalues --  -19.25384 -19.21670 -19.20638 -14.52151 -14.51950
 Alpha  occ. eigenvalues --  -14.49455 -14.48914 -14.47453 -14.46882 -14.46630
 Alpha  occ. eigenvalues --  -14.46294 -14.44625 -14.43580 -14.43280 -14.42628
 Alpha  occ. eigenvalues --  -14.41980 -14.41897 -14.41413 -14.40802 -14.40768
 Alpha  occ. eigenvalues --  -10.45065 -10.41189 -10.39711 -10.38687 -10.38269
 Alpha  occ. eigenvalues --  -10.37325 -10.37110 -10.36538 -10.35965 -10.35279
 Alpha  occ. eigenvalues --  -10.35097 -10.34596 -10.34373 -10.33978 -10.33842
 Alpha  occ. eigenvalues --  -10.33627 -10.33366 -10.31865 -10.31803 -10.31175
 Alpha  occ. eigenvalues --  -10.30463 -10.29078 -10.28123  -1.19028  -1.14583
 Alpha  occ. eigenvalues --   -1.13205  -1.12845  -1.11985  -1.10637  -1.08992
 Alpha  occ. eigenvalues --   -1.08552  -1.08194  -1.05560  -1.03692  -1.02208
 Alpha  occ. eigenvalues --   -1.00924  -1.00226  -0.99711  -0.98515  -0.97571
 Alpha  occ. eigenvalues --   -0.96634  -0.95855  -0.93188  -0.90556  -0.87005
 Alpha  occ. eigenvalues --   -0.85490  -0.84630  -0.84140  -0.83504  -0.83040
 Alpha  occ. eigenvalues --   -0.82604  -0.78482  -0.76174  -0.74654  -0.74000
 Alpha  occ. eigenvalues --   -0.73593  -0.73475  -0.73007  -0.71596  -0.69521
 Alpha  occ. eigenvalues --   -0.67373  -0.66863  -0.66182  -0.65861  -0.64362
 Alpha  occ. eigenvalues --   -0.63667  -0.63407  -0.63140  -0.62588  -0.61733
 Alpha  occ. eigenvalues --   -0.61063  -0.60775  -0.59671  -0.59158  -0.58668
 Alpha  occ. eigenvalues --   -0.58349  -0.58214  -0.58098  -0.57082  -0.56073
 Alpha  occ. eigenvalues --   -0.55859  -0.55707  -0.55244  -0.54763  -0.54170
 Alpha  occ. eigenvalues --   -0.53742  -0.53613  -0.53045  -0.52961  -0.52427
 Alpha  occ. eigenvalues --   -0.52308  -0.52103  -0.51814  -0.51377  -0.50815
 Alpha  occ. eigenvalues --   -0.50238  -0.49794  -0.49628  -0.49185  -0.49093
 Alpha  occ. eigenvalues --   -0.48800  -0.48337  -0.47791  -0.47643  -0.47480
 Alpha  occ. eigenvalues --   -0.47333  -0.46176  -0.45211  -0.43060  -0.42999
 Alpha  occ. eigenvalues --   -0.41591  -0.39985  -0.39096  -0.37675  -0.37626
 Alpha  occ. eigenvalues --   -0.37205  -0.37076  -0.36712  -0.35822  -0.34503
 Alpha  occ. eigenvalues --   -0.34140  -0.33851  -0.33526  -0.33482  -0.33050
 Alpha  occ. eigenvalues --   -0.32652  -0.32435  -0.31890  -0.31466  -0.31056
 Alpha  occ. eigenvalues --   -0.30880  -0.28543  -0.26699  -0.25029
 Alpha virt. eigenvalues --    0.03174   0.04593   0.07195   0.07951   0.08933
 Alpha virt. eigenvalues --    0.09302   0.09739   0.10479   0.11008   0.11861
 Alpha virt. eigenvalues --    0.13045   0.14004   0.14182   0.14686   0.14856

 Mulliken charges:
               1
     1  N   -0.306146
     2  C    0.178462
     3  C    0.042614
     4  N   -0.234725
     5  C    0.113269
     6  H    0.024946
     7  N   -0.290626
     8  C    0.139565
     9  H    0.012126
    10  N   -0.286366
    11  C    0.237809
    12  C    0.086072
    13  N   -0.039737
    14  H    0.114150
    15  H    0.090418
    16  H    0.028560
    17  H    0.035333
    18  H    0.023606
    19  N   -0.301832
    20  C    0.253149
    21  C    0.191484
    22  N   -0.124110
    23  H    0.117507
    24  H    0.118780
    25  N   -0.307733
    26  C    0.246332
    27  N   -0.144261
    28  H    0.117888
    29  C    0.186917
    30  O   -0.327704
    31  C   -0.023556
    32  N   -0.215127
    33  C    0.129544
    34  H    0.019023
    35  H    0.001034
    36  H    0.034247
    37  H    0.025427
    38  H    0.030872
    39  H    0.060596
    40  H    0.079017
    41  H    0.021915
    42  C   -0.065819
    43  O   -0.277378
    44  C    0.146826
    45  H    0.132789
    46  N   -0.109931
    47  O   -0.348567
    48  C    0.340324
    49  H    0.038711
    50  C    0.162944
    51  C    0.049520
    52  N   -0.276188
    53  H    0.034031
    54  H    0.040402
    55  H    0.027584
    56  H    0.122355
    57  H    0.114716
    58  N   -0.017280
    59  C    0.068911
    60  C    0.232310
    61  N   -0.267619
    62  H    0.026998
    63  C    0.155687
    64  N   -0.293645
    65  H    0.032696
    66  C    0.114733
    67  N   -0.244978
    68  C    0.029489
    69  C    0.177882
    70  N   -0.306243
 Sum of Mulliken charges =  -0.00000

 Dipole moment (field-independent basis, Debye):
    X=              4.1891    Y=              3.6320    Z=              6.5244  Tot=              8.5620
 Quadrupole moment (field-independent basis, Debye-Ang):
   XX=           -145.5739   YY=           -231.5292   ZZ=           -253.1562
   XY=              6.9922   XZ=             14.4927   YZ=             14.6486

 Normal termination of Gaussian 16 at Thu Jan 25 05:32:56 2018.
