 Gaussian 16, Revision A.03,
 Gaussian 16:  EM64L-G16RevA.03 25-Dec-2016

 ---------------------------------------
 #p wb97xd/cc-pvdz sp scf=(maxcycles=20)
 ---------------------------------------

 ------------------
 Base pair stacking
 ------------------
 Symbolic Z-matrix:
 Charge =  0 Multiplicity = 1

                         Standard orientation:
 ---------------------------------------------------------------------
 Center     Atomic      Atomic             Coordinates (Angstroms)
 Number     Number       Type             X           Y           Z
 ---------------------------------------------------------------------
      1          7           0        6.255156   -0.972549   -0.626676
      2          6           0        7.499735   -0.367517   -1.139458
      3          6           0        4.142987   -1.497696   -0.309954
      4          7           0        4.870147   -2.245063    0.605147
      5          6           0        6.113537   -1.898775    0.377707
      6          1           0        6.975281   -2.291480    0.918202
      7          7           0        2.370365   -0.567312   -1.557007
      8          6           0        3.300966    0.132824   -2.213790
      9          1           0        2.922232    0.794822   -2.991335
     10          7           0        4.622962    0.137966   -2.055033
     11          6           0        4.983044   -0.708564   -1.076183
     12          6           0        2.764739   -1.410327   -0.577788
     13          7           0        1.837275   -2.110083    0.078969
     14          1           0        2.083700   -2.745939    0.811213
     15          1           0        0.865044   -2.022651   -0.138432
     16          1           0        8.100231   -1.085296   -1.492120
     17          1           0        7.281289    0.273862   -1.874324
     18          1           0        7.964616    0.120441   -0.400684
     19          7           0        3.943411    1.523535    1.167883
     20          6           0        2.627541    1.721061    0.825064
     21          6           0        5.096481    2.223594    0.567025
     22          7           0        0.230657    3.339096   -1.098138
     23          1           0       -0.764124    3.332263   -1.196112
     24          1           0        0.740551    3.964292   -1.689623
     25          7           0        2.170544    2.580958   -0.110772
     26          6           0        0.853798    2.545882   -0.213598
     27          7           0        0.044675    1.731716    0.541360
     28          1           0       -0.952290    1.771545    0.394979
     29          6           0        0.493138    0.839195    1.509955
     30          8           0       -0.321166    0.149435    2.135957
     31          6           0        1.905692    0.865590    1.631853
     32          7           0        2.751371    0.145490    2.464434
     33          6           0        3.947066    0.567983    2.154579
     34          1           0        4.869573    0.214733    2.616606
     35          1           0        5.709323    1.557333    0.143565
     36          1           0        4.770237    2.863277   -0.127696
     37          1           0        5.589745    2.726314    1.276089
     38          1           0       -5.755821    1.977200   -1.259275
     39          1           0       -5.971710    3.032592    0.135068
     40          1           0       -4.423581    2.994146   -0.709430
     41          1           0       -5.984298   -1.274101    2.279566
     42          6           0       -5.272657   -0.566430    1.854114
     43          8           0       -3.385006   -1.556095    2.895470
     44          6           0       -3.882626   -0.696943    2.168129
     45          1           0       -2.080042    0.189364    1.776377
     46          7           0       -3.068907    0.249064    1.578080
     47          8           0       -2.658758    2.060126    0.270785
     48          6           0       -3.455144    1.269672    0.745782
     49          1           0       -6.725530    0.561292    0.775583
     50          6           0       -5.679941    0.418775    1.045345
     51          6           0       -5.270987    2.403858   -0.393848
     52          7           0       -4.811044    1.329563    0.490504
     53          1           0       -5.141790    0.420401   -3.853586
     54          1           0       -3.940469    1.304796   -3.192704
     55          1           0       -5.440718    1.358499   -2.552042
     56          1           0       -1.344032   -3.698049    1.012716
     57          1           0       -3.021173   -3.880024    0.759355
     58          7           0       -2.182081   -3.365152    0.580297
     59          6           0       -2.181823   -2.282849   -0.200603
     60          6           0       -3.173668   -0.643257   -1.611169
     61          7           0       -2.031908    0.028441   -1.833976
     62          1           0       -0.051339   -0.061850   -1.314560
     63          6           0       -1.019017   -0.545331   -1.187641
     64          7           0       -1.017254   -1.629352   -0.405040
     65          1           0       -6.324383   -1.331820   -1.836968
     66          6           0       -5.259705   -1.319097   -1.601958
     67          7           0       -4.655707   -2.192172   -0.833440
     68          6           0       -3.332507   -1.775215   -0.830816
     69          6           0       -4.763655    0.772485   -2.997405
     70          7           0       -4.422953   -0.353745   -2.106617
 ---------------------------------------------------------------------

 SCF Done:  E(RwB97XD) =  -2048.74145075     A.U. after   15 cycles

 The electronic state is 1-A.
 Alpha  occ. eigenvalues --  -19.25458 -19.21860 -19.20604 -14.52269 -14.51704
 Alpha  occ. eigenvalues --  -14.49987 -14.48560 -14.47489 -14.46791 -14.46558
 Alpha  occ. eigenvalues --  -14.46512 -14.44393 -14.43364 -14.43200 -14.42945
 Alpha  occ. eigenvalues --  -14.42535 -14.41833 -14.41816 -14.41041 -14.40681
 Alpha  occ. eigenvalues --  -10.45162 -10.41060 -10.39842 -10.38671 -10.38145
 Alpha  occ. eigenvalues --  -10.37362 -10.37016 -10.36325 -10.36219 -10.35461
 Alpha  occ. eigenvalues --  -10.35193 -10.34858 -10.34424 -10.34159 -10.33938
 Alpha  occ. eigenvalues --  -10.33550 -10.33151 -10.32147 -10.31607 -10.30659
 Alpha  occ. eigenvalues --  -10.30488 -10.29563 -10.27951  -1.19149  -1.14339
 Alpha  occ. eigenvalues --   -1.13111  -1.12797  -1.12529  -1.10443  -1.09154
 Alpha  occ. eigenvalues --   -1.08451  -1.08056  -1.05915  -1.03572  -1.02286
 Alpha  occ. eigenvalues --   -1.01345  -1.00070  -0.99593  -0.98379  -0.98063
 Alpha  occ. eigenvalues --   -0.96377  -0.95727  -0.93535  -0.90755  -0.86955
 Alpha  occ. eigenvalues --   -0.85531  -0.85028  -0.83910  -0.83666  -0.83400
 Alpha  occ. eigenvalues --   -0.82236  -0.78644  -0.76017  -0.74457  -0.73886
 Alpha  occ. eigenvalues --   -0.73843  -0.73457  -0.73150  -0.72014  -0.69455
 Alpha  occ. eigenvalues --   -0.67288  -0.67209  -0.66432  -0.65718  -0.64349
 Alpha  occ. eigenvalues --   -0.63729  -0.63676  -0.63170  -0.62481  -0.62172
 Alpha  occ. eigenvalues --   -0.61571  -0.61135  -0.59679  -0.59292  -0.58684
 Alpha  occ. eigenvalues --   -0.58320  -0.58175  -0.57444  -0.57389  -0.56310
 Alpha  occ. eigenvalues --   -0.56041  -0.55744  -0.55627  -0.54629  -0.54184
 Alpha  occ. eigenvalues --   -0.53701  -0.53441  -0.52972  -0.52823  -0.52653
 Alpha  occ. eigenvalues --   -0.52409  -0.51947  -0.51586  -0.51161  -0.50762
 Alpha  occ. eigenvalues --   -0.50026  -0.49973  -0.49259  -0.49116  -0.48978
 Alpha  occ. eigenvalues --   -0.48563  -0.48369  -0.48105  -0.47900  -0.47615
 Alpha  occ. eigenvalues --   -0.47284  -0.45994  -0.45376  -0.43613  -0.42828
 Alpha  occ. eigenvalues --   -0.41993  -0.39777  -0.39149  -0.38109  -0.37099
 Alpha  occ. eigenvalues --   -0.37079  -0.37038  -0.36642  -0.35902  -0.34610
 Alpha  occ. eigenvalues --   -0.34492  -0.33998  -0.33746  -0.33303  -0.33038
 Alpha  occ. eigenvalues --   -0.32575  -0.32387  -0.31768  -0.31624  -0.31297
 Alpha  occ. eigenvalues --   -0.31185  -0.28539  -0.26728  -0.25304
 Alpha virt. eigenvalues --    0.02684   0.05578   0.06892   0.07113   0.09172
 Alpha virt. eigenvalues --    0.09594   0.09880   0.10296   0.11300   0.12177
 Alpha virt. eigenvalues --    0.12966   0.13601   0.14240   0.14905   0.15045

 Mulliken charges:
               1
     1  N   -0.307987
     2  C    0.177799
     3  C    0.050722
     4  N   -0.244842
     5  C    0.119716
     6  H    0.028187
     7  N   -0.279971
     8  C    0.141068
     9  H    0.012904
    10  N   -0.283280
    11  C    0.219027
    12  C    0.084321
    13  N   -0.038859
    14  H    0.110906
    15  H    0.091394
    16  H    0.031500
    17  H    0.036993
    18  H    0.025220
    19  N   -0.296042
    20  C    0.246444
    21  C    0.196444
    22  N   -0.118257
    23  H    0.116456
    24  H    0.117724
    25  N   -0.301703
    26  C    0.229472
    27  N   -0.142504
    28  H    0.125369
    29  C    0.169961
    30  O   -0.324510
    31  C   -0.009122
    32  N   -0.225021
    33  C    0.130922
    34  H    0.022602
    35  H    0.001477
    36  H    0.032336
    37  H    0.020931
    38  H    0.043726
    39  H    0.062170
    40  H    0.076279
    41  H    0.025933
    42  C   -0.063994
    43  O   -0.268759
    44  C    0.162943
    45  H    0.134374
    46  N   -0.123891
    47  O   -0.339498
    48  C    0.334926
    49  H    0.040662
    50  C    0.149219
    51  C    0.043836
    52  N   -0.278426
    53  H    0.033901
    54  H    0.041618
    55  H   -0.006945
    56  H    0.119535
    57  H    0.119676
    58  N   -0.046557
    59  C    0.119162
    60  C    0.212121
    61  N   -0.263179
    62  H    0.033952
    63  C    0.148046
    64  N   -0.303799
    65  H    0.028868
    66  C    0.120785
    67  N   -0.241916
    68  C    0.019726
    69  C    0.194764
    70  N   -0.297054
 Sum of Mulliken charges =  -0.00000

 Dipole moment (field-independent basis, Debye):
    X=             -3.8926    Y=              4.6348    Z=             -5.8419  Tot=              8.4120
 Quadrupole moment (field-independent basis, Debye-Ang):
   XX=           -145.0373   YY=           -225.5847   ZZ=           -259.9198
   XY=            -11.5510   XZ=             18.7885   YZ=             -6.1360

 Normal termination of Gaussian 16 at Wed Jan 24 15:03:07 2018.
