 Gaussian 16, Revision A.03,
 Gaussian 16:  EM64L-G16RevA.03 25-Dec-2016

 ---------------------------------------
 #p wb97xd/cc-pvdz sp scf=(maxcycles=20)
 ---------------------------------------

 ------------------
 Base pair stacking
 ------------------
 Symbolic Z-matrix:
 Charge =  0 Multiplicity = 1

                         Standard orientation:
 ---------------------------------------------------------------------
 Center     Atomic      Atomic             Coordinates (Angstroms)
 Number     Number       Type             X           Y           Z
 ---------------------------------------------------------------------
      1          7           0       -6.269610   -1.150029    0.494204
      2          6           0       -7.518977   -0.717213    1.149760
      3          6           0       -4.153050   -1.549462    0.049293
      4          7           0       -4.874835   -2.031934   -1.032815
      5          6           0       -6.121098   -1.771977   -0.721471
      6          1           0       -6.980130   -2.014435   -1.347739
      7          7           0       -2.386892   -0.968841    1.500687
      8          6           0       -3.322911   -0.479734    2.320580
      9          1           0       -2.948984   -0.046264    3.247157
     10          7           0       -4.645257   -0.445840    2.168445
     11          6           0       -4.999153   -1.002999    0.998514
     12          6           0       -2.775116   -1.522857    0.331315
     13          7           0       -1.842251   -2.011637   -0.488451
     14          1           0       -2.084018   -2.430698   -1.364328
     15          1           0       -0.870431   -1.975641   -0.255175
     16          1           0       -8.111428   -1.509343    1.297096
     17          1           0       -7.305227   -0.293823    2.029635
     18          1           0       -7.990443   -0.054061    0.568446
     19          7           0       -3.924531    1.822403   -0.935873
     20          6           0       -2.605854    1.965537   -0.577164
     21          6           0       -5.066974    2.477142   -0.267409
     22          7           0       -0.185001    3.350463    1.492410
     23          1           0        0.809567    3.319139    1.587823
     24          1           0       -0.685455    3.921997    2.143263
     25          7           0       -2.136026    2.722265    0.438052
     26          6           0       -0.819964    2.657530    0.535031
     27          7           0       -0.023141    1.909567   -0.297517
     28          1           0        0.974311    1.919887   -0.149364
     29          6           0       -0.484920    1.123491   -1.348556
     30          8           0        0.318943    0.486543   -2.040548
     31          6           0       -1.896919    1.182888   -1.465242
     32          7           0       -2.753294    0.560922   -2.363398
     33          6           0       -3.942518    0.968728   -2.011775
     34          1           0       -4.870215    0.676492   -2.504972
     35          1           0       -5.689784    1.781695    0.089342
     36          1           0       -4.731181    3.040419    0.486408
     37          1           0       -5.552599    3.054505   -0.922863
     38          1           0        5.780319    1.889881    1.510196
     39          1           0        6.012109    3.073969    0.226129
     40          1           0        4.463544    2.975809    1.064965
     41          1           0        5.960040   -1.000546   -2.331638
     42          6           0        5.259107   -0.327598   -1.837612
     43          8           0        3.356820   -1.181646   -2.968556
     44          6           0        3.867277   -0.405770   -2.160948
     45          1           0        2.078211    0.464576   -1.681317
     46          7           0        3.067843    0.489678   -1.479528
     47          8           0        2.684923    2.169278    0.000173
     48          6           0        3.469349    1.417551   -0.551419
     49          1           0        6.728720    0.666677   -0.655466
     50          6           0        5.681113    0.567054   -0.936442
     51          6           0        5.301989    2.406811    0.691636
     52          7           0        4.825977    1.431739   -0.293450
     53          1           0        5.120381   -0.555067    3.980994
     54          1           0        3.908721    0.461607    3.580564
     55          1           0        5.406846    0.700308    2.978306
     56          1           0        1.352587   -3.258823   -1.812016
     57          1           0        3.032055   -3.484766   -1.615945
     58          7           0        2.188280   -3.045291   -1.305901
     59          6           0        2.179024   -2.211678   -0.263703
     60          6           0        3.157727   -0.999577    1.534823
     61          7           0        2.009841   -0.423831    1.928894
     62          1           0        0.029058   -0.392077    1.403444
     63          6           0        1.001226   -0.813949    1.152094
     64          7           0        1.008458   -1.648784    0.107795
     65          1           0        6.315709   -1.691069    1.569289
     66          6           0        5.250402   -1.626813    1.345828
     67          7           0        4.653360   -2.268373    0.371336
     68          6           0        3.326047   -1.879548    0.479914
     69          6           0        4.736731    0.009513    3.250206
     70          7           0        4.405220   -0.840497    2.090209
 ---------------------------------------------------------------------

 SCF Done:  E(RwB97XD) =  -2048.74760931     A.U. after   15 cycles

 The electronic state is 1-A.
 Alpha  occ. eigenvalues --  -19.25559 -19.22009 -19.20674 -14.52257 -14.51484
 Alpha  occ. eigenvalues --  -14.49815 -14.48664 -14.47533 -14.46902 -14.46604
 Alpha  occ. eigenvalues --  -14.45987 -14.44165 -14.43110 -14.42876 -14.42695
 Alpha  occ. eigenvalues --  -14.42393 -14.41926 -14.41674 -14.40902 -14.40743
 Alpha  occ. eigenvalues --  -10.45231 -10.41157 -10.39888 -10.38278 -10.38225
 Alpha  occ. eigenvalues --  -10.37214 -10.36765 -10.36137 -10.35981 -10.35600
 Alpha  occ. eigenvalues --  -10.35056 -10.34656 -10.34289 -10.34266 -10.33795
 Alpha  occ. eigenvalues --  -10.33493 -10.33216 -10.31971 -10.31323 -10.30736
 Alpha  occ. eigenvalues --  -10.30616 -10.29420 -10.28039  -1.19192  -1.14101
 Alpha  occ. eigenvalues --   -1.13183  -1.12971  -1.12363  -1.10527  -1.09152
 Alpha  occ. eigenvalues --   -1.08539  -1.07723  -1.05747  -1.03212  -1.02348
 Alpha  occ. eigenvalues --   -1.01146  -0.99787  -0.99687  -0.98469  -0.97886
 Alpha  occ. eigenvalues --   -0.96483  -0.95391  -0.93352  -0.90681  -0.86574
 Alpha  occ. eigenvalues --   -0.85101  -0.84865  -0.84011  -0.83718  -0.83235
 Alpha  occ. eigenvalues --   -0.82383  -0.78618  -0.75719  -0.74533  -0.73721
 Alpha  occ. eigenvalues --   -0.73638  -0.73465  -0.73146  -0.71852  -0.69094
 Alpha  occ. eigenvalues --   -0.67294  -0.67105  -0.66341  -0.65403  -0.64322
 Alpha  occ. eigenvalues --   -0.63686  -0.63501  -0.62862  -0.62549  -0.61654
 Alpha  occ. eigenvalues --   -0.61092  -0.60950  -0.59383  -0.59205  -0.58338
 Alpha  occ. eigenvalues --   -0.58294  -0.57839  -0.57715  -0.57241  -0.56300
 Alpha  occ. eigenvalues --   -0.55992  -0.55763  -0.55324  -0.54370  -0.54208
 Alpha  occ. eigenvalues --   -0.53594  -0.53514  -0.52840  -0.52787  -0.52585
 Alpha  occ. eigenvalues --   -0.52366  -0.51718  -0.51608  -0.51453  -0.50996
 Alpha  occ. eigenvalues --   -0.50128  -0.49870  -0.49330  -0.49046  -0.48873
 Alpha  occ. eigenvalues --   -0.48615  -0.48315  -0.48034  -0.47761  -0.47651
 Alpha  occ. eigenvalues --   -0.47378  -0.45882  -0.45439  -0.43354  -0.42850
 Alpha  occ. eigenvalues --   -0.41871  -0.39554  -0.39223  -0.37961  -0.37191
 Alpha  occ. eigenvalues --   -0.37123  -0.36993  -0.36400  -0.35916  -0.34498
 Alpha  occ. eigenvalues --   -0.34327  -0.34053  -0.33561  -0.33214  -0.33041
 Alpha  occ. eigenvalues --   -0.32658  -0.32287  -0.31842  -0.31726  -0.31127
 Alpha  occ. eigenvalues --   -0.30910  -0.28190  -0.26539  -0.25363
 Alpha virt. eigenvalues --    0.02782   0.05685   0.07082   0.07362   0.09071
 Alpha virt. eigenvalues --    0.09754   0.09978   0.10285   0.11164   0.12153
 Alpha virt. eigenvalues --    0.13163   0.13719   0.13907   0.14817   0.14902

 Mulliken charges:
               1
     1  N   -0.309255
     2  C    0.178345
     3  C    0.040132
     4  N   -0.244485
     5  C    0.118897
     6  H    0.027592
     7  N   -0.285584
     8  C    0.140288
     9  H    0.014503
    10  N   -0.288111
    11  C    0.231270
    12  C    0.091766
    13  N   -0.038765
    14  H    0.111895
    15  H    0.092602
    16  H    0.030280
    17  H    0.036522
    18  H    0.023318
    19  N   -0.302402
    20  C    0.254296
    21  C    0.188124
    22  N   -0.122109
    23  H    0.116638
    24  H    0.118497
    25  N   -0.306876
    26  C    0.240374
    27  N   -0.145326
    28  H    0.122971
    29  C    0.175428
    30  O   -0.325829
    31  C   -0.014784
    32  N   -0.227774
    33  C    0.134116
    34  H    0.023275
    35  H    0.014968
    36  H    0.031384
    37  H    0.022063
    38  H    0.043685
    39  H    0.063285
    40  H    0.077290
    41  H    0.024393
    42  C   -0.055383
    43  O   -0.272499
    44  C    0.158135
    45  H    0.135209
    46  N   -0.124349
    47  O   -0.345123
    48  C    0.342384
    49  H    0.039731
    50  C    0.150105
    51  C    0.042067
    52  N   -0.281746
    53  H    0.034394
    54  H    0.041829
    55  H    0.004465
    56  H    0.118236
    57  H    0.117666
    58  N   -0.028852
    59  C    0.107636
    60  C    0.225041
    61  N   -0.269383
    62  H    0.030430
    63  C    0.152586
    64  N   -0.303105
    65  H    0.027573
    66  C    0.121684
    67  N   -0.241322
    68  C    0.009082
    69  C    0.185819
    70  N   -0.299210
 Sum of Mulliken charges =  -0.00000

 Dipole moment (field-independent basis, Debye):
    X=              4.0107    Y=              4.2226    Z=              5.8933  Tot=              8.2853
 Quadrupole moment (field-independent basis, Debye-Ang):
   XX=           -144.7548   YY=           -228.6604   ZZ=           -254.6394
   XY=              7.3818   XZ=             20.3358   YZ=             10.8246

 Normal termination of Gaussian 16 at Thu Jan 25 07:01:57 2018.
