 Gaussian 16, Revision A.03,
 Gaussian 16:  EM64L-G16RevA.03 25-Dec-2016

 ---------------------------------------
 #p wb97xd/cc-pvdz sp scf=(maxcycles=20)
 ---------------------------------------

 ------------------
 Base pair stacking
 ------------------
 Symbolic Z-matrix:
 Charge =  0 Multiplicity = 1

                         Standard orientation:
 ---------------------------------------------------------------------
 Center     Atomic      Atomic             Coordinates (Angstroms)
 Number     Number       Type             X           Y           Z
 ---------------------------------------------------------------------
      1          7           0       -5.692621   -1.743616    0.334859
      2          6           0       -6.941139   -1.674542    1.118729
      3          6           0       -3.573411   -1.792561   -0.251546
      4          7           0       -4.303701   -1.902014   -1.426036
      5          6           0       -5.551221   -1.868143   -1.025737
      6          1           0       -6.416298   -1.930775   -1.686547
      7          7           0       -1.793823   -1.647051    1.289508
      8          6           0       -2.727179   -1.561688    2.243000
      9          1           0       -2.346599   -1.467568    3.259152
     10          7           0       -4.053827   -1.575085    2.130257
     11          6           0       -4.415826   -1.694123    0.842151
     12          6           0       -2.190243   -1.765976    0.003508
     13          7           0       -1.260036   -1.851307   -0.949707
     14          1           0       -1.507824   -1.940470   -1.915048
     15          1           0       -0.284313   -1.829042   -0.731528
     16          1           0       -7.473812   -2.508489    0.973907
     17          1           0       -6.721424   -1.584933    2.089714
     18          1           0       -7.477767   -0.883232    0.825730
     19          7           0       -4.541800    1.871375   -0.410737
     20          6           0       -3.220041    2.008653   -0.061208
     21          6           0       -5.690617    2.320217    0.401324
     22          7           0       -0.798879    3.078851    2.186988
     23          1           0        0.198679    3.080832    2.251214
     24          1           0       -1.303493    3.483046    2.950338
     25          7           0       -2.752477    2.572110    1.073666
     26          6           0       -1.432351    2.557774    1.125335
     27          7           0       -0.629681    2.032333    0.141896
     28          1           0        0.370569    2.064761    0.266056
     29          6           0       -1.089035    1.447672   -1.034129
     30          8           0       -0.279840    1.003345   -1.857848
     31          6           0       -2.505347    1.455723   -1.103941
     32          7           0       -3.361198    0.980865   -2.088279
     33          6           0       -4.555762    1.248515   -1.634863
     34          1           0       -5.484713    1.012278   -2.154980
     35          1           0       -6.268521    1.536439    0.626138
     36          1           0       -5.356562    2.739286    1.244563
     37          1           0       -6.223765    2.990222   -0.114090
     38          1           0        5.224917    1.955247    1.774689
     39          1           0        5.359272    3.381075    0.748235
     40          1           0        3.845393    3.038141    1.586055
     41          1           0        5.411296   -0.101701   -2.570520
     42          6           0        4.696677    0.422502   -1.935881
     43          8           0        2.799664   -0.287544   -3.170503
     44          6           0        3.300056    0.337979   -2.236093
     45          1           0        1.489450    1.001798   -1.550982
     46          7           0        2.482975    1.037633   -1.371157
     47          8           0        2.071817    2.367893    0.422876
     48          6           0        2.871540    1.782350   -0.285819
     49          1           0        6.156937    1.237171   -0.613104
     50          6           0        5.106367    1.141111   -0.884047
     51          6           0        4.696484    2.598868    1.087250
     52          7           0        4.233836    1.815400   -0.061607
     53          1           0        5.761315   -1.595565    3.655811
     54          1           0        4.470455   -0.597768    3.669546
     55          1           0        5.924795   -0.043818    3.177481
     56          1           0        1.955712   -2.286496   -2.677075
     57          1           0        3.652819   -2.440357   -2.598027
     58          7           0        2.794710   -2.208840   -2.138386
     59          6           0        2.771389   -1.814183   -0.863676
     60          6           0        3.737809   -1.268089    1.240969
     61          7           0        2.570782   -0.963591    1.832374
     62          1           0        0.573134   -0.893177    1.379562
     63          6           0        1.560401   -1.119966    0.979394
     64          7           0        1.581718   -1.515136   -0.297693
     65          1           0        6.933434   -1.683546    0.981115
     66          6           0        5.858264   -1.623355    0.809863
     67          7           0        5.267084   -1.910186   -0.324116
     68          6           0        3.922291   -1.689121   -0.064490
     69          6           0        5.312888   -0.834817    3.186589
     70          7           0        4.992914   -1.227700    1.800500
 ---------------------------------------------------------------------

 SCF Done:  E(RwB97XD) =  -2048.71026691     A.U. after   15 cycles

 The electronic state is 1-A.
 Alpha  occ. eigenvalues --  -19.25505 -19.21811 -19.20786 -14.52196 -14.51670
 Alpha  occ. eigenvalues --  -14.49259 -14.48980 -14.47553 -14.47019 -14.46751
 Alpha  occ. eigenvalues --  -14.45527 -14.44381 -14.43215 -14.42852 -14.42344
 Alpha  occ. eigenvalues --  -14.42103 -14.41697 -14.41226 -14.40840 -14.40544
 Alpha  occ. eigenvalues --  -10.45146 -10.41314 -10.39660 -10.38397 -10.38049
 Alpha  occ. eigenvalues --  -10.37103 -10.37005 -10.36249 -10.35738 -10.35302
 Alpha  occ. eigenvalues --  -10.34779 -10.34464 -10.34409 -10.33792 -10.33507
 Alpha  occ. eigenvalues --  -10.33431 -10.33403 -10.31645 -10.31481 -10.31233
 Alpha  occ. eigenvalues --  -10.30488 -10.28891 -10.28218  -1.19134  -1.14351
 Alpha  occ. eigenvalues --   -1.13519  -1.13324  -1.11794  -1.10727  -1.09114
 Alpha  occ. eigenvalues --   -1.08679  -1.07735  -1.05350  -1.03417  -1.02330
 Alpha  occ. eigenvalues --   -1.00704  -0.99914  -0.99836  -0.98628  -0.97359
 Alpha  occ. eigenvalues --   -0.96711  -0.95468  -0.92966  -0.90601  -0.86704
 Alpha  occ. eigenvalues --   -0.85175  -0.84442  -0.84205  -0.83544  -0.82835
 Alpha  occ. eigenvalues --   -0.82673  -0.78567  -0.75917  -0.74746  -0.73742
 Alpha  occ. eigenvalues --   -0.73669  -0.73274  -0.73091  -0.71399  -0.69216
 Alpha  occ. eigenvalues --   -0.67478  -0.66649  -0.66263  -0.65587  -0.64428
 Alpha  occ. eigenvalues --   -0.63745  -0.63156  -0.62886  -0.62671  -0.61835
 Alpha  occ. eigenvalues --   -0.60614  -0.60546  -0.59377  -0.59186  -0.58459
 Alpha  occ. eigenvalues --   -0.58359  -0.58316  -0.57613  -0.56860  -0.56327
 Alpha  occ. eigenvalues --   -0.55839  -0.55636  -0.55524  -0.54527  -0.54244
 Alpha  occ. eigenvalues --   -0.53801  -0.53696  -0.53059  -0.52753  -0.52309
 Alpha  occ. eigenvalues --   -0.52179  -0.51972  -0.51820  -0.51262  -0.50619
 Alpha  occ. eigenvalues --   -0.50563  -0.50161  -0.49535  -0.49296  -0.48999
 Alpha  occ. eigenvalues --   -0.48813  -0.48483  -0.47770  -0.47501  -0.47307
 Alpha  occ. eigenvalues --   -0.47284  -0.46156  -0.45131  -0.43212  -0.41863
 Alpha  occ. eigenvalues --   -0.41403  -0.39729  -0.39222  -0.38160  -0.37607
 Alpha  occ. eigenvalues --   -0.37319  -0.37104  -0.36446  -0.35539  -0.34521
 Alpha  occ. eigenvalues --   -0.33934  -0.33649  -0.33592  -0.33260  -0.33085
 Alpha  occ. eigenvalues --   -0.32780  -0.32489  -0.31977  -0.31259  -0.30983
 Alpha  occ. eigenvalues --   -0.30664  -0.26975  -0.26499  -0.25090
 Alpha virt. eigenvalues --    0.02740   0.04691   0.07332   0.08281   0.09109
 Alpha virt. eigenvalues --    0.09361   0.09655   0.10687   0.11086   0.11894
 Alpha virt. eigenvalues --    0.12897   0.14024   0.14218   0.14632   0.14807

 Mulliken charges:
               1
     1  N   -0.307266
     2  C    0.179304
     3  C    0.037646
     4  N   -0.232747
     5  C    0.111534
     6  H    0.023872
     7  N   -0.292837
     8  C    0.137584
     9  H    0.012964
    10  N   -0.289386
    11  C    0.242729
    12  C    0.088758
    13  N   -0.038900
    14  H    0.115063
    15  H    0.091525
    16  H    0.028164
    17  H    0.035712
    18  H    0.019958
    19  N   -0.306065
    20  C    0.257045
    21  C    0.183689
    22  N   -0.124742
    23  H    0.117326
    24  H    0.119257
    25  N   -0.310693
    26  C    0.249162
    27  N   -0.148094
    28  H    0.118973
    29  C    0.193713
    30  O   -0.330782
    31  C   -0.027509
    32  N   -0.215175
    33  C    0.132886
    34  H    0.019418
    35  H    0.016876
    36  H    0.032431
    37  H    0.024916
    38  H    0.046198
    39  H    0.060261
    40  H    0.077328
    41  H    0.020970
    42  C   -0.057770
    43  O   -0.285023
    44  C    0.136921
    45  H    0.132907
    46  N   -0.107951
    47  O   -0.351592
    48  C    0.345672
    49  H    0.038660
    50  C    0.168668
    51  C    0.044866
    52  N   -0.281342
    53  H    0.034023
    54  H    0.040987
    55  H    0.022713
    56  H    0.123359
    57  H    0.112041
    58  N    0.008540
    59  C    0.048862
    60  C    0.240752
    61  N   -0.273221
    62  H    0.027430
    63  C    0.157688
    64  N   -0.295212
    65  H    0.031363
    66  C    0.114718
    67  N   -0.247127
    68  C    0.027046
    69  C    0.177960
    70  N   -0.307006
 Sum of Mulliken charges =  -0.00000

 Dipole moment (field-independent basis, Debye):
    X=              4.2682    Y=              3.6131    Z=              6.3550  Tot=              8.4652
 Quadrupole moment (field-independent basis, Debye-Ang):
   XX=           -145.4470   YY=           -235.5328   ZZ=           -247.3060
   XY=              4.4753   XZ=             14.6912   YZ=             16.0238

 Normal termination of Gaussian 16 at Thu Jan 25 14:40:59 2018.
