 Gaussian 16, Revision A.03,
 Gaussian 16:  EM64L-G16RevA.03 25-Dec-2016

 ---------------------------------------
 #p wb97xd/cc-pvdz sp scf=(maxcycles=20)
 ---------------------------------------

 ------------------
 Base pair stacking
 ------------------
 Symbolic Z-matrix:
 Charge =  0 Multiplicity = 1

                         Standard orientation:
 ---------------------------------------------------------------------
 Center     Atomic      Atomic             Coordinates (Angstroms)
 Number     Number       Type             X           Y           Z
 ---------------------------------------------------------------------
      1          7           0       -6.558288   -1.081475    0.326323
      2          6           0       -7.810202   -0.752070    1.034995
      3          6           0       -4.441990   -1.432264   -0.159007
      4          7           0       -5.155228   -1.696793   -1.319207
      5          6           0       -6.401676   -1.474865   -0.980374
      6          1           0       -7.255070   -1.583696   -1.650312
      7          7           0       -2.688555   -1.157512    1.394346
      8          6           0       -3.628733   -0.808361    2.278510
      9          1           0       -3.261749   -0.557373    3.272783
     10          7           0       -4.947964   -0.723111    2.119619
     11          6           0       -5.293280   -1.051876    0.863793
     12          6           0       -3.068159   -1.482657    0.139249
     13          7           0       -2.131117   -1.831440   -0.744769
     14          1           0       -2.366510   -2.079893   -1.685025
     15          1           0       -1.162425   -1.856272   -0.497477
     16          1           0       -8.417327   -1.546766    1.028843
     17          1           0       -7.602817   -0.499564    1.979637
     18          1           0       -8.262353    0.014201    0.578512
     19          7           0       -3.594065    2.114929   -0.813277
     20          6           0       -2.272672    2.196276   -0.445392
     21          6           0       -4.710920    2.811954   -0.144327
     22          7           0        0.193475    3.451595    1.653198
     23          1           0        1.185091    3.375681    1.754025
     24          1           0       -0.285558    4.037537    2.307342
     25          7           0       -1.776530    2.920803    0.580743
     26          6           0       -0.465199    2.797409    0.684639
     27          7           0        0.303317    2.024157   -0.151401
     28          1           0        1.299316    1.989156    0.002643
     29          6           0       -0.185836    1.270329   -1.213636
     30          8           0        0.593695    0.606169   -1.907868
     31          6           0       -1.593121    1.392812   -1.337841
     32          7           0       -2.470249    0.818605   -2.247695
     33          6           0       -3.642663    1.274389   -1.898527
     34          1           0       -4.579152    1.028375   -2.400268
     35          1           0       -5.365800    2.140720    0.201181
     36          1           0       -4.355525    3.351898    0.617529
     37          1           0       -5.166692    3.417013   -0.796244
     38          1           0        6.088904    1.730788    1.689606
     39          1           0        6.380354    2.917202    0.419913
     40          1           0        4.823740    2.878076    1.248645
     41          1           0        6.166004   -1.123610   -2.182484
     42          6           0        5.492113   -0.425876   -1.685207
     43          8           0        3.561402   -1.183606   -2.836427
     44          6           0        4.100259   -0.439511   -2.017434
     45          1           0        2.348031    0.503274   -1.538708
     46          7           0        3.336534    0.482801   -1.330923
     47          8           0        3.018228    2.161701    0.164798
     48          6           0        3.772446    1.382233   -0.390418
     49          1           0        6.996404    0.490335   -0.483766
     50          6           0        5.947229    0.439745   -0.771874
     51          6           0        5.638803    2.276894    0.873978
     52          7           0        5.126748    1.334186   -0.124440
     53          1           0        4.786691   -1.339181    3.996250
     54          1           0        3.597480   -0.244585    3.773266
     55          1           0        5.107997    0.071979    3.242050
     56          1           0        1.062733   -2.875919   -2.235613
     57          1           0        2.735285   -3.164540   -2.064263
     58          7           0        1.894113   -2.773272   -1.689349
     59          6           0        1.882676   -2.142824   -0.513089
     60          6           0        2.853754   -1.295792    1.487235
     61          7           0        1.709456   -0.780214    1.965978
     62          1           0       -0.262546   -0.617158    1.431926
     63          6           0        0.706400   -1.004137    1.119436
     64          7           0        0.715841   -1.635367   -0.059142
     65          1           0        5.999445   -2.039942    1.432315
     66          6           0        4.938733   -1.916604    1.211812
     67          7           0        4.346093   -2.359378    0.129959
     68          6           0        3.023673   -1.972436    0.291899
     69          6           0        4.422988   -0.644280    3.375905
     70          7           0        4.095233   -1.263195    2.076855
 ---------------------------------------------------------------------

 SCF Done:  E(RwB97XD) =  -2048.74203384     A.U. after   15 cycles

 The electronic state is 1-A.
 Alpha  occ. eigenvalues --  -19.25795 -19.22212 -19.20795 -14.52320 -14.51038
 Alpha  occ. eigenvalues --  -14.49761 -14.48724 -14.47768 -14.47061 -14.46762
 Alpha  occ. eigenvalues --  -14.45093 -14.43709 -14.42504 -14.42467 -14.42447
 Alpha  occ. eigenvalues --  -14.42236 -14.42082 -14.41589 -14.40877 -14.40779
 Alpha  occ. eigenvalues --  -10.45410 -10.41310 -10.40116 -10.38351 -10.37570
 Alpha  occ. eigenvalues --  -10.37157 -10.36365 -10.36009 -10.35637 -10.35396
 Alpha  occ. eigenvalues --  -10.35076 -10.34403 -10.34245 -10.34074 -10.33709
 Alpha  occ. eigenvalues --  -10.33261 -10.33075 -10.31847 -10.30771 -10.30745
 Alpha  occ. eigenvalues --  -10.30742 -10.29409 -10.28161  -1.19385  -1.13695
 Alpha  occ. eigenvalues --   -1.13323  -1.13192  -1.12331  -1.10637  -1.09266
 Alpha  occ. eigenvalues --   -1.08691  -1.07073  -1.05649  -1.02639  -1.02467
 Alpha  occ. eigenvalues --   -1.01041  -0.99846  -0.99295  -0.98613  -0.97831
 Alpha  occ. eigenvalues --   -0.96586  -0.94742  -0.93227  -0.90753  -0.86045
 Alpha  occ. eigenvalues --   -0.84818  -0.84568  -0.84119  -0.83786  -0.83164
 Alpha  occ. eigenvalues --   -0.82459  -0.78717  -0.75175  -0.74635  -0.73726
 Alpha  occ. eigenvalues --   -0.73637  -0.73337  -0.72933  -0.71784  -0.68512
 Alpha  occ. eigenvalues --   -0.67427  -0.67017  -0.66474  -0.64827  -0.64420
 Alpha  occ. eigenvalues --   -0.63768  -0.63389  -0.62689  -0.62302  -0.61773
 Alpha  occ. eigenvalues --   -0.60837  -0.60443  -0.59428  -0.58745  -0.58434
 Alpha  occ. eigenvalues --   -0.57933  -0.57854  -0.57504  -0.57052  -0.56486
 Alpha  occ. eigenvalues --   -0.55958  -0.55818  -0.54854  -0.54346  -0.53860
 Alpha  occ. eigenvalues --   -0.53704  -0.53539  -0.52933  -0.52648  -0.52559
 Alpha  occ. eigenvalues --   -0.52104  -0.51762  -0.51604  -0.51172  -0.50894
 Alpha  occ. eigenvalues --   -0.50255  -0.49759  -0.49454  -0.49030  -0.48632
 Alpha  occ. eigenvalues --   -0.48364  -0.48184  -0.47894  -0.47806  -0.47633
 Alpha  occ. eigenvalues --   -0.47466  -0.45771  -0.45391  -0.43604  -0.42480
 Alpha  occ. eigenvalues --   -0.41824  -0.39420  -0.39106  -0.37942  -0.37365
 Alpha  occ. eigenvalues --   -0.37244  -0.36583  -0.36080  -0.35747  -0.34525
 Alpha  occ. eigenvalues --   -0.34318  -0.34227  -0.33439  -0.33081  -0.32721
 Alpha  occ. eigenvalues --   -0.32484  -0.32210  -0.31962  -0.31738  -0.31116
 Alpha  occ. eigenvalues --   -0.30899  -0.27457  -0.26391  -0.25485
 Alpha virt. eigenvalues --    0.02802   0.06237   0.07182   0.07699   0.08960
 Alpha virt. eigenvalues --    0.09636   0.09976   0.10327   0.10851   0.12599
 Alpha virt. eigenvalues --    0.13172   0.13686   0.13983   0.14661   0.14997

 Mulliken charges:
               1
     1  N   -0.310971
     2  C    0.180199
     3  C    0.030481
     4  N   -0.249275
     5  C    0.122303
     6  H    0.027845
     7  N   -0.286419
     8  C    0.136875
     9  H    0.016166
    10  N   -0.290231
    11  C    0.237501
    12  C    0.096843
    13  N   -0.035415
    14  H    0.110805
    15  H    0.090739
    16  H    0.028738
    17  H    0.036841
    18  H    0.022964
    19  N   -0.307016
    20  C    0.258925
    21  C    0.183703
    22  N   -0.123486
    23  H    0.116114
    24  H    0.119080
    25  N   -0.309209
    26  C    0.246158
    27  N   -0.145227
    28  H    0.119893
    29  C    0.182432
    30  O   -0.327669
    31  C   -0.012808
    32  N   -0.234502
    33  C    0.133364
    34  H    0.025748
    35  H    0.025751
    36  H    0.029858
    37  H    0.022213
    38  H    0.051847
    39  H    0.062940
    40  H    0.075843
    41  H    0.024668
    42  C   -0.051210
    43  O   -0.279693
    44  C    0.170809
    45  H    0.135581
    46  N   -0.125980
    47  O   -0.349720
    48  C    0.348233
    49  H    0.039241
    50  C    0.146784
    51  C    0.039261
    52  N   -0.286509
    53  H    0.032400
    54  H    0.041083
    55  H    0.010676
    56  H    0.114732
    57  H    0.118420
    58  N   -0.017922
    59  C    0.102772
    60  C    0.233833
    61  N   -0.276944
    62  H    0.028087
    63  C    0.155523
    64  N   -0.304846
    65  H    0.024577
    66  C    0.127719
    67  N   -0.244429
    68  C    0.002591
    69  C    0.183102
    70  N   -0.302782
 Sum of Mulliken charges =  -0.00000

 Dipole moment (field-independent basis, Debye):
    X=              4.1967    Y=              4.3811    Z=              5.6059  Tot=              8.2603
 Quadrupole moment (field-independent basis, Debye-Ang):
   XX=           -143.4543   YY=           -231.1131   ZZ=           -249.6576
   XY=              3.7640   XZ=             23.7410   YZ=             11.3002

 Normal termination of Gaussian 16 at Thu Jan 25 17:03:56 2018.
