 Gaussian 16, Revision A.03,
 Gaussian 16:  EM64L-G16RevA.03 25-Dec-2016

 ---------------------------------------
 #p wb97xd/cc-pvdz sp scf=(maxcycles=20)
 ---------------------------------------

 ------------------
 Base pair stacking
 ------------------
 Symbolic Z-matrix:
 Charge =  0 Multiplicity = 1

                         Standard orientation:
 ---------------------------------------------------------------------
 Center     Atomic      Atomic             Coordinates (Angstroms)
 Number     Number       Type             X           Y           Z
 ---------------------------------------------------------------------
      1          7           0        4.527889   -0.031228    1.873094
      2          6           0        5.776878   -0.816993    1.848833
      3          6           0        2.411071    0.562509    1.810709
      4          7           0        3.134611    1.726902    2.023762
      5          6           0        4.380958    1.322601    2.052817
      6          1           0        5.241189    1.975464    2.203538
      7          7           0        0.642248   -0.961221    1.475374
      8          6           0        1.577533   -1.914115    1.406095
      9          1           0        1.202214   -2.922788    1.238843
     10          7           0        2.900629   -1.808597    1.511914
     11          6           0        3.256239   -0.529369    1.715750
     12          6           0        1.032206    0.315742    1.681252
     13          7           0        0.100064    1.268342    1.750703
     14          1           0        0.343116    2.227143    1.901867
     15          1           0       -0.872466    1.056220    1.654052
     16          1           0        6.253767   -0.714519    2.721903
     17          1           0        5.561855   -1.781554    1.698792
     18          1           0        6.364930   -0.489385    1.109333
     19          7           0        5.694376   -0.009948   -0.914302
     20          6           0        4.378075   -0.388765   -1.023409
     21          6           0        6.832747   -0.928015   -0.709420
     22          7           0        1.958670   -2.880050   -1.064679
     23          1           0        0.966253   -2.942872   -1.166702
     24          1           0        2.456608   -3.737867   -0.934581
     25          7           0        3.907258   -1.653138   -0.962266
     26          6           0        2.594098   -1.699022   -1.100573
     27          7           0        1.800870   -0.592498   -1.284753
     28          1           0        0.805466   -0.722297   -1.381161
     29          6           0        2.263732    0.717934   -1.350839
     30          8           0        1.463187    1.645981   -1.519974
     31          6           0        3.672637    0.783241   -1.203879
     32          7           0        4.528834    1.875851   -1.207993
     33          6           0        5.714537    1.358278   -1.033512
     34          1           0        6.641058    1.931311   -0.983903
     35          1           0        7.298344   -0.698880    0.144695
     36          1           0        6.496194   -1.867585   -0.662552
     37          1           0        7.473579   -0.842288   -1.471523
     38          1           0       -4.115842   -1.978938   -1.148178
     39          1           0       -4.014040   -1.865493   -2.903581
     40          1           0       -2.608942   -2.382976   -1.971219
     41          1           0       -4.259934    2.794376   -1.732370
     42          6           0       -3.531377    1.983622   -1.742516
     43          8           0       -1.654915    3.420745   -1.540818
     44          6           0       -2.137886    2.293203   -1.641694
     45          1           0       -0.310157    1.373659   -1.595128
     46          7           0       -1.302121    1.194907   -1.664208
     47          8           0       -0.854768   -1.028418   -1.781950
     48          6           0       -1.670058   -0.122977   -1.770711
     49          1           0       -4.968470    0.419472   -1.926941
     50          6           0       -3.921136    0.707828   -1.847565
     51          6           0       -3.471569   -1.733407   -1.979264
     52          7           0       -3.030654   -0.340573   -1.863687
     53          1           0       -6.897235   -3.285604    0.815221
     54          1           0       -5.543537   -3.258250   -0.095187
     55          1           0       -6.957407   -2.733359   -0.719322
     56          1           0       -3.134355    2.988740    2.055727
     57          1           0       -4.838041    2.910739    2.093886
     58          7           0       -3.967358    2.458438    1.897554
     59          6           0       -3.920331    1.203802    1.444944
     60          6           0       -4.852366   -0.867817    0.736832
     61          7           0       -3.668863   -1.449777    0.481752
     62          1           0       -1.670123   -1.003863    0.564306
     63          6           0       -2.669486   -0.610110    0.744608
     64          7           0       -2.714544    0.646863    1.197992
     65          1           0       -8.067952   -0.612422    0.953525
     66          6           0       -6.990861   -0.443742    0.972280
     67          7           0       -6.417861    0.672447    1.351055
     68          6           0       -5.061896    0.417068    1.206622
     69          6           0       -6.398902   -2.782985    0.108798
     70          7           0       -6.103069   -1.418681    0.587495
 ---------------------------------------------------------------------

 SCF Done:  E(RwB97XD) =  -2048.67944768     A.U. after   15 cycles

 The electronic state is 1-A.
 Alpha  occ. eigenvalues --  -19.24951 -19.21096 -19.20765 -14.52883 -14.51261
 Alpha  occ. eigenvalues --  -14.49587 -14.49127 -14.48295 -14.46941 -14.46842
 Alpha  occ. eigenvalues --  -14.46565 -14.45524 -14.44685 -14.44382 -14.43175
 Alpha  occ. eigenvalues --  -14.41916 -14.41679 -14.41617 -14.41384 -14.41066
 Alpha  occ. eigenvalues --  -10.44497 -10.41239 -10.40190 -10.39210 -10.38422
 Alpha  occ. eigenvalues --  -10.38103 -10.37534 -10.36747 -10.36221 -10.36200
 Alpha  occ. eigenvalues --  -10.34808 -10.34526 -10.34439 -10.34093 -10.33907
 Alpha  occ. eigenvalues --  -10.33656 -10.32891 -10.32439 -10.32013 -10.30703
 Alpha  occ. eigenvalues --  -10.30070 -10.29103 -10.28567  -1.18579  -1.15573
 Alpha  occ. eigenvalues --   -1.13625  -1.12123  -1.11781  -1.11227  -1.09765
 Alpha  occ. eigenvalues --   -1.08826  -1.08242  -1.05803  -1.05244  -1.01525
 Alpha  occ. eigenvalues --   -1.01273  -1.01235  -0.99899  -0.98993  -0.97692
 Alpha  occ. eigenvalues --   -0.97427  -0.97091  -0.93504  -0.89999  -0.87986
 Alpha  occ. eigenvalues --   -0.86363  -0.85813  -0.84192  -0.83871  -0.82330
 Alpha  occ. eigenvalues --   -0.82173  -0.77922  -0.77328  -0.75394  -0.75132
 Alpha  occ. eigenvalues --   -0.73839  -0.73544  -0.72372  -0.71790  -0.70747
 Alpha  occ. eigenvalues --   -0.67736  -0.67200  -0.67088  -0.65601  -0.64998
 Alpha  occ. eigenvalues --   -0.64596  -0.63607  -0.63104  -0.62785  -0.62010
 Alpha  occ. eigenvalues --   -0.61769  -0.61303  -0.60843  -0.60681  -0.59950
 Alpha  occ. eigenvalues --   -0.59206  -0.58724  -0.58382  -0.57591  -0.56308
 Alpha  occ. eigenvalues --   -0.56114  -0.55917  -0.55658  -0.54592  -0.54387
 Alpha  occ. eigenvalues --   -0.53835  -0.53543  -0.53323  -0.53244  -0.52911
 Alpha  occ. eigenvalues --   -0.52487  -0.52139  -0.51297  -0.50954  -0.50515
 Alpha  occ. eigenvalues --   -0.50293  -0.50020  -0.49406  -0.49307  -0.49285
 Alpha  occ. eigenvalues --   -0.48824  -0.48661  -0.47947  -0.47436  -0.47306
 Alpha  occ. eigenvalues --   -0.47007  -0.46517  -0.44490  -0.44329  -0.43061
 Alpha  occ. eigenvalues --   -0.40438  -0.40246  -0.38907  -0.38675  -0.37985
 Alpha  occ. eigenvalues --   -0.37744  -0.37614  -0.37039  -0.35559  -0.34922
 Alpha  occ. eigenvalues --   -0.34471  -0.34084  -0.34033  -0.33810  -0.33224
 Alpha  occ. eigenvalues --   -0.33124  -0.32386  -0.31991  -0.31491  -0.31152
 Alpha  occ. eigenvalues --   -0.30761  -0.29386  -0.27204  -0.24835
 Alpha virt. eigenvalues --    0.03608   0.04060   0.06618   0.07185   0.08811
 Alpha virt. eigenvalues --    0.08833   0.09438   0.10306   0.10562   0.12319
 Alpha virt. eigenvalues --    0.12724   0.13454   0.14072   0.14588   0.14803

 Mulliken charges:
               1
     1  N   -0.290376
     2  C    0.204902
     3  C    0.058751
     4  N   -0.243233
     5  C    0.141756
     6  H    0.025393
     7  N   -0.271619
     8  C    0.114057
     9  H   -0.007047
    10  N   -0.263170
    11  C    0.207922
    12  C    0.070041
    13  N   -0.051424
    14  H    0.113056
    15  H    0.085165
    16  H    0.021179
    17  H    0.032853
    18  H   -0.008688
    19  N   -0.304788
    20  C    0.206781
    21  C    0.196329
    22  N   -0.088484
    23  H    0.120164
    24  H    0.119769
    25  N   -0.254833
    26  C    0.169958
    27  N   -0.100719
    28  H    0.120796
    29  C    0.169125
    30  O   -0.316748
    31  C    0.011106
    32  N   -0.209147
    33  C    0.100247
    34  H    0.023376
    35  H    0.006825
    36  H    0.034662
    37  H    0.021907
    38  H    0.053998
    39  H    0.035118
    40  H    0.067537
    41  H    0.022609
    42  C   -0.095403
    43  O   -0.272974
    44  C    0.178454
    45  H    0.129391
    46  N   -0.114736
    47  O   -0.340283
    48  C    0.303920
    49  H    0.041298
    50  C    0.152232
    51  C    0.062662
    52  N   -0.262548
    53  H    0.036159
    54  H    0.052624
    55  H    0.029011
    56  H    0.123784
    57  H    0.121218
    58  N   -0.062368
    59  C    0.116082
    60  C    0.229267
    61  N   -0.296947
    62  H    0.040278
    63  C    0.163085
    64  N   -0.307203
    65  H    0.039888
    66  C    0.137648
    67  N   -0.254741
    68  C    0.042139
    69  C    0.177495
    70  N   -0.314544
 Sum of Mulliken charges =  -0.00000

 Dipole moment (field-independent basis, Debye):
    X=             -4.6193    Y=             -8.0979    Z=              1.1427  Tot=              9.3926
 Quadrupole moment (field-independent basis, Debye-Ang):
   XX=           -144.2564   YY=           -243.4136   ZZ=           -249.2350
   XY=              3.1488   XZ=             10.7081   YZ=             21.2118

 Normal termination of Gaussian 16 at Thu Jan 25 13:03:49 2018.
