 Gaussian 16, Revision A.03,
 Gaussian 16:  EM64L-G16RevA.03 25-Dec-2016

 ---------------------------------------
 #p wb97xd/cc-pvdz sp scf=(maxcycles=20)
 ---------------------------------------

 ------------------
 Base pair stacking
 ------------------
 Symbolic Z-matrix:
 Charge =  0 Multiplicity = 1

                         Standard orientation:
 ---------------------------------------------------------------------
 Center     Atomic      Atomic             Coordinates (Angstroms)
 Number     Number       Type             X           Y           Z
 ---------------------------------------------------------------------
      1          7           0        5.967738   -1.043504   -0.771206
      2          6           0        7.214817   -0.421228   -1.256548
      3          6           0        3.851651   -1.555920   -0.459883
      4          7           0        4.579562   -2.385369    0.380888
      5          6           0        5.825297   -2.043455    0.159677
      6          1           0        6.688249   -2.492154    0.652542
      7          7           0        2.076597   -0.500110   -1.598909
      8          6           0        3.009226    0.233666   -2.214834
      9          1           0        2.630270    0.961232   -2.931289
     10          7           0        4.333471    0.203766   -2.079262
     11          6           0        4.693632   -0.723289   -1.176335
     12          6           0        2.471113   -1.424258   -0.695926
     13          7           0        1.541634   -2.157698   -0.080057
     14          1           0        1.788069   -2.853387    0.595589
     15          1           0        0.567806   -2.036863   -0.272928
     16          1           0        7.796304   -1.119102   -1.674903
     17          1           0        6.996402    0.279704   -1.934868
     18          1           0        7.700378   -0.001000   -0.489973
     19          7           0        4.256454    1.335326    1.133293
     20          6           0        2.940327    1.568671    0.814829
     21          6           0        5.417196    1.997192    0.504576
     22          7           0        0.553719    3.242142   -1.073376
     23          1           0       -0.442589    3.263601   -1.151785
     24          1           0        1.069694    3.847986   -1.679546
     25          7           0        2.489996    2.434836   -0.118444
     26          6           0        1.171007    2.437415   -0.195152
     27          7           0        0.353746    1.652572    0.581763
     28          1           0       -0.644363    1.720406    0.454665
     29          6           0        0.795242    0.754288    1.548219
     30          8           0       -0.026136    0.093022    2.195347
     31          6           0        2.210117    0.740376    1.642180
     32          7           0        3.050889    0.001877    2.463534
     33          6           0        4.251959    0.387122    2.127051
     34          1           0        5.172821    0.010435    2.573602
     35          1           0        6.001951    1.310353    0.074318
     36          1           0        5.095939    2.641144   -0.188524
     37          1           0        5.938801    2.490352    1.199938
     38          1           0       -5.471754    2.054179   -1.106624
     39          1           0       -5.629267    3.125310    0.283535
     40          1           0       -4.099943    3.035751   -0.590844
     41          1           0       -5.724215   -1.163804    2.460928
     42          6           0       -5.000931   -0.480223    2.016173
     43          8           0       -3.122488   -1.517036    3.027900
     44          6           0       -3.609317   -0.648961    2.303864
     45          1           0       -1.789908    0.181632    1.870036
     46          7           0       -2.780352    0.268718    1.690715
     47          8           0       -2.343864    2.057704    0.361741
     48          6           0       -3.153261    1.294190    0.858323
     49          1           0       -6.441584    0.681650    0.957697
     50          6           0       -5.395422    0.510654    1.207995
     51          6           0       -4.957688    2.472675   -0.254175
     52          7           0       -4.511646    1.391758    0.629230
     53          1           0       -5.452065    0.793338   -3.679405
     54          1           0       -4.224261    1.602304   -2.972190
     55          1           0       -5.712798    1.630898   -2.303208
     56          1           0       -1.652883   -3.759898    0.781517
     57          1           0       -3.336933   -3.892746    0.543953
     58          7           0       -2.491516   -3.379731    0.391255
     59          6           0       -2.483934   -2.239414   -0.302145
     60          6           0       -3.468041   -0.477098   -1.562108
     61          7           0       -2.317876    0.190523   -1.751380
     62          1           0       -0.331215    0.025856   -1.275299
     63          6           0       -1.305443   -0.449571   -1.169865
     64          7           0       -1.311000   -1.591768   -0.474934
     65          1           0       -6.634090   -1.091967   -1.786248
     66          6           0       -5.565714   -1.115937   -1.569578
     67          7           0       -4.965586   -2.057017   -0.882641
     68          6           0       -3.635077   -1.664168   -0.870383
     69          6           0       -5.053837    1.070359   -2.804953
     70          7           0       -4.719604   -0.128213   -2.011414
 ---------------------------------------------------------------------

 SCF Done:  E(RwB97XD) =  -2048.72783782     A.U. after   15 cycles

 The electronic state is 1-A.
 Alpha  occ. eigenvalues --  -19.25046 -19.21580 -19.20565 -14.52131 -14.51991
 Alpha  occ. eigenvalues --  -14.49896 -14.48648 -14.47299 -14.47008 -14.46753
 Alpha  occ. eigenvalues --  -14.46534 -14.44808 -14.43734 -14.43632 -14.43015
 Alpha  occ. eigenvalues --  -14.42384 -14.41771 -14.41695 -14.40987 -14.40704
 Alpha  occ. eigenvalues --  -10.44829 -10.41036 -10.39629 -10.39110 -10.38150
 Alpha  occ. eigenvalues --  -10.37472 -10.37203 -10.36709 -10.36319 -10.35247
 Alpha  occ. eigenvalues --  -10.35042 -10.34651 -10.34338 -10.34156 -10.34030
 Alpha  occ. eigenvalues --  -10.33922 -10.33204 -10.32230 -10.32075 -10.30621
 Alpha  occ. eigenvalues --  -10.30469 -10.29418 -10.27990  -1.18839  -1.14805
 Alpha  occ. eigenvalues --   -1.13097  -1.12546  -1.12429  -1.10459  -1.08899
 Alpha  occ. eigenvalues --   -1.08489  -1.08413  -1.05882  -1.04022  -1.02054
 Alpha  occ. eigenvalues --   -1.01308  -1.00576  -0.99587  -0.98366  -0.98025
 Alpha  occ. eigenvalues --   -0.96424  -0.96184  -0.93512  -0.90551  -0.87620
 Alpha  occ. eigenvalues --   -0.86159  -0.85012  -0.83945  -0.83426  -0.83263
 Alpha  occ. eigenvalues --   -0.82311  -0.78406  -0.76459  -0.74514  -0.74234
 Alpha  occ. eigenvalues --   -0.73844  -0.73458  -0.72952  -0.71950  -0.69946
 Alpha  occ. eigenvalues --   -0.67269  -0.67206  -0.66575  -0.65955  -0.64382
 Alpha  occ. eigenvalues --   -0.63980  -0.63696  -0.63466  -0.62771  -0.62448
 Alpha  occ. eigenvalues --   -0.61584  -0.61160  -0.60084  -0.59212  -0.59037
 Alpha  occ. eigenvalues --   -0.58874  -0.58212  -0.57870  -0.57462  -0.56327
 Alpha  occ. eigenvalues --   -0.55786  -0.55431  -0.55402  -0.55147  -0.54009
 Alpha  occ. eigenvalues --   -0.53779  -0.53383  -0.53234  -0.52829  -0.52684
 Alpha  occ. eigenvalues --   -0.52560  -0.52052  -0.51574  -0.51141  -0.50189
 Alpha  occ. eigenvalues --   -0.50009  -0.49889  -0.49423  -0.49310  -0.49002
 Alpha  occ. eigenvalues --   -0.48501  -0.48381  -0.48088  -0.47900  -0.47348
 Alpha  occ. eigenvalues --   -0.47147  -0.46099  -0.45502  -0.43542  -0.42408
 Alpha  occ. eigenvalues --   -0.41973  -0.40166  -0.38881  -0.37997  -0.37523
 Alpha  occ. eigenvalues --   -0.37039  -0.37013  -0.36841  -0.35790  -0.34587
 Alpha  occ. eigenvalues --   -0.34475  -0.34247  -0.33766  -0.33623  -0.32862
 Alpha  occ. eigenvalues --   -0.32524  -0.32473  -0.31740  -0.31573  -0.31231
 Alpha  occ. eigenvalues --   -0.31021  -0.28953  -0.26845  -0.25163
 Alpha virt. eigenvalues --    0.03172   0.04891   0.06960   0.07126   0.09155
 Alpha virt. eigenvalues --    0.09517   0.09677   0.10316   0.10887   0.12355
 Alpha virt. eigenvalues --    0.13098   0.13711   0.14369   0.14698   0.14889

 Mulliken charges:
               1
     1  N   -0.306397
     2  C    0.183577
     3  C    0.058102
     4  N   -0.241655
     5  C    0.117008
     6  H    0.027134
     7  N   -0.281716
     8  C    0.145205
     9  H    0.009672
    10  N   -0.279125
    11  C    0.215983
    12  C    0.075479
    13  N   -0.040175
    14  H    0.111456
    15  H    0.091033
    16  H    0.028881
    17  H    0.037647
    18  H    0.028972
    19  N   -0.291509
    20  C    0.234853
    21  C    0.212706
    22  N   -0.116038
    23  H    0.117084
    24  H    0.117560
    25  N   -0.297383
    26  C    0.228657
    27  N   -0.140111
    28  H    0.120144
    29  C    0.176507
    30  O   -0.323579
    31  C   -0.012160
    32  N   -0.219255
    33  C    0.129540
    34  H    0.019961
    35  H   -0.032335
    36  H    0.036104
    37  H    0.023269
    38  H    0.027927
    39  H    0.057038
    40  H    0.076993
    41  H    0.024710
    42  C   -0.072580
    43  O   -0.270669
    44  C    0.161274
    45  H    0.133298
    46  N   -0.119513
    47  O   -0.338068
    48  C    0.330926
    49  H    0.038717
    50  C    0.154435
    51  C    0.043996
    52  N   -0.273093
    53  H    0.028097
    54  H    0.039147
    55  H    0.007812
    56  H    0.121324
    57  H    0.119907
    58  N   -0.048080
    59  C    0.114588
    60  C    0.211132
    61  N   -0.256827
    62  H    0.031467
    63  C    0.149363
    64  N   -0.299571
    65  H    0.032527
    66  C    0.117153
    67  N   -0.242957
    68  C    0.028191
    69  C    0.210894
    70  N   -0.304654
 Sum of Mulliken charges =  -0.00000

 Dipole moment (field-independent basis, Debye):
    X=             -3.9710    Y=              4.6069    Z=             -6.2257  Tot=              8.7035
 Quadrupole moment (field-independent basis, Debye-Ang):
   XX=           -145.8954   YY=           -224.8795   ZZ=           -262.3835
   XY=            -11.8802   XZ=             15.4550   YZ=             -5.1223

 Normal termination of Gaussian 16 at Thu Jan 25 21:35:24 2018.
