 Gaussian 16, Revision A.03,
 Gaussian 16:  EM64L-G16RevA.03 25-Dec-2016

 ---------------------------------------
 #p wb97xd/cc-pvdz sp scf=(maxcycles=20)
 ---------------------------------------

 ------------------
 Base pair stacking
 ------------------
 Symbolic Z-matrix:
 Charge =  0 Multiplicity = 1

                         Standard orientation:
 ---------------------------------------------------------------------
 Center     Atomic      Atomic             Coordinates (Angstroms)
 Number     Number       Type             X           Y           Z
 ---------------------------------------------------------------------
      1          7           0       -7.036759   -0.467866    0.336309
      2          6           0       -8.255860    0.320187    0.602306
      3          6           0       -4.954313   -1.173514    0.283310
      4          7           0       -5.696249   -2.099467   -0.435615
      5          6           0       -6.921156   -1.637286   -0.374908
      6          1           0       -7.787126   -2.113757   -0.835346
      7          7           0       -3.169667   -0.039032    1.327798
      8          6           0       -4.074542    0.862215    1.723453
      9          1           0       -3.680756    1.687952    2.314503
     10          7           0       -5.386658    0.896424    1.499664
     11          6           0       -5.766906   -0.162102    0.765255
     12          6           0       -3.583864   -1.092399    0.590280
     13          7           0       -2.682100   -1.993092    0.194386
     14          1           0       -2.943842   -2.788680   -0.353100
     15          1           0       -1.714666   -1.903377    0.431414
     16          1           0       -8.915252   -0.241753    1.101916
     17          1           0       -8.021732    1.123325    1.149356
     18          1           0       -8.660188    0.615039   -0.263476
     19          7           0       -3.066223    1.376813   -1.488263
     20          6           0       -1.756489    1.577846   -1.124612
     21          6           0       -4.204626    2.225671   -1.083081
     22          7           0        0.642597    3.421111    0.580829
     23          1           0        1.631089    3.389771    0.726292
     24          1           0        0.142551    4.166994    1.021644
     25          7           0       -1.293208    2.576594   -0.342349
     26          6           0        0.014922    2.504545   -0.171393
     27          7           0        0.810317    1.529796   -0.723413
     28          1           0        1.801477    1.553191   -0.538929
     29          6           0        0.355179    0.492567   -1.531404
     30          8           0        1.157045   -0.336260   -1.979512
     31          6           0       -1.048262    0.556672   -1.724119
     32          7           0       -1.896299   -0.268860   -2.449539
     33          6           0       -3.080018    0.255159   -2.280941
     34          1           0       -4.000507   -0.137905   -2.713921
     35          1           0       -4.867085    1.677077   -0.574159
     36          1           0       -3.873628    2.968959   -0.503242
     37          1           0       -4.643105    2.608208   -1.895623
     38          1           0        6.540265    1.856244    1.278964
     39          1           0        6.864851    2.622921   -0.273931
     40          1           0        5.284694    2.809362    0.487455
     41          1           0        6.740893   -2.004486   -1.584790
     42          6           0        6.050300   -1.199889   -1.331903
     43          8           0        4.156861   -2.283985   -2.262893
     44          6           0        4.668864   -1.326595   -1.683206
     45          1           0        2.900107   -0.305887   -1.548985
     46          7           0        3.882145   -0.252976   -1.317602
     47          8           0        3.514285    1.785998   -0.387833
     48          6           0        4.287142    0.887265   -0.670006
     49          1           0        7.515487    0.045379   -0.410853
     50          6           0        6.475408   -0.099704   -0.699875
     51          6           0        6.112476    2.134611    0.327350
     52          7           0        5.633206    0.935157   -0.365007
     53          1           0        4.303938    1.120863    3.669215
     54          1           0        3.188940    1.858035    2.733543
     55          1           0        4.711563    1.654709    2.181840
     56          1           0        0.417728   -3.945437   -0.111738
     57          1           0        2.068752   -4.143444    0.269074
     58          7           0        1.259995   -3.554353    0.259465
     59          6           0        1.303805   -2.302993    0.721379
     60          6           0        2.351355   -0.399967    1.692389
     61          7           0        1.249690    0.368218    1.666976
     62          1           0       -0.712462    0.249197    1.086990
     63          6           0        0.224736   -0.302659    1.145159
     64          7           0        0.178838   -1.556019    0.681955
     65          1           0        5.438894   -1.172827    2.259805
     66          6           0        4.386612   -1.165976    1.974178
     67          7           0        3.753794   -2.179879    1.436387
     68          6           0        2.462325   -1.707576    1.252630
     69          6           0        3.981267    1.248652    2.731370
     70          7           0        3.598504   -0.056009    2.157492
 ---------------------------------------------------------------------

 SCF Done:  E(RwB97XD) =  -2048.73898070     A.U. after   15 cycles

 The electronic state is 1-A.
 Alpha  occ. eigenvalues --  -19.26159 -19.21953 -19.20537 -14.52854 -14.51070
 Alpha  occ. eigenvalues --  -14.50367 -14.48203 -14.47949 -14.46400 -14.46352
 Alpha  occ. eigenvalues --  -14.46289 -14.43828 -14.43434 -14.43072 -14.42759
 Alpha  occ. eigenvalues --  -14.42630 -14.42296 -14.41799 -14.41513 -14.40517
 Alpha  occ. eigenvalues --  -10.45778 -10.40853 -10.40071 -10.38218 -10.38051
 Alpha  occ. eigenvalues --  -10.37852 -10.36874 -10.36518 -10.36235 -10.35695
 Alpha  occ. eigenvalues --  -10.35652 -10.34946 -10.34422 -10.34390 -10.34030
 Alpha  occ. eigenvalues --  -10.33040 -10.32937 -10.32239 -10.31231 -10.30952
 Alpha  occ. eigenvalues --  -10.30217 -10.29618 -10.27877  -1.19800  -1.13733
 Alpha  occ. eigenvalues --   -1.13047  -1.12977  -1.12967  -1.10282  -1.09687
 Alpha  occ. eigenvalues --   -1.08335  -1.07593  -1.06469  -1.03148  -1.02636
 Alpha  occ. eigenvalues --   -1.01915  -0.99505  -0.99418  -0.98493  -0.98253
 Alpha  occ. eigenvalues --   -0.96126  -0.95248  -0.94066  -0.91283  -0.86278
 Alpha  occ. eigenvalues --   -0.85463  -0.84936  -0.84155  -0.83785  -0.83676
 Alpha  occ. eigenvalues --   -0.81830  -0.79106  -0.75569  -0.74432  -0.74204
 Alpha  occ. eigenvalues --   -0.73574  -0.73379  -0.73266  -0.72535  -0.68949
 Alpha  occ. eigenvalues --   -0.67760  -0.67130  -0.66711  -0.65298  -0.64623
 Alpha  occ. eigenvalues --   -0.64141  -0.63492  -0.62803  -0.62497  -0.61520
 Alpha  occ. eigenvalues --   -0.61458  -0.61413  -0.59696  -0.59235  -0.58491
 Alpha  occ. eigenvalues --   -0.58146  -0.58059  -0.57719  -0.57385  -0.56693
 Alpha  occ. eigenvalues --   -0.56430  -0.56086  -0.55180  -0.54544  -0.54198
 Alpha  occ. eigenvalues --   -0.54007  -0.53381  -0.53200  -0.53101  -0.52547
 Alpha  occ. eigenvalues --   -0.52133  -0.51929  -0.51551  -0.51416  -0.51280
 Alpha  occ. eigenvalues --   -0.50425  -0.49902  -0.49506  -0.48561  -0.48543
 Alpha  occ. eigenvalues --   -0.48407  -0.48263  -0.47993  -0.47946  -0.47705
 Alpha  occ. eigenvalues --   -0.47283  -0.46235  -0.45255  -0.44341  -0.42964
 Alpha  occ. eigenvalues --   -0.41986  -0.39707  -0.39439  -0.38653  -0.37115
 Alpha  occ. eigenvalues --   -0.37040  -0.36267  -0.35941  -0.35706  -0.35018
 Alpha  occ. eigenvalues --   -0.34922  -0.34263  -0.33247  -0.33124  -0.33057
 Alpha  occ. eigenvalues --   -0.32602  -0.32494  -0.32051  -0.31787  -0.31726
 Alpha  occ. eigenvalues --   -0.31568  -0.27980  -0.27125  -0.25237
 Alpha virt. eigenvalues --    0.02936   0.05353   0.06322   0.08123   0.08747
 Alpha virt. eigenvalues --    0.08784   0.09949   0.10130   0.11272   0.12172
 Alpha virt. eigenvalues --    0.12479   0.13182   0.14773   0.14900   0.15138

 Mulliken charges:
               1
     1  N   -0.309654
     2  C    0.179853
     3  C    0.039689
     4  N   -0.254752
     5  C    0.132117
     6  H    0.031295
     7  N   -0.262670
     8  C    0.113224
     9  H    0.020624
    10  N   -0.279831
    11  C    0.221932
    12  C    0.077451
    13  N   -0.031744
    14  H    0.107287
    15  H    0.090656
    16  H    0.029759
    17  H    0.036853
    18  H    0.026896
    19  N   -0.296139
    20  C    0.239102
    21  C    0.201375
    22  N   -0.108384
    23  H    0.111439
    24  H    0.115334
    25  N   -0.292663
    26  C    0.215949
    27  N   -0.112863
    28  H    0.121436
    29  C    0.136110
    30  O   -0.324344
    31  C    0.010498
    32  N   -0.226145
    33  C    0.114169
    34  H    0.026445
    35  H    0.015266
    36  H    0.027394
    37  H    0.020072
    38  H    0.059031
    39  H    0.064895
    40  H    0.081779
    41  H    0.032246
    42  C   -0.085601
    43  O   -0.262774
    44  C    0.185349
    45  H    0.133160
    46  N   -0.124241
    47  O   -0.346873
    48  C    0.337737
    49  H    0.045269
    50  C    0.150264
    51  C    0.043565
    52  N   -0.288041
    53  H    0.031028
    54  H    0.034453
    55  H   -0.038818
    56  H    0.115892
    57  H    0.122389
    58  N   -0.065159
    59  C    0.144333
    60  C    0.218204
    61  N   -0.278419
    62  H    0.041008
    63  C    0.158003
    64  N   -0.305918
    65  H    0.022942
    66  C    0.111771
    67  N   -0.247083
    68  C    0.030884
    69  C    0.208947
    70  N   -0.293255
 Sum of Mulliken charges =  -0.00000

 Dipole moment (field-independent basis, Debye):
    X=              3.5922    Y=              5.3637    Z=              5.0432  Tot=              8.1919
 Quadrupole moment (field-independent basis, Debye-Ang):
   XX=           -139.7966   YY=           -226.4138   ZZ=           -258.6071
   XY=             18.5836   XZ=             24.6662   YZ=             -0.9647

 Normal termination of Gaussian 16 at Fri Jan 26 13:28:12 2018.
