 Gaussian 16, Revision A.03,
 Gaussian 16:  EM64L-G16RevA.03 25-Dec-2016

 ---------------------------------------
 #p wb97xd/cc-pvdz sp scf=(maxcycles=20)
 ---------------------------------------

 ------------------
 Base pair stacking
 ------------------
 Symbolic Z-matrix:
 Charge =  0 Multiplicity = 1

                         Standard orientation:
 ---------------------------------------------------------------------
 Center     Atomic      Atomic             Coordinates (Angstroms)
 Number     Number       Type             X           Y           Z
 ---------------------------------------------------------------------
      1          7           0       -6.262916   -1.062663    0.566820
      2          6           0       -7.510104   -0.538172    1.156236
      3          6           0       -4.148375   -1.529669    0.182166
      4          7           0       -4.872538   -2.151705   -0.824510
      5          6           0       -6.117482   -1.845449   -0.552481
      6          1           0       -6.977702   -2.166822   -1.140431
      7          7           0       -2.379385   -0.765236    1.542023
      8          6           0       -3.312951   -0.164114    2.286800
      9          1           0       -2.936886    0.389882    3.145816
     10          7           0       -4.635106   -0.144685    2.130484
     11          6           0       -4.991754   -0.854535    1.047280
     12          6           0       -2.770347   -1.471714    0.458931
     13          7           0       -1.839911   -2.072481   -0.285762
     14          1           0       -2.083762   -2.605941   -1.096419
     15          1           0       -0.867939   -2.009844   -0.058858
     16          1           0       -8.106567   -1.299805    1.409863
     17          1           0       -7.294258    0.000273    1.970249
     18          1           0       -7.978191    0.041785    0.489502
     19          7           0       -3.933536    1.675694   -1.062614
     20          6           0       -2.616304    1.846601   -0.710824
     21          6           0       -5.081465    2.354673   -0.428613
     22          7           0       -0.207819    3.352107    1.287766
     23          1           0        0.786867    3.333093    1.385204
     24          1           0       -0.713141    3.951912    1.908734
     25          7           0       -2.153092    2.656987    0.265273
     26          6           0       -0.836678    2.607106    0.366131
     27          7           0       -0.033505    1.824172   -0.427235
     28          1           0        0.963696    1.849422   -0.279216
     29          6           0       -0.488411    0.982730   -1.437626
     30          8           0        0.320842    0.317793   -2.096202
     31          6           0       -1.900706    1.025576   -1.557956
     32          7           0       -2.751556    0.352761   -2.424138
     33          6           0       -3.944125    0.768822   -2.094176
     34          1           0       -4.869141    0.445169   -2.572561
     35          1           0       -5.699398    1.673407   -0.037656
     36          1           0       -4.750597    2.957692    0.296069
     37          1           0       -5.570762    2.894634   -1.112602
     38          1           0        5.768223    1.939089    1.382480
     39          1           0        5.992389    3.058725    0.040542
     40          1           0        4.443798    2.991309    0.882381
     41          1           0        5.973158   -1.139684   -2.308820
     42          6           0        5.266751   -0.447988   -1.849716
     43          8           0        3.371975   -1.372158   -2.937300
     44          6           0        3.875855   -0.552793   -2.169488
     45          1           0        2.079888    0.327156   -1.735320
     46          7           0        3.069111    0.369807   -1.534484
     47          8           0        2.672256    2.118860   -0.141468
     48          6           0        3.462796    1.346222   -0.654056
     49          1           0        6.727786    0.615544   -0.718299
     50          6           0        5.681221    0.494045   -0.994497
     51          6           0        5.286821    2.410546    0.538652
     52          7           0        4.819047    1.383567   -0.396349
     53          1           0        5.129765   -0.054377    3.948217
     54          1           0        3.923279    0.904191    3.411879
     55          1           0        5.422624    1.050956    2.783793
     56          1           0        1.348640   -3.504611   -1.424343
     57          1           0        3.026927   -3.710082   -1.198022
     58          7           0        2.185373   -3.228187   -0.951483
     59          6           0        2.180287   -2.260089   -0.032822
     60          6           0        3.165007   -0.818764    1.584156
     61          7           0        2.020027   -0.188884    1.895098
     62          1           0        0.039458   -0.219231    1.368764
     63          6           0        1.009491   -0.676325    1.178077
     64          7           0        1.012561   -1.645906    0.257495
     65          1           0        6.319452   -1.514883    1.715021
     66          6           0        5.254495   -1.476396    1.484097
     67          7           0        4.654271   -2.241953    0.605839
     68          6           0        3.328935   -1.835320    0.659349
     69          6           0        4.749014    0.407101    3.146926
     70          7           0        4.413260   -0.591609    2.113563
 ---------------------------------------------------------------------

 SCF Done:  E(RwB97XD) =  -2048.74780979     A.U. after   15 cycles

 The electronic state is 1-A.
 Alpha  occ. eigenvalues --  -19.25521 -19.21928 -19.20631 -14.52274 -14.51595
 Alpha  occ. eigenvalues --  -14.49902 -14.48612 -14.47511 -14.46844 -14.46551
 Alpha  occ. eigenvalues --  -14.46294 -14.44276 -14.43246 -14.43047 -14.42823
 Alpha  occ. eigenvalues --  -14.42464 -14.41870 -14.41762 -14.40982 -14.40709
 Alpha  occ. eigenvalues --  -10.45207 -10.41105 -10.39869 -10.38488 -10.38179
 Alpha  occ. eigenvalues --  -10.37302 -10.36891 -10.36235 -10.36103 -10.35578
 Alpha  occ. eigenvalues --  -10.35126 -10.34770 -10.34362 -10.34211 -10.33872
 Alpha  occ. eigenvalues --  -10.33560 -10.33183 -10.32057 -10.31466 -10.30639
 Alpha  occ. eigenvalues --  -10.30627 -10.29495 -10.27992  -1.19175  -1.14217
 Alpha  occ. eigenvalues --   -1.13139  -1.12870  -1.12446  -1.10481  -1.09157
 Alpha  occ. eigenvalues --   -1.08489  -1.07898  -1.05835  -1.03396  -1.02314
 Alpha  occ. eigenvalues --   -1.01246  -0.99925  -0.99634  -0.98419  -0.97974
 Alpha  occ. eigenvalues --   -0.96428  -0.95565  -0.93447  -0.90720  -0.86741
 Alpha  occ. eigenvalues --   -0.85286  -0.84948  -0.83958  -0.83718  -0.83319
 Alpha  occ. eigenvalues --   -0.82312  -0.78635  -0.75870  -0.74489  -0.73806
 Alpha  occ. eigenvalues --   -0.73718  -0.73478  -0.73144  -0.71935  -0.69269
 Alpha  occ. eigenvalues --   -0.67248  -0.67197  -0.66366  -0.65567  -0.64316
 Alpha  occ. eigenvalues --   -0.63685  -0.63596  -0.63026  -0.62511  -0.61619
 Alpha  occ. eigenvalues --   -0.61551  -0.61044  -0.59511  -0.59266  -0.58511
 Alpha  occ. eigenvalues --   -0.58254  -0.58036  -0.57520  -0.57344  -0.56262
 Alpha  occ. eigenvalues --   -0.56055  -0.55729  -0.55525  -0.54492  -0.54202
 Alpha  occ. eigenvalues --   -0.53607  -0.53490  -0.52890  -0.52786  -0.52658
 Alpha  occ. eigenvalues --   -0.52394  -0.51849  -0.51615  -0.51206  -0.51073
 Alpha  occ. eigenvalues --   -0.50047  -0.49954  -0.49281  -0.49060  -0.48923
 Alpha  occ. eigenvalues --   -0.48599  -0.48334  -0.48101  -0.47825  -0.47639
 Alpha  occ. eigenvalues --   -0.47328  -0.45933  -0.45410  -0.43508  -0.42893
 Alpha  occ. eigenvalues --   -0.41941  -0.39662  -0.39189  -0.38035  -0.37134
 Alpha  occ. eigenvalues --   -0.37091  -0.37001  -0.36516  -0.35921  -0.34555
 Alpha  occ. eigenvalues --   -0.34412  -0.34021  -0.33666  -0.33183  -0.33106
 Alpha  occ. eigenvalues --   -0.32611  -0.32323  -0.31795  -0.31708  -0.31219
 Alpha  occ. eigenvalues --   -0.31082  -0.28398  -0.26635  -0.25328
 Alpha virt. eigenvalues --    0.02730   0.05637   0.06988   0.07246   0.09125
 Alpha virt. eigenvalues --    0.09682   0.09931   0.10269   0.11276   0.12139
 Alpha virt. eigenvalues --    0.13067   0.13671   0.14065   0.14882   0.14975

 Mulliken charges:
               1
     1  N   -0.308646
     2  C    0.177738
     3  C    0.044949
     4  N   -0.244595
     5  C    0.119346
     6  H    0.027916
     7  N   -0.282902
     8  C    0.140545
     9  H    0.013865
    10  N   -0.285985
    11  C    0.225812
    12  C    0.088361
    13  N   -0.038833
    14  H    0.111417
    15  H    0.092027
    16  H    0.031005
    17  H    0.036616
    18  H    0.024263
    19  N   -0.299429
    20  C    0.251419
    21  C    0.191377
    22  N   -0.120511
    23  H    0.116577
    24  H    0.118132
    25  N   -0.304670
    26  C    0.235452
    27  N   -0.143786
    28  H    0.124015
    29  C    0.172478
    30  O   -0.325130
    31  C   -0.012497
    32  N   -0.226305
    33  C    0.132327
    34  H    0.022961
    35  H    0.009253
    36  H    0.031864
    37  H    0.021610
    38  H    0.043311
    39  H    0.063281
    40  H    0.077186
    41  H    0.025200
    42  C   -0.059666
    43  O   -0.270389
    44  C    0.160273
    45  H    0.134809
    46  N   -0.124177
    47  O   -0.342407
    48  C    0.338861
    49  H    0.040213
    50  C    0.149603
    51  C    0.042167
    52  N   -0.279889
    53  H    0.034632
    54  H    0.041917
    55  H   -0.000535
    56  H    0.119031
    57  H    0.118772
    58  N   -0.039028
    59  C    0.114564
    60  C    0.218574
    61  N   -0.266222
    62  H    0.031940
    63  C    0.150502
    64  N   -0.303439
    65  H    0.028236
    66  C    0.121268
    67  N   -0.241693
    68  C    0.014156
    69  C    0.188856
    70  N   -0.297943
 Sum of Mulliken charges =  -0.00000

 Dipole moment (field-independent basis, Debye):
    X=              3.9516    Y=              4.4248    Z=              5.8640  Tot=              8.3415
 Quadrupole moment (field-independent basis, Debye-Ang):
   XX=           -144.8610   YY=           -226.8933   ZZ=           -257.4677
   XY=              9.5708   XZ=             19.6658   YZ=              8.6571

 Normal termination of Gaussian 16 at Fri Jan 26 02:59:37 2018.
