 Gaussian 16, Revision A.03,
 Gaussian 16:  EM64L-G16RevA.03 25-Dec-2016

 ---------------------------------------
 #p wb97xd/cc-pvdz sp scf=(maxcycles=20)
 ---------------------------------------

 ------------------
 Base pair stacking
 ------------------
 Symbolic Z-matrix:
 Charge =  0 Multiplicity = 1

                         Standard orientation:
 ---------------------------------------------------------------------
 Center     Atomic      Atomic             Coordinates (Angstroms)
 Number     Number       Type             X           Y           Z
 ---------------------------------------------------------------------
      1          7           0        5.973402   -1.154101   -0.702652
      2          6           0        7.222178   -0.612296   -1.272732
      3          6           0        3.855687   -1.606914   -0.318474
      4          7           0        4.581838   -2.314484    0.628509
      5          6           0        5.828609   -2.013368    0.359154
      6          1           0        6.690709   -2.393275    0.908163
      7          7           0        2.082722   -0.711398   -1.590319
      8          6           0        3.017240   -0.075808   -2.304653
      9          1           0        2.639889    0.546452   -3.114997
     10          7           0        4.341690   -0.093386   -2.168908
     11          6           0        4.699774   -0.886999   -1.145984
     12          6           0        2.475182   -1.502321   -0.567823
     13          7           0        1.543807   -2.137610    0.146408
     14          1           0        1.788688   -2.733313    0.912171
     15          1           0        0.570049   -2.039828   -0.059486
     16          1           0        7.799095   -1.364825   -1.590601
     17          1           0        7.005346   -0.011923   -2.041933
     18          1           0        7.711883   -0.091588   -0.573405
     19          7           0        4.249936    1.486643    1.037055
     20          6           0        2.932984    1.695040    0.705023
     21          6           0        5.407861    2.120129    0.374765
     22          7           0        0.539715    3.250634   -1.273395
     23          1           0       -0.456587    3.262226   -1.353922
     24          1           0        1.053158    3.825763   -1.910827
     25          7           0        2.479132    2.507001   -0.274159
     26          6           0        1.160257    2.497997   -0.352325
     27          7           0        0.346296    1.751654    0.464956
     28          1           0       -0.651986    1.806899    0.333282
     29          6           0        0.791455    0.909363    1.478977
     30          8           0       -0.027141    0.279383    2.159993
     31          6           0        2.206242    0.908514    1.575098
     32          7           0        3.049981    0.220194    2.436044
     33          6           0        4.249350    0.593476    2.080553
     34          1           0        5.171666    0.246644    2.547794
     35          1           0        5.997022    1.414370   -0.017140
     36          1           0        5.083977    2.723904   -0.352436
     37          1           0        5.925734    2.653054    1.043052
     38          1           0       -5.478995    2.028682   -1.248982
     39          1           0       -5.644397    3.172403    0.081130
     40          1           0       -4.113392    3.044383   -0.785468
     41          1           0       -5.718487   -0.993355    2.486856
     42          6           0       -4.998400   -0.330718    2.006620
     43          8           0       -3.115630   -1.300803    3.074903
     44          6           0       -3.606269   -0.475830    2.304523
     45          1           0       -1.790915    0.340359    1.828450
     46          7           0       -2.781589    0.412048    1.643612
     47          8           0       -2.353216    2.129107    0.220433
     48          6           0       -3.159041    1.388977    0.756648
     49          1           0       -6.444042    0.764170    0.885388
     50          6           0       -5.397286    0.612828    1.145689
     51          6           0       -4.968453    2.495479   -0.419815
     52          7           0       -4.517631    1.466364    0.521151
     53          1           0       -5.445192    0.317874   -3.815966
     54          1           0       -4.211514    1.211319   -3.231257
     55          1           0       -5.698052    1.340913   -2.569828
     56          1           0       -1.656145   -3.586944    1.229939
     57          1           0       -3.341457   -3.742892    1.016689
     58          7           0       -2.493973   -3.260674    0.792062
     59          6           0       -2.482708   -2.228532   -0.053937
     60          6           0       -3.461616   -0.654502   -1.545885
     61          7           0       -2.308726   -0.025915   -1.828944
     62          1           0       -0.321598   -0.132799   -1.338540
     63          6           0       -1.297846   -0.583717   -1.165718
     64          7           0       -1.307098   -1.617533   -0.317935
     65          1           0       -6.631237   -1.278114   -1.675469
     66          6           0       -5.562410   -1.277150   -1.459739
     67          7           0       -4.965010   -2.116097   -0.649215
     68          6           0       -3.632565   -1.732349   -0.694675
     69          6           0       -5.043220    0.712318   -2.989631
     70          7           0       -4.712684   -0.365308   -2.037016
 ---------------------------------------------------------------------

 SCF Done:  E(RwB97XD) =  -2048.74347099     A.U. after   15 cycles

 The electronic state is 1-A.
 Alpha  occ. eigenvalues --  -19.25196 -19.21667 -19.20582 -14.52089 -14.51981
 Alpha  occ. eigenvalues --  -14.49827 -14.48691 -14.47356 -14.46791 -14.46765
 Alpha  occ. eigenvalues --  -14.46536 -14.44658 -14.43628 -14.43467 -14.42904
 Alpha  occ. eigenvalues --  -14.42317 -14.41831 -14.41674 -14.40962 -14.40712
 Alpha  occ. eigenvalues --  -10.44953 -10.41072 -10.39688 -10.38936 -10.38170
 Alpha  occ. eigenvalues --  -10.37309 -10.37205 -10.36576 -10.36240 -10.35158
 Alpha  occ. eigenvalues --  -10.35094 -10.34986 -10.34291 -10.34204 -10.33931
 Alpha  occ. eigenvalues --  -10.33861 -10.33221 -10.32131 -10.31915 -10.30768
 Alpha  occ. eigenvalues --  -10.30491 -10.29378 -10.28007  -1.18924  -1.14634
 Alpha  occ. eigenvalues --   -1.13109  -1.12643  -1.12355  -1.10488  -1.08951
 Alpha  occ. eigenvalues --   -1.08454  -1.08327  -1.05815  -1.03843  -1.02117
 Alpha  occ. eigenvalues --   -1.01223  -1.00357  -0.99604  -0.98393  -0.97929
 Alpha  occ. eigenvalues --   -0.96460  -0.96007  -0.93441  -0.90562  -0.87230
 Alpha  occ. eigenvalues --   -0.85798  -0.84923  -0.83980  -0.83454  -0.83319
 Alpha  occ. eigenvalues --   -0.82380  -0.78455  -0.76289  -0.74512  -0.74096
 Alpha  occ. eigenvalues --   -0.73771  -0.73477  -0.72976  -0.71883  -0.69713
 Alpha  occ. eigenvalues --   -0.67243  -0.67167  -0.66314  -0.65923  -0.64268
 Alpha  occ. eigenvalues --   -0.63780  -0.63594  -0.63357  -0.62473  -0.62168
 Alpha  occ. eigenvalues --   -0.61601  -0.61064  -0.59876  -0.59167  -0.58883
 Alpha  occ. eigenvalues --   -0.58538  -0.58220  -0.57747  -0.57372  -0.56218
 Alpha  occ. eigenvalues --   -0.55877  -0.55535  -0.55467  -0.54931  -0.54069
 Alpha  occ. eigenvalues --   -0.53687  -0.53445  -0.53132  -0.52770  -0.52719
 Alpha  occ. eigenvalues --   -0.52436  -0.52109  -0.51573  -0.51074  -0.50775
 Alpha  occ. eigenvalues --   -0.50008  -0.49978  -0.49338  -0.49225  -0.49108
 Alpha  occ. eigenvalues --   -0.48585  -0.48360  -0.48121  -0.47813  -0.47430
 Alpha  occ. eigenvalues --   -0.47219  -0.46064  -0.45473  -0.43503  -0.42648
 Alpha  occ. eigenvalues --   -0.41910  -0.40029  -0.38969  -0.37940  -0.37416
 Alpha  occ. eigenvalues --   -0.37072  -0.36971  -0.36823  -0.35813  -0.34500
 Alpha  occ. eigenvalues --   -0.34423  -0.34125  -0.33798  -0.33536  -0.32928
 Alpha  occ. eigenvalues --   -0.32531  -0.32419  -0.31768  -0.31675  -0.31176
 Alpha  occ. eigenvalues --   -0.30981  -0.28873  -0.26739  -0.25207
 Alpha virt. eigenvalues --    0.03158   0.04958   0.07049   0.07246   0.09117
 Alpha virt. eigenvalues --    0.09540   0.09800   0.10267   0.10981   0.12288
 Alpha virt. eigenvalues --    0.13157   0.13804   0.14206   0.14782   0.14924

 Mulliken charges:
               1
     1  N   -0.306855
     2  C    0.179413
     3  C    0.052307
     4  N   -0.240685
     5  C    0.116359
     6  H    0.026963
     7  N   -0.283991
     8  C    0.143105
     9  H    0.011401
    10  N   -0.282407
    11  C    0.223517
    12  C    0.079465
    13  N   -0.039568
    14  H    0.112108
    15  H    0.091765
    16  H    0.029836
    17  H    0.036699
    18  H    0.027447
    19  N   -0.294794
    20  C    0.243095
    21  C    0.201722
    22  N   -0.119175
    23  H    0.117165
    24  H    0.117877
    25  N   -0.301870
    26  C    0.234877
    27  N   -0.142306
    28  H    0.120257
    29  C    0.178613
    30  O   -0.324575
    31  C   -0.016941
    32  N   -0.219882
    33  C    0.130630
    34  H    0.020274
    35  H   -0.014486
    36  H    0.034831
    37  H    0.023601
    38  H    0.025046
    39  H    0.060471
    40  H    0.078687
    41  H    0.024272
    42  C   -0.067276
    43  O   -0.271947
    44  C    0.157494
    45  H    0.134003
    46  N   -0.119615
    47  O   -0.341313
    48  C    0.335063
    49  H    0.038822
    50  C    0.154569
    51  C    0.047366
    52  N   -0.275257
    53  H    0.031173
    54  H    0.040279
    55  H    0.016245
    56  H    0.121092
    57  H    0.118843
    58  N   -0.040546
    59  C    0.108470
    60  C    0.218379
    61  N   -0.260736
    62  H    0.030136
    63  C    0.151520
    64  N   -0.299539
    65  H    0.031598
    66  C    0.116784
    67  N   -0.242608
    68  C    0.022588
    69  C    0.192938
    70  N   -0.302792
 Sum of Mulliken charges =  -0.00000

 Dipole moment (field-independent basis, Debye):
    X=             -3.9969    Y=              4.3392    Z=             -6.2118  Tot=              8.5668
 Quadrupole moment (field-independent basis, Debye-Ang):
   XX=           -145.7132   YY=           -225.9980   ZZ=           -260.0350
   XY=            -10.3774   XZ=             16.2308   YZ=             -8.1302

 Normal termination of Gaussian 16 at Wed Jan 24 10:26:38 2018.
