 Gaussian 16, Revision A.03,
 Gaussian 16:  EM64L-G16RevA.03 25-Dec-2016

 ---------------------------------------
 #p wb97xd/cc-pvdz sp scf=(maxcycles=20)
 ---------------------------------------

 ------------------
 Base pair stacking
 ------------------
 Symbolic Z-matrix:
 Charge =  0 Multiplicity = 1

                         Standard orientation:
 ---------------------------------------------------------------------
 Center     Atomic      Atomic             Coordinates (Angstroms)
 Number     Number       Type             X           Y           Z
 ---------------------------------------------------------------------
      1          7           0       -5.992175   -1.525098    0.343128
      2          6           0       -7.244324   -1.369236    1.108514
      3          6           0       -3.870876   -1.678573   -0.217099
      4          7           0       -4.594318   -1.831183   -1.391006
      5          6           0       -5.843369   -1.732611   -1.006515
      6          1           0       -6.704351   -1.804343   -1.671722
      7          7           0       -2.100715   -1.503887    1.331761
      8          6           0       -3.038804   -1.332516    2.268878
      9          1           0       -2.664024   -1.192653    3.281911
     10          7           0       -4.364130   -1.308058    2.143091
     11          6           0       -4.718854   -1.489100    0.860194
     12          6           0       -2.489842   -1.683532    0.050594
     13          7           0       -1.554903   -1.854778   -0.886278
     14          1           0       -1.797241   -1.991176   -1.847466
     15          1           0       -0.580902   -1.852564   -0.659450
     16          1           0       -7.803741   -2.191890    1.006181
     17          1           0       -7.030075   -1.231118    2.075033
     18          1           0       -7.751238   -0.578669    0.764946
     19          7           0       -4.224635    1.989948   -0.533412
     20          6           0       -2.902036    2.102946   -0.178414
     21          6           0       -5.364500    2.523038    0.239377
     22          7           0       -0.465386    3.219631    2.030084
     23          1           0        0.531075    3.192005    2.104613
     24          1           0       -0.962540    3.683856    2.763605
     25          7           0       -2.425402    2.715027    0.927129
     26          6           0       -1.107007    2.659610    0.993459
     27          7           0       -0.314212    2.051759    0.050334
     28          1           0        0.685456    2.057865    0.182965
     29          6           0       -0.783006    1.415866   -1.094979
     30          8           0        0.017700    0.897958   -1.883258
     31          6           0       -2.197574    1.467188   -1.180091
     32          7           0       -3.060545    0.965162   -2.144531
     33          6           0       -4.249195    1.298277   -1.719856
     34          1           0       -5.181116    1.063586   -2.235327
     35          1           0       -5.970591    1.773282    0.502680
     36          1           0       -5.023673    2.978690    1.060644
     37          1           0       -5.870129    3.179610   -0.319254
     38          1           0        5.520118    1.873503    1.746560
     39          1           0        5.711641    3.232432    0.641443
     40          1           0        4.179830    2.989197    1.481530
     41          1           0        5.673967   -0.435877   -2.471220
     42          6           0        4.972110    0.147654   -1.875298
     43          8           0        3.062784   -0.568707   -3.087078
     44          6           0        3.576062    0.092646   -2.184889
     45          1           0        1.783207    0.855017   -1.558143
     46          7           0        2.775791    0.867968   -1.370203
     47          8           0        2.394603    2.312550    0.340082
     48          6           0        3.180056    1.660692   -0.325356
     49          1           0        6.447743    0.988086   -0.586114
     50          6           0        5.396890    0.911695   -0.862171
     51          6           0        5.019778    2.493666    1.017773
     52          7           0        4.540706    1.661093   -0.089050
     53          1           0        5.431159   -1.568325    3.770830
     54          1           0        4.174856   -0.528835    3.713647
     55          1           0        5.651343   -0.053109    3.205972
     56          1           0        1.658973   -2.496123   -2.551782
     57          1           0        3.349143   -2.701764   -2.446118
     58          7           0        2.495463   -2.415567   -2.009607
     59          6           0        2.474567   -1.947442   -0.759973
     60          6           0        3.440809   -1.313356    1.319941
     61          7           0        2.279752   -0.936424    1.880552
     62          1           0        0.289612   -0.825577    1.403378
     63          6           0        1.272021   -1.107924    1.027327
     64          7           0        1.290905   -1.576652   -0.224675
     65          1           0        6.622603   -1.849638    1.118106
     66          6           0        5.551622   -1.763550    0.932342
     67          7           0        4.960821   -2.095459   -0.189480
     68          6           0        3.622125   -1.814969    0.042827
     69          6           0        5.012872   -0.821373    3.254011
     70          7           0        4.691705   -1.282691    1.889448
 ---------------------------------------------------------------------

 SCF Done:  E(RwB97XD) =  -2048.72005899     A.U. after   15 cycles

 The electronic state is 1-A.
 Alpha  occ. eigenvalues --  -19.25436 -19.22109 -19.20791 -14.52051 -14.51485
 Alpha  occ. eigenvalues --  -14.49473 -14.48863 -14.47457 -14.47002 -14.46719
 Alpha  occ. eigenvalues --  -14.45511 -14.44195 -14.43044 -14.42715 -14.42397
 Alpha  occ. eigenvalues --  -14.42056 -14.41991 -14.41358 -14.40807 -14.40632
 Alpha  occ. eigenvalues --  -10.45091 -10.41274 -10.39603 -10.38362 -10.37942
 Alpha  occ. eigenvalues --  -10.36805 -10.36803 -10.36094 -10.35846 -10.35325
 Alpha  occ. eigenvalues --  -10.34681 -10.34651 -10.34397 -10.33979 -10.33537
 Alpha  occ. eigenvalues --  -10.33392 -10.33327 -10.31741 -10.31321 -10.31055
 Alpha  occ. eigenvalues --  -10.30425 -10.29080 -10.28169  -1.19062  -1.14171
 Alpha  occ. eigenvalues --   -1.13466  -1.13291  -1.12013  -1.10662  -1.09025
 Alpha  occ. eigenvalues --   -1.08647  -1.07581  -1.05460  -1.03226  -1.02293
 Alpha  occ. eigenvalues --   -1.00828  -0.99809  -0.99751  -0.98584  -0.97548
 Alpha  occ. eigenvalues --   -0.96638  -0.95301  -0.93064  -0.90455  -0.86542
 Alpha  occ. eigenvalues --   -0.85039  -0.84573  -0.84155  -0.83508  -0.82943
 Alpha  occ. eigenvalues --   -0.82596  -0.78438  -0.75734  -0.74667  -0.73691
 Alpha  occ. eigenvalues --   -0.73495  -0.73420  -0.73058  -0.71547  -0.69056
 Alpha  occ. eigenvalues --   -0.67414  -0.66793  -0.66186  -0.65391  -0.64353
 Alpha  occ. eigenvalues --   -0.63658  -0.63216  -0.62792  -0.62628  -0.61773
 Alpha  occ. eigenvalues --   -0.60665  -0.60522  -0.59231  -0.59086  -0.58414
 Alpha  occ. eigenvalues --   -0.58248  -0.58101  -0.57557  -0.56974  -0.56403
 Alpha  occ. eigenvalues --   -0.55790  -0.55691  -0.55375  -0.54310  -0.54240
 Alpha  occ. eigenvalues --   -0.53739  -0.53599  -0.52958  -0.52670  -0.52337
 Alpha  occ. eigenvalues --   -0.52248  -0.51708  -0.51640  -0.51400  -0.50728
 Alpha  occ. eigenvalues --   -0.50496  -0.49931  -0.49603  -0.49203  -0.48980
 Alpha  occ. eigenvalues --   -0.48698  -0.48411  -0.47734  -0.47540  -0.47465
 Alpha  occ. eigenvalues --   -0.47431  -0.45980  -0.45347  -0.43014  -0.41949
 Alpha  occ. eigenvalues --   -0.41569  -0.39585  -0.39166  -0.37859  -0.37691
 Alpha  occ. eigenvalues --   -0.37274  -0.37149  -0.36358  -0.35626  -0.34394
 Alpha  occ. eigenvalues --   -0.34054  -0.33740  -0.33622  -0.33509  -0.33014
 Alpha  occ. eigenvalues --   -0.32780  -0.32443  -0.31974  -0.31468  -0.30823
 Alpha  occ. eigenvalues --   -0.30293  -0.27213  -0.26328  -0.25365
 Alpha virt. eigenvalues --    0.03209   0.04860   0.07375   0.07804   0.08936
 Alpha virt. eigenvalues --    0.09763   0.09975   0.10540   0.11051   0.12141
 Alpha virt. eigenvalues --    0.13105   0.13968   0.13991   0.14679   0.14753

 Mulliken charges:
               1
     1  N   -0.309211
     2  C    0.179461
     3  C    0.035736
     4  N   -0.238165
     5  C    0.113548
     6  H    0.025404
     7  N   -0.290794
     8  C    0.138966
     9  H    0.014046
    10  N   -0.289915
    11  C    0.241727
    12  C    0.090416
    13  N   -0.038638
    14  H    0.114112
    15  H    0.094664
    16  H    0.028743
    17  H    0.036240
    18  H    0.020959
    19  N   -0.305643
    20  C    0.256113
    21  C    0.183954
    22  N   -0.124148
    23  H    0.117117
    24  H    0.119086
    25  N   -0.310139
    26  C    0.247296
    27  N   -0.148551
    28  H    0.120048
    29  C    0.188925
    30  O   -0.329642
    31  C   -0.025497
    32  N   -0.223290
    33  C    0.137680
    34  H    0.021415
    35  H    0.019494
    36  H    0.031518
    37  H    0.023722
    38  H    0.045327
    39  H    0.060882
    40  H    0.076760
    41  H    0.020769
    42  C   -0.046415
    43  O   -0.281652
    44  C    0.139014
    45  H    0.135619
    46  N   -0.118832
    47  O   -0.350864
    48  C    0.347785
    49  H    0.037341
    50  C    0.157371
    51  C    0.043793
    52  N   -0.284304
    53  H    0.033333
    54  H    0.041280
    55  H    0.018481
    56  H    0.119782
    57  H    0.114440
    58  N    0.007598
    59  C    0.075643
    60  C    0.243056
    61  N   -0.274526
    62  H    0.027587
    63  C    0.157438
    64  N   -0.300568
    65  H    0.028597
    66  C    0.117136
    67  N   -0.244314
    68  C    0.009826
    69  C    0.179744
    70  N   -0.303880
 Sum of Mulliken charges =  -0.00000

 Dipole moment (field-independent basis, Debye):
    X=              4.1542    Y=              3.6533    Z=              6.0955  Tot=              8.2316
 Quadrupole moment (field-independent basis, Debye-Ang):
   XX=           -145.6007   YY=           -233.9554   ZZ=           -247.9407
   XY=              3.0716   XZ=             17.6894   YZ=             14.9502

 Normal termination of Gaussian 16 at Thu Jan 25 15:20:43 2018.
