 Gaussian 16, Revision A.03,
 Gaussian 16:  EM64L-G16RevA.03 25-Dec-2016

 ---------------------------------------
 #p wb97xd/cc-pvdz sp scf=(maxcycles=20)
 ---------------------------------------

 ------------------
 Base pair stacking
 ------------------
 Symbolic Z-matrix:
 Charge =  0 Multiplicity = 1

                         Standard orientation:
 ---------------------------------------------------------------------
 Center     Atomic      Atomic             Coordinates (Angstroms)
 Number     Number       Type             X           Y           Z
 ---------------------------------------------------------------------
      1          7           0       -6.492147    0.622829   -0.563256
      2          6           0       -7.718707   -0.165734   -0.790681
      3          6           0       -4.398081    1.293339   -0.511936
      4          7           0       -5.142116    2.297995    0.089554
      5          6           0       -6.373934    1.853826    0.034565
      6          1           0       -7.243407    2.388195    0.418512
      7          7           0       -2.606509    0.030972   -1.383497
      8          6           0       -3.517462   -0.888435   -1.718815
      9          1           0       -3.123146   -1.774736   -2.214037
     10          7           0       -4.836190   -0.877440   -1.535111
     11          6           0       -5.216491    0.254264   -0.919433
     12          6           0       -3.020938    1.158430   -0.765314
     13          7           0       -2.113106    2.077364   -0.429812
     14          1           0       -2.374780    2.927083    0.029239
     15          1           0       -1.141004    1.947857   -0.625762
     16          1           0       -8.350859    0.356346   -1.363387
     17          1           0       -7.484805   -1.022434   -1.249462
     18          1           0       -8.155117   -0.367510    0.086146
     19          7           0       -3.683333   -1.166907    1.376806
     20          6           0       -2.372222   -1.405700    1.042106
     21          6           0       -4.845157   -1.925613    0.871609
     22          7           0       -0.002625   -3.235483   -0.718186
     23          1           0        0.990864   -3.242890   -0.828411
     24          1           0       -0.521056   -3.920878   -1.230221
     25          7           0       -1.928587   -2.365829    0.202234
     26          6           0       -0.613167   -2.346770    0.080155
     27          7           0        0.206874   -1.456387    0.729969
     28          1           0        1.201867   -1.515563    0.576816
     29          6           0       -0.227744   -0.460227    1.598664
     30          8           0        0.595619    0.292166    2.134102
     31          6           0       -1.638733   -0.468222    1.739906
     32          7           0       -2.472571    0.342799    2.497447
     33          6           0       -3.672853   -0.107561    2.251068
     34          1           0       -4.588847    0.297928    2.682117
     35          1           0       -5.461936   -1.308542    0.384152
     36          1           0       -4.528834   -2.639664    0.248433
     37          1           0       -5.330532   -2.344735    1.638136
     38          1           0        5.984007   -1.919803   -1.102597
     39          1           0        6.215207   -2.814312    0.397747
     40          1           0        4.656750   -2.864883   -0.426892
     41          1           0        6.262857    1.704051    2.049611
     42          6           0        5.544611    0.955826    1.714196
     43          8           0        3.671993    2.061415    2.661892
     44          6           0        4.158847    1.125063    2.028625
     45          1           0        2.349805    0.206668    1.759839
     46          7           0        3.336004    0.122012    1.557395
     47          8           0        2.906089   -1.821817    0.464743
     48          6           0        3.709861   -0.986091    0.839143
     49          1           0        6.981745   -0.289630    0.750210
     50          6           0        5.939867   -0.114541    1.015135
     51          6           0        5.509168   -2.245973   -0.189247
     52          7           0        5.062358   -1.078484    0.575649
     53          1           0        4.908985   -1.483823   -3.359640
     54          1           0        3.751098   -2.106347   -2.393268
     55          1           0        5.260177   -1.877123   -1.815166
     56          1           0        1.015826    3.995133   -0.214831
     57          1           0        2.681379    4.125822   -0.559712
     58          7           0        1.860661    3.554867   -0.519054
     59          6           0        1.892504    2.263833   -0.855800
     60          6           0        2.929329    0.256919   -1.603479
     61          7           0        1.811710   -0.485519   -1.539165
     62          1           0       -0.164238   -0.275788   -1.036914
     63          6           0        0.785541    0.251085   -1.118122
     64          7           0        0.751622    1.544281   -0.780359
     65          1           0        6.048009    0.916009   -2.143489
     66          6           0        4.987635    0.955663   -1.892562
     67          7           0        4.359966    2.028240   -1.476272
     68          6           0        3.054009    1.599024   -1.289244
     69          6           0        4.555463   -1.513779   -2.424690
     70          7           0        4.182606   -0.152781   -1.992652
 ---------------------------------------------------------------------

 SCF Done:  E(RwB97XD) =  -2048.63909835     A.U. after   15 cycles

 The electronic state is 1-A.
 Alpha  occ. eigenvalues --  -19.25835 -19.22040 -19.20618 -14.52779 -14.51526
 Alpha  occ. eigenvalues --  -14.50379 -14.48266 -14.47852 -14.46857 -14.46496
 Alpha  occ. eigenvalues --  -14.46376 -14.44323 -14.43304 -14.43205 -14.43162
 Alpha  occ. eigenvalues --  -14.42906 -14.41921 -14.41678 -14.41048 -14.40597
 Alpha  occ. eigenvalues --  -10.45499 -10.40889 -10.40079 -10.38734 -10.38060
 Alpha  occ. eigenvalues --  -10.37813 -10.36954 -10.36587 -10.36067 -10.35845
 Alpha  occ. eigenvalues --  -10.35519 -10.34650 -10.34597 -10.34011 -10.34005
 Alpha  occ. eigenvalues --  -10.33057 -10.32422 -10.31554 -10.31488 -10.31112
 Alpha  occ. eigenvalues --  -10.29922 -10.29218 -10.27842  -1.19681  -1.14224
 Alpha  occ. eigenvalues --   -1.13171  -1.13005  -1.12921  -1.10377  -1.09738
 Alpha  occ. eigenvalues --   -1.08404  -1.08081  -1.06215  -1.03686  -1.02730
 Alpha  occ. eigenvalues --   -1.01830  -1.00047  -0.99497  -0.98446  -0.98320
 Alpha  occ. eigenvalues --   -0.96181  -0.95793  -0.93881  -0.91768  -0.88401
 Alpha  occ. eigenvalues --   -0.86135  -0.85374  -0.83818  -0.83619  -0.83234
 Alpha  occ. eigenvalues --   -0.81798  -0.79109  -0.76045  -0.74431  -0.74200
 Alpha  occ. eigenvalues --   -0.73888  -0.73874  -0.73389  -0.72401  -0.69859
 Alpha  occ. eigenvalues --   -0.67666  -0.67572  -0.67079  -0.66137  -0.65238
 Alpha  occ. eigenvalues --   -0.64090  -0.63971  -0.63377  -0.63116  -0.62530
 Alpha  occ. eigenvalues --   -0.61499  -0.61427  -0.60152  -0.59555  -0.59169
 Alpha  occ. eigenvalues --   -0.58794  -0.58067  -0.57840  -0.57610  -0.56739
 Alpha  occ. eigenvalues --   -0.56244  -0.56016  -0.55570  -0.54727  -0.54694
 Alpha  occ. eigenvalues --   -0.54287  -0.53547  -0.53204  -0.53077  -0.52494
 Alpha  occ. eigenvalues --   -0.52284  -0.51593  -0.51474  -0.50721  -0.50351
 Alpha  occ. eigenvalues --   -0.49920  -0.49586  -0.49450  -0.49088  -0.48792
 Alpha  occ. eigenvalues --   -0.48543  -0.48214  -0.48050  -0.47595  -0.47516
 Alpha  occ. eigenvalues --   -0.47286  -0.46143  -0.45190  -0.43184  -0.42467
 Alpha  occ. eigenvalues --   -0.41424  -0.39851  -0.39537  -0.38526  -0.37215
 Alpha  occ. eigenvalues --   -0.37010  -0.36705  -0.36594  -0.36087  -0.34983
 Alpha  occ. eigenvalues --   -0.34734  -0.33883  -0.33556  -0.33281  -0.33146
 Alpha  occ. eigenvalues --   -0.32600  -0.32059  -0.31852  -0.31617  -0.31381
 Alpha  occ. eigenvalues --   -0.31125  -0.28406  -0.26981  -0.25279
 Alpha virt. eigenvalues --    0.02365   0.05444   0.06554   0.07192   0.09047
 Alpha virt. eigenvalues --    0.09153   0.09644   0.10350   0.11209   0.11883
 Alpha virt. eigenvalues --    0.12493   0.12890   0.14635   0.14691   0.15036

 Mulliken charges:
               1
     1  N   -0.309225
     2  C    0.179957
     3  C    0.066715
     4  N   -0.248949
     5  C    0.124105
     6  H    0.029663
     7  N   -0.267084
     8  C    0.139221
     9  H    0.012190
    10  N   -0.287304
    11  C    0.201996
    12  C    0.076367
    13  N   -0.036849
    14  H    0.107684
    15  H    0.088116
    16  H    0.032155
    17  H    0.038494
    18  H    0.026513
    19  N   -0.291138
    20  C    0.226734
    21  C    0.229858
    22  N   -0.104660
    23  H    0.113930
    24  H    0.115551
    25  N   -0.288766
    26  C    0.202908
    27  N   -0.139937
    28  H    0.136237
    29  C    0.155094
    30  O   -0.324317
    31  C    0.013346
    32  N   -0.224326
    33  C    0.123107
    34  H    0.023319
    35  H   -0.008241
    36  H    0.028164
    37  H    0.009329
    38  H    0.031944
    39  H    0.051506
    40  H    0.066921
    41  H    0.030760
    42  C   -0.075994
    43  O   -0.261671
    44  C    0.176066
    45  H    0.133835
    46  N   -0.121423
    47  O   -0.328810
    48  C    0.322387
    49  H    0.043718
    50  C    0.147010
    51  C    0.103820
    52  N   -0.285365
    53  H    0.018549
    54  H    0.034544
    55  H   -0.001845
    56  H    0.117866
    57  H    0.121120
    58  N   -0.065881
    59  C    0.133790
    60  C    0.196354
    61  N   -0.270704
    62  H    0.031061
    63  C    0.161154
    64  N   -0.310460
    65  H    0.026980
    66  C    0.119387
    67  N   -0.246618
    68  C    0.035540
    69  C    0.185541
    70  N   -0.291034
 Sum of Mulliken charges =  -0.00000

 Dipole moment (field-independent basis, Debye):
    X=              3.7379    Y=             -5.2473    Z=             -5.5349  Tot=              8.4936
 Quadrupole moment (field-independent basis, Debye-Ang):
   XX=           -143.3148   YY=           -225.1206   ZZ=           -264.3321
   XY=            -17.3211   XZ=            -17.3401   YZ=             -1.6909

 Normal termination of Gaussian 16 at Thu Jan 25 12:00:53 2018.
