 Gaussian 16, Revision A.03,
 Gaussian 16:  EM64L-G16RevA.03 25-Dec-2016

 ---------------------------------------
 #p wb97xd/cc-pvdz sp scf=(maxcycles=20)
 ---------------------------------------

 ------------------
 Base pair stacking
 ------------------
 Symbolic Z-matrix:
 Charge =  0 Multiplicity = 1

                         Standard orientation:
 ---------------------------------------------------------------------
 Center     Atomic      Atomic             Coordinates (Angstroms)
 Number     Number       Type             X           Y           Z
 ---------------------------------------------------------------------
      1          7           0        5.071329   -2.128073   -0.287066
      2          6           0        6.304634   -2.225136   -1.091771
      3          6           0        2.966647   -1.970757    0.331708
      4          7           0        3.712827   -2.011212    1.500601
      5          6           0        4.950958   -2.104368    1.081024
      6          1           0        5.823771   -2.159579    1.732248
      7          7           0        1.168390   -1.858993   -1.190367
      8          6           0        2.084794   -1.935231   -2.160929
      9          1           0        1.689799   -1.918191   -3.175789
     10          7           0        3.409631   -2.028909   -2.066506
     11          6           0        3.790223   -2.041906   -0.778332
     12          6           0        1.583279   -1.874464    0.095213
     13          7           0        0.670012   -1.798455    1.065438
     14          1           0        0.931786   -1.806509    2.031162
     15          1           0       -0.306433   -1.730904    0.860192
     16          1           0        6.782893   -3.075018   -0.870075
     17          1           0        6.070761   -2.219151   -2.063572
     18          1           0        6.899482   -1.447303   -0.889023
     19          7           0        5.160429    1.553681    0.203493
     20          6           0        3.843755    1.746049   -0.139179
     21          6           0        6.319271    1.837581   -0.666674
     22          7           0        1.452709    2.748443   -2.449983
     23          1           0        0.456407    2.812942   -2.499717
     24          1           0        1.966982    3.037540   -3.257861
     25          7           0        3.391072    2.222896   -1.318902
     26          6           0        2.072176    2.294785   -1.349820
     27          7           0        1.257127    1.928231   -0.306345
     28          1           0        0.258909    2.017060   -0.418755
     29          6           0        1.701071    1.435060    0.916589
     30          8           0        0.881566    1.133330    1.793009
     31          6           0        3.115877    1.352119    0.964819
     32          7           0        3.958628    0.921124    1.980159
     33          6           0        5.158549    1.058268    1.484595
     34          1           0        6.080375    0.812112    2.012727
     35          1           0        6.838122    0.996998   -0.818407
     36          1           0        5.996256    2.191374   -1.543465
     37          1           0        6.907219    2.517750   -0.230221
     38          1           0       -4.622906    2.091734   -1.838247
     39          1           0       -4.638954    3.619879   -0.961223
     40          1           0       -3.169857    3.090111   -1.781259
     41          1           0       -4.854555    0.502377    2.696818
     42          6           0       -4.119969    0.909044    2.001677
     43          8           0       -2.249154    0.197883    3.275022
     44          6           0       -2.726111    0.758876    2.288828
     45          1           0       -0.889961    1.223179    1.513400
     46          7           0       -1.882430    1.309306    1.345171
     47          8           0       -1.421016    2.419767   -0.581268
     48          6           0       -2.243043    1.965603    0.195053
     49          1           0       -5.549958    1.684912    0.623644
     50          6           0       -4.502688    1.544270    0.887851
     51          6           0       -4.037755    2.763433   -1.227935
     52          7           0       -3.604497    2.069986   -0.011726
     53          1           0       -6.414951   -1.524367   -3.440553
     54          1           0       -5.060399   -0.624781   -3.574870
     55          1           0       -6.463268    0.075347   -3.121170
     56          1           0       -2.530112   -1.833287    2.874367
     57          1           0       -4.235038   -1.876564    2.835907
     58          7           0       -3.373298   -1.752611    2.342684
     59          6           0       -3.350672   -1.491390    1.034092
     60          6           0       -4.322849   -1.095262   -1.101250
     61          7           0       -3.150862   -0.933584   -1.737444
     62          1           0       -1.143792   -0.956146   -1.323002
     63          6           0       -2.135320   -1.072468   -0.887573
     64          7           0       -2.155921   -1.334110    0.423421
     65          1           0       -7.532920   -1.260242   -0.754299
     66          6           0       -6.452725   -1.257581   -0.605581
     67          7           0       -5.858120   -1.468541    0.543159
     68          6           0       -4.507344   -1.368416    0.242945
     69          6           0       -5.906367   -0.752945   -3.058122
     70          7           0       -5.584048   -1.024905   -1.643848
 ---------------------------------------------------------------------

 SCF Done:  E(RwB97XD) =  -2048.71919247     A.U. after   15 cycles

 The electronic state is 1-A.
 Alpha  occ. eigenvalues --  -19.25657 -19.21863 -19.20902 -14.52290 -14.51916
 Alpha  occ. eigenvalues --  -14.49195 -14.48944 -14.47629 -14.47126 -14.46869
 Alpha  occ. eigenvalues --  -14.46259 -14.44721 -14.43663 -14.43460 -14.42245
 Alpha  occ. eigenvalues --  -14.42245 -14.41217 -14.41121 -14.41079 -14.40511
 Alpha  occ. eigenvalues --  -10.45219 -10.41461 -10.40104 -10.38769 -10.38519
 Alpha  occ. eigenvalues --  -10.37349 -10.37344 -10.36363 -10.35592 -10.35141
 Alpha  occ. eigenvalues --  -10.35135 -10.34651 -10.34050 -10.33604 -10.33604
 Alpha  occ. eigenvalues --  -10.33528 -10.33306 -10.31768 -10.31557 -10.31472
 Alpha  occ. eigenvalues --  -10.30579 -10.28657 -10.28388  -1.19244  -1.14574
 Alpha  occ. eigenvalues --   -1.13475  -1.13398  -1.11481  -1.10928  -1.09180
 Alpha  occ. eigenvalues --   -1.08814  -1.08371  -1.05238  -1.03886  -1.02413
 Alpha  occ. eigenvalues --   -1.00556  -1.00231  -0.99963  -0.98795  -0.97131
 Alpha  occ. eigenvalues --   -0.96866  -0.96021  -0.92874  -0.90846  -0.86945
 Alpha  occ. eigenvalues --   -0.85356  -0.84530  -0.84108  -0.83524  -0.82996
 Alpha  occ. eigenvalues --   -0.82545  -0.78756  -0.76226  -0.74951  -0.74208
 Alpha  occ. eigenvalues --   -0.73862  -0.73131  -0.73067  -0.71217  -0.69531
 Alpha  occ. eigenvalues --   -0.67656  -0.66488  -0.66386  -0.65979  -0.64654
 Alpha  occ. eigenvalues --   -0.63963  -0.63330  -0.62853  -0.62819  -0.62015
 Alpha  occ. eigenvalues --   -0.60546  -0.60417  -0.59749  -0.59285  -0.58850
 Alpha  occ. eigenvalues --   -0.58653  -0.58586  -0.57792  -0.56718  -0.56183
 Alpha  occ. eigenvalues --   -0.55992  -0.55529  -0.55125  -0.54741  -0.54370
 Alpha  occ. eigenvalues --   -0.53996  -0.53904  -0.53280  -0.53051  -0.52562
 Alpha  occ. eigenvalues --   -0.52268  -0.52109  -0.51982  -0.51034  -0.50542
 Alpha  occ. eigenvalues --   -0.50446  -0.49994  -0.49568  -0.49385  -0.49128
 Alpha  occ. eigenvalues --   -0.48935  -0.48650  -0.48156  -0.47592  -0.47141
 Alpha  occ. eigenvalues --   -0.46813  -0.46291  -0.44838  -0.43856  -0.43081
 Alpha  occ. eigenvalues --   -0.41197  -0.40061  -0.39353  -0.37951  -0.37602
 Alpha  occ. eigenvalues --   -0.37499  -0.37059  -0.36748  -0.35525  -0.34729
 Alpha  occ. eigenvalues --   -0.33961  -0.33822  -0.33667  -0.33409  -0.33232
 Alpha  occ. eigenvalues --   -0.32954  -0.32319  -0.31851  -0.31706  -0.30997
 Alpha  occ. eigenvalues --   -0.30489  -0.28292  -0.26862  -0.24712
 Alpha virt. eigenvalues --    0.02382   0.04997   0.07017   0.07256   0.08879
 Alpha virt. eigenvalues --    0.09559   0.09772   0.11031   0.11280   0.11475
 Alpha virt. eigenvalues --    0.12574   0.13867   0.14151   0.14311   0.15388

 Mulliken charges:
               1
     1  N   -0.306693
     2  C    0.181996
     3  C    0.036549
     4  N   -0.229232
     5  C    0.126898
     6  H    0.022453
     7  N   -0.294565
     8  C    0.132223
     9  H    0.010991
    10  N   -0.288022
    11  C    0.245959
    12  C    0.081589
    13  N   -0.040618
    14  H    0.117511
    15  H    0.087157
    16  H    0.027205
    17  H    0.035854
    18  H    0.013892
    19  N   -0.306177
    20  C    0.259293
    21  C    0.182942
    22  N   -0.124548
    23  H    0.117620
    24  H    0.119785
    25  N   -0.311472
    26  C    0.250803
    27  N   -0.147282
    28  H    0.121134
    29  C    0.191278
    30  O   -0.327071
    31  C   -0.019679
    32  N   -0.206990
    33  C    0.114833
    34  H    0.019671
    35  H    0.013743
    36  H    0.033267
    37  H    0.027100
    38  H    0.052066
    39  H    0.058314
    40  H    0.076697
    41  H    0.020414
    42  C   -0.101332
    43  O   -0.291282
    44  C    0.173701
    45  H    0.126213
    46  N   -0.101811
    47  O   -0.351554
    48  C    0.340080
    49  H    0.044972
    50  C    0.185188
    51  C    0.045609
    52  N   -0.278710
    53  H    0.035428
    54  H    0.041096
    55  H    0.025236
    56  H    0.128943
    57  H    0.111622
    58  N   -0.005546
    59  C    0.029490
    60  C    0.228993
    61  N   -0.270299
    62  H    0.028674
    63  C    0.157224
    64  N   -0.293891
    65  H    0.034762
    66  C    0.122580
    67  N   -0.253092
    68  C    0.043309
    69  C    0.177490
    70  N   -0.309983
 Sum of Mulliken charges =  -0.00000

 Dipole moment (field-independent basis, Debye):
    X=             -4.2254    Y=              3.4969    Z=             -6.9010  Tot=              8.8151
 Quadrupole moment (field-independent basis, Debye-Ang):
   XX=           -146.1192   YY=           -237.7992   ZZ=           -246.2660
   XY=             -8.6059   XZ=              8.7665   YZ=            -17.1126

 Normal termination of Gaussian 16 at Thu Jan 25 16:24:14 2018.
