 Gaussian 16, Revision A.03,
 Gaussian 16:  EM64L-G16RevA.03 25-Dec-2016

 ---------------------------------------
 #p wb97xd/cc-pvdz sp scf=(maxcycles=20)
 ---------------------------------------

 ------------------
 Base pair stacking
 ------------------
 Symbolic Z-matrix:
 Charge =  0 Multiplicity = 1

                         Standard orientation:
 ---------------------------------------------------------------------
 Center     Atomic      Atomic             Coordinates (Angstroms)
 Number     Number       Type             X           Y           Z
 ---------------------------------------------------------------------
      1          7           0        4.762036   -2.198707   -0.317297
      2          6           0        5.990392   -2.299841   -1.129044
      3          6           0        2.663512   -2.010414    0.313598
      4          7           0        3.411725   -2.106070    1.477968
      5          6           0        4.646062   -2.215674    1.051273
      6          1           0        5.519083   -2.312662    1.697322
      7          7           0        0.864281   -1.806849   -1.197789
      8          6           0        1.775874   -1.874232   -2.173515
      9          1           0        1.378605   -1.815352   -3.185924
     10          7           0        3.098322   -2.002833   -2.086802
     11          6           0        3.482042   -2.066028   -0.801043
     12          6           0        1.282229   -1.873265    0.085167
     13          7           0        0.373771   -1.806171    1.060551
     14          1           0        0.637938   -1.851295    2.024601
     15          1           0       -0.601323   -1.708564    0.861009
     16          1           0        6.448520   -3.167640   -0.936152
     17          1           0        5.754048   -2.257256   -2.099325
     18          1           0        6.604485   -1.543437   -0.903782
     19          7           0        5.455777    1.320856    0.167580
     20          6           0        4.142976    1.538362   -0.174906
     21          6           0        6.615029    1.518174   -0.725678
     22          7           0        1.764452    2.493538   -2.518414
     23          1           0        0.770400    2.588592   -2.563903
     24          1           0        2.280281    2.721011   -3.344789
     25          7           0        3.695080    1.965446   -1.375339
     26          6           0        2.379043    2.079695   -1.399963
     27          7           0        1.562309    1.797775   -0.331799
     28          1           0        0.566541    1.913780   -0.441188
     29          6           0        2.001340    1.357046    0.912732
     30          8           0        1.180699    1.130893    1.810589
     31          6           0        3.413029    1.229479    0.954506
     32          7           0        4.250717    0.826185    1.985301
     33          6           0        5.449739    0.895978    1.473753
     34          1           0        6.367914    0.648081    2.007393
     35          1           0        7.104356    0.653698   -0.835371
     36          1           0        6.295541    1.834524   -1.617932
     37          1           0        7.229257    2.200931   -0.331498
     38          1           0       -4.323438    2.074884   -1.824949
     39          1           0       -4.280640    3.648015   -1.032428
     40          1           0       -2.837724    3.025636   -1.833673
     41          1           0       -4.564269    0.742420    2.791659
     42          6           0       -3.823300    1.085955    2.069736
     43          8           0       -1.964963    0.382611    3.365489
     44          6           0       -2.432506    0.904960    2.353885
     45          1           0       -0.589478    1.264757    1.540168
     46          7           0       -1.580115    1.374845    1.375160
     47          8           0       -1.100640    2.363134   -0.612451
     48          6           0       -1.929786    1.979524    0.193785
     49          1           0       -5.239944    1.833435    0.662533
     50          6           0       -4.195422    1.672321    0.925919
     51          6           0       -3.710633    2.758707   -1.256693
     52          7           0       -3.288954    2.118098   -0.007873
     53          1           0       -6.714905   -1.217746   -3.409365
     54          1           0       -5.339328   -0.347307   -3.519819
     55          1           0       -6.723547    0.371683   -3.039150
     56          1           0       -2.821248   -1.821334    2.878770
     57          1           0       -4.526812   -1.822179    2.844984
     58          7           0       -3.663692   -1.703429    2.352910
     59          6           0       -3.638368   -1.401283    1.053197
     60          6           0       -4.606555   -0.913999   -1.065026
     61          7           0       -3.432761   -0.760485   -1.699900
     62          1           0       -1.425688   -0.844680   -1.293489
     63          6           0       -2.418535   -0.950834   -0.858468
     64          7           0       -2.441853   -1.253524    0.443617
     65          1           0       -7.818719   -1.012401   -0.712135
     66          6           0       -6.738370   -1.040557   -0.567238
     67          7           0       -6.145866   -1.302286    0.572110
     68          6           0       -4.793905   -1.225289    0.270459
     69          6           0       -6.186725   -0.471397   -3.004416
     70          7           0       -5.867178   -0.795965   -1.600655
 ---------------------------------------------------------------------

 SCF Done:  E(RwB97XD) =  -2048.73917250     A.U. after   15 cycles

 The electronic state is 1-A.
 Alpha  occ. eigenvalues --  -19.25474 -19.21945 -19.20897 -14.52189 -14.52007
 Alpha  occ. eigenvalues --  -14.49329 -14.48949 -14.47393 -14.47181 -14.47094
 Alpha  occ. eigenvalues --  -14.46853 -14.45009 -14.44102 -14.43942 -14.42420
 Alpha  occ. eigenvalues --  -14.42256 -14.41273 -14.41234 -14.41166 -14.40659
 Alpha  occ. eigenvalues --  -10.45028 -10.41480 -10.39941 -10.39401 -10.38529
 Alpha  occ. eigenvalues --  -10.37576 -10.37141 -10.36785 -10.35704 -10.35623
 Alpha  occ. eigenvalues --  -10.34787 -10.34748 -10.34069 -10.33786 -10.33745
 Alpha  occ. eigenvalues --  -10.33584 -10.33401 -10.32156 -10.31712 -10.31455
 Alpha  occ. eigenvalues --  -10.30377 -10.28717 -10.28472  -1.19034  -1.14863
 Alpha  occ. eigenvalues --   -1.13495  -1.12991  -1.11487  -1.11021  -1.09038
 Alpha  occ. eigenvalues --   -1.08857  -1.08733  -1.05347  -1.04361  -1.02155
 Alpha  occ. eigenvalues --   -1.00665  -1.00561  -0.99957  -0.98840  -0.97184
 Alpha  occ. eigenvalues --   -0.96949  -0.96489  -0.92997  -0.90604  -0.87274
 Alpha  occ. eigenvalues --   -0.85626  -0.84638  -0.84130  -0.83268  -0.83060
 Alpha  occ. eigenvalues --   -0.82574  -0.78479  -0.76606  -0.75007  -0.74557
 Alpha  occ. eigenvalues --   -0.73874  -0.73120  -0.72942  -0.71291  -0.69928
 Alpha  occ. eigenvalues --   -0.67678  -0.66539  -0.66441  -0.66068  -0.64669
 Alpha  occ. eigenvalues --   -0.63795  -0.63686  -0.62922  -0.62839  -0.62041
 Alpha  occ. eigenvalues --   -0.60543  -0.60426  -0.60005  -0.59227  -0.59135
 Alpha  occ. eigenvalues --   -0.58784  -0.58568  -0.58102  -0.56791  -0.56007
 Alpha  occ. eigenvalues --   -0.55890  -0.55650  -0.54957  -0.54681  -0.54326
 Alpha  occ. eigenvalues --   -0.54136  -0.53742  -0.53367  -0.53286  -0.52770
 Alpha  occ. eigenvalues --   -0.52438  -0.52010  -0.51990  -0.50957  -0.50594
 Alpha  occ. eigenvalues --   -0.50476  -0.49886  -0.49665  -0.49190  -0.49079
 Alpha  occ. eigenvalues --   -0.49058  -0.48614  -0.48382  -0.47476  -0.47214
 Alpha  occ. eigenvalues --   -0.47076  -0.46194  -0.44894  -0.44427  -0.43329
 Alpha  occ. eigenvalues --   -0.41271  -0.40390  -0.39199  -0.37780  -0.37641
 Alpha  occ. eigenvalues --   -0.37512  -0.37163  -0.37108  -0.35715  -0.34621
 Alpha  occ. eigenvalues --   -0.34236  -0.34003  -0.33763  -0.33556  -0.33305
 Alpha  occ. eigenvalues --   -0.32950  -0.32416  -0.31957  -0.31683  -0.31093
 Alpha  occ. eigenvalues --   -0.30625  -0.29123  -0.26854  -0.24917
 Alpha virt. eigenvalues --    0.03088   0.04676   0.06498   0.07318   0.08668
 Alpha virt. eigenvalues --    0.09526   0.09706   0.10842   0.10996   0.11774
 Alpha virt. eigenvalues --    0.12724   0.13825   0.14227   0.14337   0.15142

 Mulliken charges:
               1
     1  N   -0.305868
     2  C    0.188020
     3  C    0.035706
     4  N   -0.231739
     5  C    0.137674
     6  H    0.023654
     7  N   -0.294271
     8  C    0.129543
     9  H    0.010024
    10  N   -0.285738
    11  C    0.245080
    12  C    0.078569
    13  N   -0.044290
    14  H    0.118199
    15  H    0.087754
    16  H    0.027385
    17  H    0.036488
    18  H    0.005297
    19  N   -0.303809
    20  C    0.255508
    21  C    0.183385
    22  N   -0.123501
    23  H    0.118149
    24  H    0.119922
    25  N   -0.310054
    26  C    0.250628
    27  N   -0.144657
    28  H    0.121043
    29  C    0.187708
    30  O   -0.322527
    31  C   -0.014685
    32  N   -0.207004
    33  C    0.104519
    34  H    0.020747
    35  H    0.011900
    36  H    0.033697
    37  H    0.027851
    38  H    0.051436
    39  H    0.056103
    40  H    0.075453
    41  H    0.017165
    42  C   -0.104911
    43  O   -0.285308
    44  C    0.179995
    45  H    0.127052
    46  N   -0.108094
    47  O   -0.351077
    48  C    0.334300
    49  H    0.044960
    50  C    0.177316
    51  C    0.046718
    52  N   -0.274568
    53  H    0.036205
    54  H    0.041705
    55  H    0.026757
    56  H    0.127443
    57  H    0.115914
    58  N   -0.027942
    59  C    0.051700
    60  C    0.226501
    61  N   -0.269082
    62  H    0.031654
    63  C    0.158779
    64  N   -0.298617
    65  H    0.036606
    66  C    0.129444
    67  N   -0.255810
    68  C    0.045258
    69  C    0.177320
    70  N   -0.310685
 Sum of Mulliken charges =  -0.00000

 Dipole moment (field-independent basis, Debye):
    X=             -4.2750    Y=              2.9594    Z=             -7.2548  Tot=              8.9256
 Quadrupole moment (field-independent basis, Debye-Ang):
   XX=           -145.9036   YY=           -238.0893   ZZ=           -247.0754
   XY=            -10.2498   XZ=              5.6388   YZ=            -17.6671

 Normal termination of Gaussian 16 at Thu Jan 25 12:37:59 2018.
