 Gaussian 16, Revision A.03,
 Gaussian 16:  EM64L-G16RevA.03 25-Dec-2016

 ---------------------------------------
 #p wb97xd/cc-pvdz sp scf=(maxcycles=20)
 ---------------------------------------

 ------------------
 Base pair stacking
 ------------------
 Symbolic Z-matrix:
 Charge =  0 Multiplicity = 1

                         Standard orientation:
 ---------------------------------------------------------------------
 Center     Atomic      Atomic             Coordinates (Angstroms)
 Number     Number       Type             X           Y           Z
 ---------------------------------------------------------------------
      1          7           0       -5.673448    0.820665   -1.006943
      2          6           0       -6.919376    0.069054   -1.253457
      3          6           0       -3.557511    1.405830   -0.873900
      4          7           0       -4.288765    2.481748   -0.391814
      5          6           0       -5.534270    2.086138   -0.491265
      6          1           0       -6.399379    2.682710   -0.200336
      7          7           0       -1.777586    0.009971   -1.542044
      8          6           0       -2.708447   -0.892966   -1.867267
      9          1           0       -2.326751   -1.828687   -2.273469
     10          7           0       -4.033774   -0.813963   -1.766525
     11          6           0       -4.397326    0.374514   -1.256830
     12          6           0       -2.175505    1.195831   -1.031664
     13          7           0       -1.247792    2.098457   -0.706414
     14          1           0       -1.496758    2.989591   -0.325453
     15          1           0       -0.272834    1.914821   -0.832376
     16          1           0       -7.492346    0.573581   -1.899468
     17          1           0       -6.698434   -0.827855   -1.635363
     18          1           0       -7.415168   -0.049789   -0.393182
     19          7           0       -4.566279   -0.850387    1.178775
     20          6           0       -3.249932   -1.154031    0.927599
     21          6           0       -5.729639   -1.540169    0.585919
     22          7           0       -0.866406   -3.084543   -0.701419
     23          1           0        0.130496   -3.143142   -0.745913
     24          1           0       -1.384415   -3.735092   -1.257449
     25          7           0       -2.801718   -2.125735    0.103622
     26          6           0       -1.481866   -2.174807    0.068971
     27          7           0       -0.661870   -1.337256    0.785651
     28          1           0        0.336698   -1.447095    0.697598
     29          6           0       -1.101164   -0.330416    1.639564
     30          8           0       -0.277389    0.370590    2.240158
     31          6           0       -2.516931   -0.265486    1.687192
     32          7           0       -3.356203    0.579001    2.400886
     33          6           0       -4.559143    0.195917    2.068647
     34          1           0       -5.479548    0.643911    2.444701
     35          1           0       -6.279577   -0.885279    0.068729
     36          1           0       -5.409953   -2.262110   -0.026347
     37          1           0       -6.286236   -1.942549    1.311922
     38          1           0        5.192815   -2.082879   -0.668660
     39          1           0        5.276494   -3.007038    0.829198
     40          1           0        3.776073   -2.964743   -0.097242
     41          1           0        5.448551    1.481494    2.552596
     42          6           0        4.716386    0.776578    2.158579
     43          8           0        2.844678    1.967797    2.998114
     44          6           0        3.323397    1.014980    2.383493
     45          1           0        1.491050    0.197048    1.981207
     46          7           0        2.482825    0.062848    1.842992
     47          8           0        2.026376   -1.841701    0.693412
     48          6           0        2.845700   -1.054428    1.133373
     49          1           0        6.147994   -0.531060    1.271795
     50          6           0        5.101264   -0.304400    1.470120
     51          6           0        4.641740   -2.394832    0.206018
     52          7           0        4.206140   -1.214980    0.958315
     53          1           0        5.763570   -1.955257   -2.938863
     54          1           0        4.523802   -2.456936   -2.004306
     55          1           0        6.005328   -2.248739   -1.351774
     56          1           0        1.947619    3.895574   -0.434522
     57          1           0        3.634752    3.931593   -0.684317
     58          7           0        2.787800    3.399627   -0.654229
     59          6           0        2.780221    2.087212   -0.896481
     60          6           0        3.766164   -0.010232   -1.435350
     61          7           0        2.613897   -0.699052   -1.387940
     62          1           0        0.623591   -0.371495   -1.024630
     63          6           0        1.599601    0.108244   -1.084027
     64          7           0        1.605147    1.422974   -0.841037
     65          1           0        6.938000    0.477862   -1.827009
     66          6           0        5.867665    0.579649   -1.645415
     67          7           0        5.266422    1.704868   -1.345333
     68          6           0        3.933487    1.344947   -1.209460
     69          6           0        5.354885   -1.902079   -2.027735
     70          7           0        5.020017   -0.498847   -1.716584
 ---------------------------------------------------------------------

 SCF Done:  E(RwB97XD) =  -2048.56318731     A.U. after   15 cycles

 The electronic state is 1-A.
 Alpha  occ. eigenvalues --  -19.24275 -19.21156 -19.20467 -14.52969 -14.51263
 Alpha  occ. eigenvalues --  -14.49648 -14.48677 -14.47750 -14.47017 -14.46769
 Alpha  occ. eigenvalues --  -14.46512 -14.45541 -14.44294 -14.44094 -14.43313
 Alpha  occ. eigenvalues --  -14.42227 -14.41622 -14.40894 -14.40840 -14.40757
 Alpha  occ. eigenvalues --  -10.44174 -10.40855 -10.39744 -10.39261 -10.38289
 Alpha  occ. eigenvalues --  -10.38090 -10.37413 -10.36884 -10.36405 -10.35842
 Alpha  occ. eigenvalues --  -10.35433 -10.34791 -10.34120 -10.34098 -10.34081
 Alpha  occ. eigenvalues --  -10.33408 -10.32686 -10.32404 -10.31696 -10.30208
 Alpha  occ. eigenvalues --  -10.29630 -10.29028 -10.28137  -1.18496  -1.15846
 Alpha  occ. eigenvalues --   -1.13301  -1.12342  -1.12151  -1.10452  -1.09330
 Alpha  occ. eigenvalues --   -1.08654  -1.08264  -1.05933  -1.04798  -1.02564
 Alpha  occ. eigenvalues --   -1.01475  -1.01423  -0.99741  -0.98405  -0.98389
 Alpha  occ. eigenvalues --   -0.97024  -0.96408  -0.93620  -0.91747  -0.89600
 Alpha  occ. eigenvalues --   -0.87308  -0.86053  -0.84045  -0.83788  -0.82055
 Alpha  occ. eigenvalues --   -0.81785  -0.78034  -0.77251  -0.75081  -0.74544
 Alpha  occ. eigenvalues --   -0.74015  -0.73512  -0.72811  -0.72015  -0.70916
 Alpha  occ. eigenvalues --   -0.68176  -0.67670  -0.67118  -0.66834  -0.65036
 Alpha  occ. eigenvalues --   -0.64719  -0.64541  -0.63722  -0.62894  -0.62518
 Alpha  occ. eigenvalues --   -0.61764  -0.61602  -0.61250  -0.60863  -0.59846
 Alpha  occ. eigenvalues --   -0.59361  -0.58681  -0.58371  -0.57698  -0.57041
 Alpha  occ. eigenvalues --   -0.56871  -0.55989  -0.55214  -0.54632  -0.54401
 Alpha  occ. eigenvalues --   -0.53967  -0.53597  -0.53339  -0.53026  -0.52578
 Alpha  occ. eigenvalues --   -0.52143  -0.51532  -0.51471  -0.51148  -0.50193
 Alpha  occ. eigenvalues --   -0.49865  -0.49733  -0.49465  -0.48874  -0.48667
 Alpha  occ. eigenvalues --   -0.48452  -0.47886  -0.47868  -0.47376  -0.47000
 Alpha  occ. eigenvalues --   -0.46147  -0.45696  -0.45098  -0.43122  -0.41955
 Alpha  occ. eigenvalues --   -0.41072  -0.40298  -0.38538  -0.38084  -0.37928
 Alpha  occ. eigenvalues --   -0.37573  -0.37002  -0.35988  -0.35933  -0.35044
 Alpha  occ. eigenvalues --   -0.34783  -0.34725  -0.33658  -0.33400  -0.32708
 Alpha  occ. eigenvalues --   -0.32227  -0.32187  -0.31749  -0.31473  -0.30895
 Alpha  occ. eigenvalues --   -0.30563  -0.29297  -0.27512  -0.24030
 Alpha virt. eigenvalues --    0.03563   0.04101   0.06925   0.07220   0.08497
 Alpha virt. eigenvalues --    0.09138   0.09668   0.09920   0.11031   0.11865
 Alpha virt. eigenvalues --    0.12996   0.13447   0.14069   0.14547   0.14806

 Mulliken charges:
               1
     1  N   -0.319692
     2  C    0.274785
     3  C    0.071465
     4  N   -0.241637
     5  C    0.114353
     6  H    0.025240
     7  N   -0.273874
     8  C    0.145084
     9  H   -0.006535
    10  N   -0.257942
    11  C    0.189955
    12  C    0.062958
    13  N   -0.042822
    14  H    0.109958
    15  H    0.087317
    16  H    0.010274
    17  H    0.025369
    18  H    0.015654
    19  N   -0.280947
    20  C    0.200913
    21  C    0.249447
    22  N   -0.098142
    23  H    0.117741
    24  H    0.120914
    25  N   -0.267989
    26  C    0.189581
    27  N   -0.114031
    28  H    0.116029
    29  C    0.165431
    30  O   -0.320985
    31  C    0.019217
    32  N   -0.217085
    33  C    0.125302
    34  H    0.018350
    35  H   -0.111253
    36  H    0.043493
    37  H    0.020663
    38  H   -0.001467
    39  H    0.042026
    40  H    0.075857
    41  H    0.024015
    42  C   -0.086528
    43  O   -0.270208
    44  C    0.167629
    45  H    0.129825
    46  N   -0.110383
    47  O   -0.331014
    48  C    0.313341
    49  H    0.035035
    50  C    0.155782
    51  C    0.013260
    52  N   -0.256954
    53  H    0.005863
    54  H    0.028153
    55  H    0.004428
    56  H    0.121892
    57  H    0.121529
    58  N   -0.062543
    59  C    0.121342
    60  C    0.196055
    61  N   -0.253164
    62  H    0.014717
    63  C    0.164653
    64  N   -0.296377
    65  H    0.037428
    66  C    0.120914
    67  N   -0.245695
    68  C    0.048298
    69  C    0.337109
    70  N   -0.331376
 Sum of Mulliken charges =  -0.00000

 Dipole moment (field-independent basis, Debye):
    X=              4.2357    Y=             -5.5110    Z=             -6.4802  Tot=              9.5029
 Quadrupole moment (field-independent basis, Debye-Ang):
   XX=           -145.7977   YY=           -225.0512   ZZ=           -267.5233
   XY=            -13.3852   XZ=            -10.2082   YZ=             -3.4628

 Normal termination of Gaussian 16 at Thu Jan 25 14:29:02 2018.
