 Gaussian 16, Revision A.03,
 Gaussian 16:  EM64L-G16RevA.03 25-Dec-2016

 ---------------------------------------
 #p wb97xd/cc-pvdz sp scf=(maxcycles=20)
 ---------------------------------------

 ------------------
 Base pair stacking
 ------------------
 Symbolic Z-matrix:
 Charge =  0 Multiplicity = 1

                         Standard orientation:
 ---------------------------------------------------------------------
 Center     Atomic      Atomic             Coordinates (Angstroms)
 Number     Number       Type             X           Y           Z
 ---------------------------------------------------------------------
      1          7           0       -6.226889    0.736898   -0.696536
      2          6           0       -7.461854   -0.023801   -0.968937
      3          6           0       -4.123334    1.369716   -0.587532
      4          7           0       -4.861820    2.369581    0.028620
      5          6           0       -6.099574    1.948315   -0.061710
      6          1           0       -6.967153    2.486430    0.321279
      7          7           0       -2.336810    0.101983   -1.461674
      8          6           0       -3.256401   -0.791839   -1.839825
      9          1           0       -2.867566   -1.670419   -2.352820
     10          7           0       -4.578000   -0.763453   -1.680191
     11          6           0       -4.951025    0.356739   -1.039544
     12          6           0       -2.744071    1.218466   -0.819262
     13          7           0       -1.827611    2.111869   -0.440990
     14          1           0       -2.083769    2.952638    0.037252
     15          1           0       -0.854264    1.971319   -0.622629
     16          1           0       -8.074323    0.525008   -1.538029
     17          1           0       -7.233580   -0.871072   -1.447612
     18          1           0       -7.918038   -0.242757   -0.106408
     19          7           0       -3.976150   -1.129049    1.307569
     20          6           0       -2.663096   -1.380698    0.990382
     21          6           0       -5.140657   -1.853168    0.759601
     22          7           0       -0.291367   -3.200352   -0.777540
     23          1           0        0.703777   -3.221650   -0.869629
     24          1           0       -0.811339   -3.862020   -1.318410
     25          7           0       -2.219672   -2.324182    0.131741
     26          6           0       -0.902036   -2.324213    0.034480
     27          7           0       -0.079750   -1.466721    0.724451
     28          1           0        0.916839   -1.538580    0.588014
     29          6           0       -0.514116   -0.488203    1.613099
     30          8           0        0.311371    0.234548    2.184894
     31          6           0       -1.927450   -0.476016    1.728054
     32          7           0       -2.761872    0.327442    2.492974
     33          6           0       -3.964595   -0.095160    2.211781
     34          1           0       -4.881711    0.313620    2.637301
     35          1           0       -5.737781   -1.212098    0.278698
     36          1           0       -4.824515   -2.554633    0.122205
     37          1           0       -5.647315   -2.285396    1.504771
     38          1           0        5.722481   -1.977071   -1.013928
     39          1           0        5.910410   -2.917433    0.464260
     40          1           0        4.367193   -2.917985   -0.390039
     41          1           0        6.001848    1.550987    2.245114
     42          6           0        5.277735    0.824949    1.875296
     43          8           0        3.406160    1.935220    2.819550
     44          6           0        3.889289    1.008946    2.168865
     45          1           0        2.070653    0.129632    1.840694
     46          7           0        3.058950    0.033842    1.654111
     47          8           0        2.617556   -1.870699    0.498639
     48          6           0        3.427874   -1.059767    0.911502
     49          1           0        6.711952   -0.417215    0.902739
     50          6           0        5.668315   -0.231854    1.153339
     51          6           0        5.225126   -2.320733   -0.119166
     52          7           0        4.783377   -1.167839    0.670414
     53          1           0        5.188495   -1.484884   -3.341569
     54          1           0        4.002385   -2.114536   -2.414870
     55          1           0        5.503873   -1.927619   -1.802758
     56          1           0        1.328103    3.968925   -0.113744
     57          1           0        3.001814    4.080750   -0.424023
     58          7           0        2.171110    3.523024   -0.414815
     59          6           0        2.187875    2.241663   -0.787660
     60          6           0        3.205184    0.239208   -1.573149
     61          7           0        2.074381   -0.485498   -1.550657
     62          1           0        0.093052   -0.256241   -1.079084
     63          6           0        1.052798    0.256384   -1.127706
     64          7           0        1.033985    1.539907   -0.753829
     65          1           0        6.344018    0.859771   -2.036611
     66          6           0        5.279898    0.910483   -1.804209
     67          7           0        4.662367    1.981457   -1.369070
     68          6           0        3.346166    1.569567   -1.218461
     69          6           0        4.816926   -1.535181   -2.414537
     70          7           0        4.458616   -0.180740   -1.950727
 ---------------------------------------------------------------------

 SCF Done:  E(RwB97XD) =  -2048.60130470     A.U. after   15 cycles

 The electronic state is 1-A.
 Alpha  occ. eigenvalues --  -19.25208 -19.21693 -19.20673 -14.52209 -14.52120
 Alpha  occ. eigenvalues --  -14.50199 -14.48436 -14.47446 -14.47143 -14.46736
 Alpha  occ. eigenvalues --  -14.46607 -14.44794 -14.43646 -14.43580 -14.43228
 Alpha  occ. eigenvalues --  -14.42689 -14.41763 -14.41678 -14.40958 -14.40668
 Alpha  occ. eigenvalues --  -10.44922 -10.41039 -10.39743 -10.39096 -10.38171
 Alpha  occ. eigenvalues --  -10.37449 -10.37441 -10.36568 -10.36500 -10.35312
 Alpha  occ. eigenvalues --  -10.34925 -10.34486 -10.34140 -10.34044 -10.34013
 Alpha  occ. eigenvalues --  -10.33104 -10.32688 -10.32444 -10.32059 -10.30695
 Alpha  occ. eigenvalues --  -10.29711 -10.29647 -10.27926  -1.19150  -1.14811
 Alpha  occ. eigenvalues --   -1.13220  -1.12767  -1.12657  -1.10430  -1.09269
 Alpha  occ. eigenvalues --   -1.08500  -1.08423  -1.06086  -1.04064  -1.02381
 Alpha  occ. eigenvalues --   -1.01637  -1.00764  -0.99654  -0.98433  -0.98309
 Alpha  occ. eigenvalues --   -0.96333  -0.96249  -0.93715  -0.91829  -0.89407
 Alpha  occ. eigenvalues --   -0.86571  -0.85258  -0.83870  -0.83624  -0.82872
 Alpha  occ. eigenvalues --   -0.82016  -0.78676  -0.76462  -0.74618  -0.74212
 Alpha  occ. eigenvalues --   -0.74092  -0.73782  -0.73475  -0.72218  -0.70643
 Alpha  occ. eigenvalues --   -0.68316  -0.67528  -0.67215  -0.65899  -0.65585
 Alpha  occ. eigenvalues --   -0.64133  -0.63859  -0.63748  -0.63169  -0.62557
 Alpha  occ. eigenvalues --   -0.61608  -0.61386  -0.60386  -0.59585  -0.59287
 Alpha  occ. eigenvalues --   -0.59084  -0.58393  -0.58230  -0.57691  -0.56692
 Alpha  occ. eigenvalues --   -0.56067  -0.55745  -0.55443  -0.54921  -0.54461
 Alpha  occ. eigenvalues --   -0.53994  -0.53507  -0.53218  -0.53051  -0.52653
 Alpha  occ. eigenvalues --   -0.52505  -0.51590  -0.51426  -0.50995  -0.50269
 Alpha  occ. eigenvalues --   -0.49829  -0.49608  -0.49340  -0.49214  -0.48804
 Alpha  occ. eigenvalues --   -0.48420  -0.48199  -0.48095  -0.47488  -0.47411
 Alpha  occ. eigenvalues --   -0.46944  -0.46278  -0.45179  -0.43033  -0.41903
 Alpha  occ. eigenvalues --   -0.41173  -0.40151  -0.39128  -0.38293  -0.37213
 Alpha  occ. eigenvalues --   -0.37116  -0.37087  -0.36951  -0.35953  -0.34685
 Alpha  occ. eigenvalues --   -0.34629  -0.34190  -0.33714  -0.33419  -0.32936
 Alpha  occ. eigenvalues --   -0.32697  -0.32457  -0.31775  -0.31414  -0.31070
 Alpha  occ. eigenvalues --   -0.30840  -0.28572  -0.26930  -0.25343
 Alpha virt. eigenvalues --    0.02546   0.05367   0.06496   0.06654   0.09089
 Alpha virt. eigenvalues --    0.09318   0.09743   0.10553   0.11197   0.11919
 Alpha virt. eigenvalues --    0.12801   0.13021   0.14482   0.14624   0.15013

 Mulliken charges:
               1
     1  N   -0.309080
     2  C    0.185914
     3  C    0.070862
     4  N   -0.246364
     5  C    0.119837
     6  H    0.028386
     7  N   -0.273602
     8  C    0.156177
     9  H    0.006382
    10  N   -0.282564
    11  C    0.200119
    12  C    0.068512
    13  N   -0.039262
    14  H    0.109042
    15  H    0.089722
    16  H    0.030169
    17  H    0.040734
    18  H    0.027210
    19  N   -0.289387
    20  C    0.219334
    21  C    0.237406
    22  N   -0.106827
    23  H    0.115610
    24  H    0.116938
    25  N   -0.293581
    26  C    0.213902
    27  N   -0.141643
    28  H    0.129260
    29  C    0.165097
    30  O   -0.322255
    31  C    0.006320
    32  N   -0.221941
    33  C    0.128081
    34  H    0.021905
    35  H   -0.038790
    36  H    0.033450
    37  H    0.014011
    38  H    0.050364
    39  H    0.046747
    40  H    0.064041
    41  H    0.027610
    42  C   -0.076753
    43  O   -0.265797
    44  C    0.171330
    45  H    0.133120
    46  N   -0.121928
    47  O   -0.326320
    48  C    0.318670
    49  H    0.041766
    50  C    0.150194
    51  C    0.056129
    52  N   -0.275870
    53  H    0.019287
    54  H    0.035732
    55  H   -0.015909
    56  H    0.119626
    57  H    0.121111
    58  N   -0.062813
    59  C    0.130178
    60  C    0.195226
    61  N   -0.253416
    62  H    0.039081
    63  C    0.140234
    64  N   -0.305830
    65  H    0.030865
    66  C    0.119788
    67  N   -0.243603
    68  C    0.035709
    69  C    0.233113
    70  N   -0.300768
 Sum of Mulliken charges =  -0.00000

 Dipole moment (field-independent basis, Debye):
    X=              3.7678    Y=             -5.1364    Z=             -6.0463  Tot=              8.7827
 Quadrupole moment (field-independent basis, Debye-Ang):
   XX=           -145.9519   YY=           -224.6803   ZZ=           -265.2449
   XY=            -15.2060   XZ=            -16.0438   YZ=             -0.7223

 Normal termination of Gaussian 16 at Thu Jan 25 11:10:02 2018.
