 Gaussian 16, Revision A.03,
 Gaussian 16:  EM64L-G16RevA.03 25-Dec-2016

 ---------------------------------------
 #p wb97xd/cc-pvdz sp scf=(maxcycles=20)
 ---------------------------------------

 ------------------
 Base pair stacking
 ------------------
 Symbolic Z-matrix:
 Charge =  0 Multiplicity = 1

                         Standard orientation:
 ---------------------------------------------------------------------
 Center     Atomic      Atomic             Coordinates (Angstroms)
 Number     Number       Type             X           Y           Z
 ---------------------------------------------------------------------
      1          7           0       -6.734059    0.481998   -0.417642
      2          6           0       -7.946881   -0.350243   -0.537849
      3          6           0       -4.654271    1.195059   -0.475363
      4          7           0       -5.410148    2.243502    0.028777
      5          6           0       -6.632888    1.771944    0.043380
      6          1           0       -7.507489    2.327157    0.383606
      7          7           0       -2.849925   -0.117913   -1.239161
      8          6           0       -3.746139   -1.085567   -1.458312
      9          1           0       -3.340727   -2.011842   -1.863185
     10          7           0       -5.061772   -1.080843   -1.253376
     11          6           0       -5.456534    0.102526   -0.755152
     12          6           0       -3.278678    1.060846   -0.737396
     13          7           0       -2.385585    2.028007   -0.517952
     14          1           0       -2.658175    2.916647   -0.147504
     15          1           0       -1.414112    1.897365   -0.716262
     16          1           0       -8.598921    0.095118   -1.151598
     17          1           0       -7.701895   -1.246338   -0.906799
     18          1           0       -8.365137   -0.465618    0.363119
     19          7           0       -3.413783   -1.107748    1.413722
     20          6           0       -2.105110   -1.342745    1.067009
     21          6           0       -4.575527   -1.886475    0.939784
     22          7           0        0.257065   -3.189704   -0.685303
     23          1           0        1.249090   -3.191257   -0.808318
     24          1           0       -0.262078   -3.889984   -1.176028
     25          7           0       -1.664191   -2.316700    0.241755
     26          6           0       -0.350657   -2.289397    0.102115
     27          7           0        0.470087   -1.378794    0.722336
     28          1           0        1.463493   -1.433000    0.557472
     29          6           0        0.038248   -0.368139    1.575540
     30          8           0        0.862025    0.402131    2.084271
     31          6           0       -1.370677   -0.384762    1.735338
     32          7           0       -2.201546    0.435172    2.486525
     33          6           0       -3.401036   -0.030145    2.265358
     34          1           0       -4.314814    0.376804    2.699731
     35          1           0       -5.203756   -1.284911    0.447581
     36          1           0       -4.261211   -2.610874    0.327648
     37          1           0       -5.047409   -2.293308    1.721204
     38          1           0        6.226861   -1.833228   -1.175408
     39          1           0        6.484958   -2.693952    0.340225
     40          1           0        4.916492   -2.774728   -0.462739
     41          1           0        6.515496    1.858491    1.896149
     42          6           0        5.799363    1.097479    1.585916
     43          8           0        3.929790    2.207353    2.534589
     44          6           0        4.416391    1.261904    1.914801
     45          1           0        2.611905    0.323182    1.689002
     46          7           0        3.596094    0.242395    1.475524
     47          8           0        3.168676   -1.727524    0.429599
     48          6           0        3.970068   -0.877495    0.775859
     49          1           0        7.234490   -0.156179    0.629586
     50          6           0        6.194671    0.015886    0.904363
     51          6           0        5.766612   -2.143949   -0.249296
     52          7           0        5.319786   -0.964305    0.496715
     53          1           0        4.664481   -1.687746   -3.176072
     54          1           0        3.535394   -2.225941   -2.128401
     55          1           0        5.048062   -1.906691   -1.604971
     56          1           0        0.704595    4.018711   -0.564329
     57          1           0        2.361393    4.144388   -0.950771
     58          7           0        1.553804    3.565078   -0.834901
     59          6           0        1.607993    2.246319   -1.032627
     60          6           0        2.675707    0.191663   -1.580482
     61          7           0        1.575353   -0.561401   -1.417523
     62          1           0       -0.396547   -0.337937   -0.905391
     63          6           0        0.540362    0.195749   -1.059192
     64          7           0        0.484065    1.516732   -0.860634
     65          1           0        5.770760    0.850220   -2.243103
     66          6           0        4.713826    0.895693   -1.978989
     67          7           0        4.069933    1.994123   -1.668277
     68          6           0        2.776531    1.561859   -1.413363
     69          6           0        4.326309   -1.624484   -2.237114
     70          7           0        3.931221   -0.232655   -1.946027
 ---------------------------------------------------------------------

 SCF Done:  E(RwB97XD) =  -2048.59359520     A.U. after   15 cycles

 The electronic state is 1-A.
 Alpha  occ. eigenvalues --  -19.26189 -19.22208 -19.20538 -14.53207 -14.51112
 Alpha  occ. eigenvalues --  -14.50660 -14.48160 -14.47912 -14.46813 -14.46085
 Alpha  occ. eigenvalues --  -14.46003 -14.44047 -14.43527 -14.43187 -14.43053
 Alpha  occ. eigenvalues --  -14.42795 -14.42018 -14.41657 -14.41173 -14.40429
 Alpha  occ. eigenvalues --  -10.45902 -10.40620 -10.40280 -10.38599 -10.38109
 Alpha  occ. eigenvalues --  -10.37912 -10.36786 -10.36714 -10.36648 -10.35838
 Alpha  occ. eigenvalues --  -10.35785 -10.34799 -10.34710 -10.34028 -10.33883
 Alpha  occ. eigenvalues --  -10.32920 -10.32523 -10.31443 -10.31146 -10.30902
 Alpha  occ. eigenvalues --  -10.30282 -10.27978 -10.27776  -1.20138  -1.13913
 Alpha  occ. eigenvalues --   -1.13325  -1.13211  -1.13046  -1.10324  -1.10109
 Alpha  occ. eigenvalues --   -1.08340  -1.07925  -1.06590  -1.03611  -1.03047
 Alpha  occ. eigenvalues --   -1.02372  -0.99718  -0.99304  -0.98682  -0.98234
 Alpha  occ. eigenvalues --   -0.95972  -0.95634  -0.94314  -0.92248  -0.88300
 Alpha  occ. eigenvalues --   -0.86031  -0.85676  -0.83973  -0.83520  -0.83203
 Alpha  occ. eigenvalues --   -0.81429  -0.79436  -0.75922  -0.74544  -0.74263
 Alpha  occ. eigenvalues --   -0.74018  -0.73800  -0.73326  -0.72805  -0.69565
 Alpha  occ. eigenvalues --   -0.67945  -0.67357  -0.66966  -0.66549  -0.65186
 Alpha  occ. eigenvalues --   -0.64334  -0.63954  -0.63318  -0.63063  -0.62466
 Alpha  occ. eigenvalues --   -0.61658  -0.61321  -0.60299  -0.59723  -0.59448
 Alpha  occ. eigenvalues --   -0.58799  -0.58034  -0.57854  -0.57141  -0.56986
 Alpha  occ. eigenvalues --   -0.56772  -0.56604  -0.55951  -0.55163  -0.54740
 Alpha  occ. eigenvalues --   -0.54405  -0.53671  -0.53178  -0.53016  -0.52390
 Alpha  occ. eigenvalues --   -0.52089  -0.51638  -0.51465  -0.50581  -0.50458
 Alpha  occ. eigenvalues --   -0.50249  -0.49738  -0.49525  -0.49140  -0.48675
 Alpha  occ. eigenvalues --   -0.48477  -0.48317  -0.47911  -0.47382  -0.47130
 Alpha  occ. eigenvalues --   -0.47006  -0.45938  -0.45314  -0.43363  -0.42731
 Alpha  occ. eigenvalues --   -0.40395  -0.39900  -0.39769  -0.38870  -0.37170
 Alpha  occ. eigenvalues --   -0.36944  -0.36453  -0.36316  -0.35903  -0.35251
 Alpha  occ. eigenvalues --   -0.34853  -0.33875  -0.33502  -0.33353  -0.33259
 Alpha  occ. eigenvalues --   -0.32543  -0.32407  -0.31778  -0.31681  -0.31626
 Alpha  occ. eigenvalues --   -0.30896  -0.27962  -0.26750  -0.25163
 Alpha virt. eigenvalues --    0.02455   0.05224   0.06198   0.07835   0.08339
 Alpha virt. eigenvalues --    0.08718   0.09649   0.10603   0.10905   0.11859
 Alpha virt. eigenvalues --    0.12050   0.12791   0.14557   0.14771   0.14848

 Mulliken charges:
               1
     1  N   -0.308620
     2  C    0.179489
     3  C    0.061721
     4  N   -0.251152
     5  C    0.129802
     6  H    0.031125
     7  N   -0.252129
     8  C    0.103904
     9  H    0.019036
    10  N   -0.292563
    11  C    0.214127
    12  C    0.077112
    13  N   -0.034896
    14  H    0.106409
    15  H    0.087793
    16  H    0.031924
    17  H    0.037539
    18  H    0.028094
    19  N   -0.291150
    20  C    0.221135
    21  C    0.253447
    22  N   -0.093185
    23  H    0.112358
    24  H    0.112720
    25  N   -0.277712
    26  C    0.187626
    27  N   -0.130150
    28  H    0.138187
    29  C    0.143058
    30  O   -0.325087
    31  C    0.026204
    32  N   -0.225053
    33  C    0.116485
    34  H    0.022873
    35  H   -0.005422
    36  H    0.020820
    37  H   -0.001017
    38  H    0.044789
    39  H    0.048310
    40  H    0.068218
    41  H    0.033531
    42  C   -0.081437
    43  O   -0.258844
    44  C    0.182252
    45  H    0.132445
    46  N   -0.119081
    47  O   -0.335048
    48  C    0.324606
    49  H    0.045307
    50  C    0.147269
    51  C    0.148616
    52  N   -0.297070
    53  H    0.021754
    54  H    0.032189
    55  H   -0.074045
    56  H    0.116305
    57  H    0.121256
    58  N   -0.069106
    59  C    0.137017
    60  C    0.205446
    61  N   -0.295917
    62  H    0.023305
    63  C    0.189541
    64  N   -0.313224
    65  H    0.023356
    66  C    0.116677
    67  N   -0.250387
    68  C    0.038717
    69  C    0.207099
    70  N   -0.288695
 Sum of Mulliken charges =  -0.00000

 Dipole moment (field-independent basis, Debye):
    X=              3.6047    Y=             -5.2414    Z=             -5.5330  Tot=              8.4309
 Quadrupole moment (field-independent basis, Debye-Ang):
   XX=           -140.1024   YY=           -226.2832   ZZ=           -264.1295
   XY=            -19.8282   XZ=            -18.4032   YZ=             -3.5349

 Normal termination of Gaussian 16 at Thu Jan 25 17:29:02 2018.
