 Gaussian 16, Revision A.03,
 Gaussian 16:  EM64L-G16RevA.03 25-Dec-2016

 ---------------------------------------
 #p wb97xd/cc-pvdz sp scf=(maxcycles=20)
 ---------------------------------------

 ------------------
 Base pair stacking
 ------------------
 Symbolic Z-matrix:
 Charge =  0 Multiplicity = 1

                         Standard orientation:
 ---------------------------------------------------------------------
 Center     Atomic      Atomic             Coordinates (Angstroms)
 Number     Number       Type             X           Y           Z
 ---------------------------------------------------------------------
      1          7           0       -6.792674   -0.642004    0.441514
      2          6           0       -8.024474    0.069110    0.835211
      3          6           0       -4.696703   -1.283886    0.262103
      4          7           0       -5.428485   -2.108164   -0.580392
      5          6           0       -6.661947   -1.688463   -0.438580
      6          1           0       -7.523750   -2.110101   -0.956694
      7          7           0       -2.922591   -0.278518    1.447292
      8          6           0       -3.840905    0.532193    1.983034
      9          1           0       -3.456759    1.268650    2.687534
     10          7           0       -5.156327    0.569597    1.780133
     11          6           0       -5.523941   -0.375128    0.898770
     12          6           0       -3.324290   -1.218452    0.563983
     13          7           0       -2.409092   -2.028652    0.028121
     14          1           0       -2.661294   -2.738833   -0.630102
     15          1           0       -1.440694   -1.953433    0.266210
     16          1           0       -8.665127   -0.576378    1.251240
     17          1           0       -7.800042    0.786187    1.494429
     18          1           0       -8.446472    0.481253    0.027707
     19          7           0       -3.340199    1.520793   -1.388051
     20          6           0       -2.027524    1.707055   -1.027154
     21          6           0       -4.479073    2.333305   -0.915320
     22          7           0        0.379964    3.452395    0.767167
     23          1           0        1.370291    3.418707    0.898895
     24          1           0       -0.119533    4.164398    1.261404
     25          7           0       -1.561308    2.656005   -0.186801
     26          6           0       -0.250797    2.582315   -0.035956
     27          7           0        0.544149    1.651300   -0.659478
     28          1           0        1.537260    1.669693   -0.485277
     29          6           0        0.086004    0.665672   -1.528113
     30          8           0        0.887733   -0.126457   -2.038506
     31          6           0       -1.320007    0.732179   -1.700074
     32          7           0       -2.171375   -0.050369   -2.467993
     33          6           0       -3.356310    0.453076   -2.251985
     34          1           0       -4.279380    0.082489   -2.699065
     35          1           0       -5.131892    1.748015   -0.435675
     36          1           0       -4.145910    3.039594   -0.292082
     37          1           0       -4.929650    2.764816   -1.696088
     38          1           0        6.295396    1.887510    1.293898
     39          1           0        6.596523    2.756010   -0.209325
     40          1           0        5.024419    2.881178    0.580726
     41          1           0        6.486413   -1.776959   -1.817650
     42          6           0        5.793771   -0.995497   -1.504910
     43          8           0        3.896300   -2.030128   -2.482779
     44          6           0        4.409075   -1.108892   -1.847815
     45          1           0        2.635582   -0.111759   -1.626987
     46          7           0        3.619945   -0.067019   -1.403948
     47          8           0        3.250230    1.904385   -0.339026
     48          6           0        4.025386    1.031476   -0.688077
     49          1           0        7.261891    0.197563   -0.521519
     50          6           0        6.219383    0.064201   -0.807406
     51          6           0        5.854502    2.224213    0.367448
     52          7           0        5.374656    1.069010   -0.396095
     53          1           0        4.555519    0.687383    3.861270
     54          1           0        3.412811    1.530945    3.058332
     55          1           0        4.931864    1.447609    2.467060
     56          1           0        0.726858   -3.841527   -0.599203
     57          1           0        2.386635   -4.056654   -0.269100
     58          7           0        1.565576   -3.491437   -0.181905
     59          6           0        1.589148   -2.322915    0.462445
     60          6           0        2.609209   -0.563749    1.697973
     61          7           0        1.491336    0.174155    1.799425
     62          1           0       -0.475451    0.098694    1.227880
     63          6           0        0.473873   -0.434055    1.192994
     64          7           0        0.448246   -1.604416    0.547088
     65          1           0        5.719678   -1.342218    2.111675
     66          6           0        4.663748   -1.316637    1.840915
     67          7           0        4.045330   -2.252532    1.163178
     68          6           0        2.741850   -1.787651    1.065513
     69          6           0        4.217718    0.947083    2.956593
     70          7           0        3.854922   -0.265079    2.196954
 ---------------------------------------------------------------------

 SCF Done:  E(RwB97XD) =  -2048.74756591     A.U. after   15 cycles

 The electronic state is 1-A.
 Alpha  occ. eigenvalues --  -19.25994 -19.21970 -19.20571 -14.52647 -14.51224
 Alpha  occ. eigenvalues --  -14.50194 -14.48395 -14.47853 -14.46654 -14.46452
 Alpha  occ. eigenvalues --  -14.46181 -14.43944 -14.43128 -14.42869 -14.42810
 Alpha  occ. eigenvalues --  -14.42719 -14.42103 -14.41848 -14.41236 -14.40645
 Alpha  occ. eigenvalues --  -10.45602 -10.41002 -10.40037 -10.38204 -10.38116
 Alpha  occ. eigenvalues --  -10.37645 -10.36644 -10.36569 -10.36069 -10.35717
 Alpha  occ. eigenvalues --  -10.35489 -10.34696 -10.34460 -10.34161 -10.34159
 Alpha  occ. eigenvalues --  -10.33164 -10.33056 -10.32152 -10.31040 -10.31015
 Alpha  occ. eigenvalues --  -10.30033 -10.29930 -10.27942  -1.19602  -1.13848
 Alpha  occ. eigenvalues --   -1.13102  -1.12944  -1.12780  -1.10389  -1.09515
 Alpha  occ. eigenvalues --   -1.08423  -1.07585  -1.06168  -1.03120  -1.02558
 Alpha  occ. eigenvalues --   -1.01616  -0.99595  -0.99533  -0.98362  -0.98274
 Alpha  occ. eigenvalues --   -0.96262  -0.95251  -0.93774  -0.91098  -0.86372
 Alpha  occ. eigenvalues --   -0.85250  -0.84971  -0.84054  -0.83820  -0.83561
 Alpha  occ. eigenvalues --   -0.82017  -0.78952  -0.75593  -0.74387  -0.74093
 Alpha  occ. eigenvalues --   -0.73531  -0.73377  -0.73337  -0.72276  -0.68969
 Alpha  occ. eigenvalues --   -0.67518  -0.67185  -0.66625  -0.65291  -0.64513
 Alpha  occ. eigenvalues --   -0.63896  -0.63596  -0.62810  -0.62511  -0.61524
 Alpha  occ. eigenvalues --   -0.61505  -0.61296  -0.59596  -0.59224  -0.58399
 Alpha  occ. eigenvalues --   -0.58153  -0.58020  -0.57541  -0.57250  -0.56472
 Alpha  occ. eigenvalues --   -0.56277  -0.55984  -0.55410  -0.54448  -0.54102
 Alpha  occ. eigenvalues --   -0.53869  -0.53442  -0.53016  -0.52987  -0.52625
 Alpha  occ. eigenvalues --   -0.52159  -0.51803  -0.51526  -0.51421  -0.51282
 Alpha  occ. eigenvalues --   -0.50211  -0.49938  -0.49469  -0.48698  -0.48618
 Alpha  occ. eigenvalues --   -0.48348  -0.48112  -0.48070  -0.48034  -0.47809
 Alpha  occ. eigenvalues --   -0.47332  -0.46047  -0.45214  -0.44184  -0.43043
 Alpha  occ. eigenvalues --   -0.42026  -0.39537  -0.39376  -0.38416  -0.37172
 Alpha  occ. eigenvalues --   -0.37108  -0.36319  -0.36115  -0.35885  -0.34900
 Alpha  occ. eigenvalues --   -0.34720  -0.34152  -0.33182  -0.33150  -0.32866
 Alpha  occ. eigenvalues --   -0.32606  -0.32301  -0.31989  -0.31805  -0.31781
 Alpha  occ. eigenvalues --   -0.31442  -0.28148  -0.26893  -0.25311
 Alpha virt. eigenvalues --    0.02836   0.05665   0.06676   0.08037   0.08932
 Alpha virt. eigenvalues --    0.08962   0.09914   0.10096   0.11310   0.12096
 Alpha virt. eigenvalues --    0.12660   0.13290   0.14629   0.14915   0.15107

 Mulliken charges:
               1
     1  N   -0.308278
     2  C    0.179430
     3  C    0.040190
     4  N   -0.252099
     5  C    0.128172
     6  H    0.030068
     7  N   -0.271975
     8  C    0.129433
     9  H    0.017522
    10  N   -0.283179
    11  C    0.218422
    12  C    0.085966
    13  N   -0.032954
    14  H    0.107989
    15  H    0.089177
    16  H    0.030072
    17  H    0.036679
    18  H    0.025739
    19  N   -0.298356
    20  C    0.248333
    21  C    0.192290
    22  N   -0.114569
    23  H    0.113402
    24  H    0.116776
    25  N   -0.298710
    26  C    0.224952
    27  N   -0.128759
    28  H    0.123299
    29  C    0.155902
    30  O   -0.325588
    31  C    0.001219
    32  N   -0.227292
    33  C    0.119233
    34  H    0.025513
    35  H    0.016568
    36  H    0.029766
    37  H    0.020666
    38  H    0.061407
    39  H    0.064141
    40  H    0.077078
    41  H    0.030002
    42  C   -0.073803
    43  O   -0.265401
    44  C    0.178985
    45  H    0.132947
    46  N   -0.124412
    47  O   -0.344358
    48  C    0.337717
    49  H    0.042818
    50  C    0.146052
    51  C    0.039213
    52  N   -0.283859
    53  H    0.032467
    54  H    0.039092
    55  H   -0.025351
    56  H    0.116994
    57  H    0.121767
    58  N   -0.059446
    59  C    0.136726
    60  C    0.217753
    61  N   -0.277679
    62  H    0.031561
    63  C    0.163529
    64  N   -0.307669
    65  H    0.024151
    66  C    0.119199
    67  N   -0.245822
    68  C    0.024823
    69  C    0.199796
    70  N   -0.295434
 Sum of Mulliken charges =  -0.00000

 Dipole moment (field-independent basis, Debye):
    X=              3.7866    Y=              5.1792    Z=              5.1759  Tot=              8.2433
 Quadrupole moment (field-independent basis, Debye-Ang):
   XX=           -141.9988   YY=           -225.8472   ZZ=           -258.4319
   XY=             14.9633   XZ=             23.6357   YZ=              2.1558

 Normal termination of Gaussian 16 at Thu Jan 25 00:20:51 2018.
