 Gaussian 16, Revision A.03,
 Gaussian 16:  EM64L-G16RevA.03 25-Dec-2016

 ---------------------------------------
 #p wb97xd/cc-pvdz sp scf=(maxcycles=20)
 ---------------------------------------

 ------------------
 Base pair stacking
 ------------------
 Symbolic Z-matrix:
 Charge =  0 Multiplicity = 1

                         Standard orientation:
 ---------------------------------------------------------------------
 Center     Atomic      Atomic             Coordinates (Angstroms)
 Number     Number       Type             X           Y           Z
 ---------------------------------------------------------------------
      1          7           0       -6.478309    0.581019   -0.549018
      2          6           0       -7.700782   -0.229802   -0.710622
      3          6           0       -4.387820    1.264495   -0.554280
      4          7           0       -5.136831    2.310604   -0.035278
      5          6           0       -6.366303    1.856963   -0.052875
      6          1           0       -7.238368    2.416068    0.287471
      7          7           0       -2.590065   -0.054805   -1.322689
      8          6           0       -3.496305   -1.003109   -1.581576
      9          1           0       -3.097571   -1.924491   -2.003862
     10          7           0       -4.814962   -0.984225   -1.398004
     11          6           0       -5.200919    0.191563   -0.875520
     12          6           0       -3.010129    1.116776   -0.797335
     13          7           0       -2.107000    2.064618   -0.538214
     14          1           0       -2.372922    2.947308   -0.149161
     15          1           0       -1.134349    1.924798   -0.724052
     16          1           0       -8.336059    0.240889   -1.323045
     17          1           0       -7.462599   -1.119575   -1.098822
     18          1           0       -8.135590   -0.362258    0.180109
     19          7           0       -3.698965   -1.081879    1.364255
     20          6           0       -2.388227   -1.327161    1.032833
     21          6           0       -4.863732   -1.830809    0.851303
     22          7           0       -0.023994   -3.162885   -0.728500
     23          1           0        0.969815   -3.175927   -0.835372
     24          1           0       -0.544907   -3.842475   -1.245723
     25          7           0       -1.947677   -2.285846    0.189695
     26          6           0       -0.631745   -2.274370    0.072185
     27          7           0        0.191573   -1.392362    0.729239
     28          1           0        1.186703   -1.456971    0.579184
     29          6           0       -0.239837   -0.397851    1.601419
     30          8           0        0.586343    0.346731    2.143428
     31          6           0       -1.651318   -0.397758    1.737814
     32          7           0       -2.482705    0.414654    2.496549
     33          6           0       -3.684910   -0.026991    2.243836
     34          1           0       -4.599847    0.382051    2.673780
     35          1           0       -5.474980   -1.207489    0.364840
     36          1           0       -4.549714   -2.543700    0.225649
     37          1           0       -5.354341   -2.250713    1.614062
     38          1           0        5.971985   -1.882619   -1.085908
     39          1           0        6.192458   -2.786007    0.410733
     40          1           0        4.636565   -2.822758   -0.419461
     41          1           0        6.262495    1.723694    2.085317
     42          6           0        5.540765    0.981634    1.743718
     43          8           0        3.671805    2.094122    2.690538
     44          6           0        4.155008    1.157929    2.054263
     45          1           0        2.341240    0.252173    1.774722
     46          7           0        3.327583    0.162376    1.575230
     47          8           0        2.889371   -1.773271    0.471404
     48          6           0        3.697019   -0.944440    0.852722
     49          1           0        6.973445   -0.267935    0.778415
     50          6           0        5.931769   -0.087681    1.040669
     51          6           0        5.491991   -2.210372   -0.175828
     52          7           0        5.049806   -1.043942    0.593376
     53          1           0        4.932197   -1.684964   -3.177540
     54          1           0        3.778226   -2.233335   -2.162777
     55          1           0        5.286417   -1.950148   -1.606667
     56          1           0        1.011797    4.009934   -0.482354
     57          1           0        2.676419    4.121042   -0.838395
     58          7           0        1.858787    3.550943   -0.750830
     59          6           0        1.897300    2.237079   -0.982037
     60          6           0        2.944357    0.181737   -1.565945
     61          7           0        1.830752   -0.558942   -1.440615
     62          1           0       -0.145981   -0.319666   -0.954941
     63          6           0        0.800916    0.203905   -1.079499
     64          7           0        0.760313    1.519996   -0.847445
     65          1           0        6.059153    0.811364   -2.160737
     66          6           0        4.998734    0.865622   -1.912746
     67          7           0        4.365606    1.965047   -1.583955
     68          6           0        3.062068    1.545500   -1.361470
     69          6           0        4.579406   -1.641021   -2.242877
     70          7           0        4.199564   -0.251510   -1.921988
 ---------------------------------------------------------------------

 SCF Done:  E(RwB97XD) =  -2048.53086890     A.U. after   15 cycles

 The electronic state is 1-A.
 Alpha  occ. eigenvalues --  -19.25926 -19.22133 -19.20680 -14.53029 -14.51505
 Alpha  occ. eigenvalues --  -14.50472 -14.48210 -14.47964 -14.46959 -14.46434
 Alpha  occ. eigenvalues --  -14.46387 -14.44320 -14.43327 -14.43169 -14.43164
 Alpha  occ. eigenvalues --  -14.42950 -14.41782 -14.41628 -14.40883 -14.40600
 Alpha  occ. eigenvalues --  -10.45583 -10.40868 -10.40173 -10.38775 -10.38082
 Alpha  occ. eigenvalues --  -10.37974 -10.36944 -10.36556 -10.36085 -10.36045
 Alpha  occ. eigenvalues --  -10.35549 -10.34565 -10.34528 -10.34003 -10.33859
 Alpha  occ. eigenvalues --  -10.33067 -10.32533 -10.31509 -10.31258 -10.30113
 Alpha  occ. eigenvalues --  -10.29940 -10.28675 -10.27849  -1.19917  -1.14240
 Alpha  occ. eigenvalues --   -1.13308  -1.13109  -1.13018  -1.10448  -1.10064
 Alpha  occ. eigenvalues --   -1.08469  -1.08106  -1.06266  -1.03771  -1.03033
 Alpha  occ. eigenvalues --   -1.02035  -1.00238  -0.99540  -0.98540  -0.98383
 Alpha  occ. eigenvalues --   -0.96209  -0.95967  -0.93962  -0.93264  -0.89730
 Alpha  occ. eigenvalues --   -0.86263  -0.85472  -0.83877  -0.83630  -0.82701
 Alpha  occ. eigenvalues --   -0.81734  -0.79293  -0.76093  -0.74663  -0.74331
 Alpha  occ. eigenvalues --   -0.74270  -0.73923  -0.73464  -0.72536  -0.70454
 Alpha  occ. eigenvalues --   -0.68264  -0.67729  -0.67145  -0.66438  -0.65397
 Alpha  occ. eigenvalues --   -0.64391  -0.64162  -0.63520  -0.63073  -0.62671
 Alpha  occ. eigenvalues --   -0.61586  -0.61456  -0.60458  -0.59720  -0.59601
 Alpha  occ. eigenvalues --   -0.58937  -0.58235  -0.58090  -0.57783  -0.56911
 Alpha  occ. eigenvalues --   -0.56479  -0.56335  -0.55740  -0.55077  -0.54663
 Alpha  occ. eigenvalues --   -0.54422  -0.53737  -0.53105  -0.53062  -0.52503
 Alpha  occ. eigenvalues --   -0.52273  -0.51567  -0.51270  -0.50474  -0.50287
 Alpha  occ. eigenvalues --   -0.49980  -0.49623  -0.49487  -0.49052  -0.48834
 Alpha  occ. eigenvalues --   -0.48574  -0.48237  -0.48033  -0.47302  -0.47295
 Alpha  occ. eigenvalues --   -0.47126  -0.46178  -0.45092  -0.42863  -0.41019
 Alpha  occ. eigenvalues --   -0.40980  -0.39942  -0.39691  -0.38651  -0.37135
 Alpha  occ. eigenvalues --   -0.36959  -0.36750  -0.36270  -0.36196  -0.35004
 Alpha  occ. eigenvalues --   -0.34708  -0.33909  -0.33475  -0.33266  -0.33151
 Alpha  occ. eigenvalues --   -0.32642  -0.31997  -0.31861  -0.31583  -0.31070
 Alpha  occ. eigenvalues --   -0.30653  -0.28284  -0.26926  -0.25316
 Alpha virt. eigenvalues --    0.02235   0.05300   0.06475   0.07116   0.08911
 Alpha virt. eigenvalues --    0.09095   0.09606   0.10443   0.10723   0.11944
 Alpha virt. eigenvalues --    0.12467   0.12505   0.14504   0.14688   0.14857

 Mulliken charges:
               1
     1  N   -0.312619
     2  C    0.182103
     3  C    0.071410
     4  N   -0.248911
     5  C    0.123745
     6  H    0.029742
     7  N   -0.265100
     8  C    0.141111
     9  H    0.012020
    10  N   -0.299137
    11  C    0.210326
    12  C    0.073397
    13  N   -0.037524
    14  H    0.106913
    15  H    0.087733
    16  H    0.031922
    17  H    0.039552
    18  H    0.026997
    19  N   -0.290240
    20  C    0.215499
    21  C    0.258622
    22  N   -0.099295
    23  H    0.113696
    24  H    0.115050
    25  N   -0.286933
    26  C    0.198004
    27  N   -0.141753
    28  H    0.137994
    29  C    0.154301
    30  O   -0.324089
    31  C    0.019558
    32  N   -0.223590
    33  C    0.123288
    34  H    0.023423
    35  H   -0.021459
    36  H    0.027040
    37  H   -0.000422
    38  H    0.005648
    39  H    0.045036
    40  H    0.064097
    41  H    0.031974
    42  C   -0.078692
    43  O   -0.260019
    44  C    0.178335
    45  H    0.133976
    46  N   -0.120092
    47  O   -0.322677
    48  C    0.315887
    49  H    0.044565
    50  C    0.147674
    51  C    0.155928
    52  N   -0.289830
    53  H    0.009395
    54  H    0.029240
    55  H    0.028612
    56  H    0.117474
    57  H    0.120914
    58  N   -0.067846
    59  C    0.132874
    60  C    0.192289
    61  N   -0.271781
    62  H    0.030504
    63  C    0.163853
    64  N   -0.312259
    65  H    0.026873
    66  C    0.117177
    67  N   -0.247817
    68  C    0.038449
    69  C    0.158919
    70  N   -0.291057
 Sum of Mulliken charges =  -0.00000

 Dipole moment (field-independent basis, Debye):
    X=              3.7537    Y=             -5.3116    Z=             -5.5645  Tot=              8.5596
 Quadrupole moment (field-independent basis, Debye-Ang):
   XX=           -142.8951   YY=           -225.4250   ZZ=           -265.9606
   XY=            -17.9270   XZ=            -15.8047   YZ=             -2.9981

 Normal termination of Gaussian 16 at Thu Jan 25 16:37:40 2018.
