 Gaussian 16, Revision A.03,
 Gaussian 16:  EM64L-G16RevA.03 25-Dec-2016

 ---------------------------------------
 #p wb97xd/cc-pvdz sp scf=(maxcycles=20)
 ---------------------------------------

 ------------------
 Base pair stacking
 ------------------
 Symbolic Z-matrix:
 Charge =  0 Multiplicity = 1

                         Standard orientation:
 ---------------------------------------------------------------------
 Center     Atomic      Atomic             Coordinates (Angstroms)
 Number     Number       Type             X           Y           Z
 ---------------------------------------------------------------------
      1          7           0        4.545040   -0.100565    1.794109
      2          6           0        5.796889   -0.875409    1.691700
      3          6           0        2.425354    0.486104    1.801836
      4          7           0        3.146196    1.631660    2.106455
      5          6           0        4.394386    1.232365    2.089603
      6          1           0        5.253370    1.874201    2.287386
      7          7           0        0.659554   -1.012136    1.354401
      8          6           0        1.597970   -1.951183    1.195818
      9          1           0        1.225128   -2.943786    0.946867
     10          7           0        2.921570   -1.848651    1.298081
     11          6           0        3.273960   -0.589670    1.606655
     12          6           0        1.046319    0.244581    1.664506
     13          7           0        0.111050    1.183333    1.823221
     14          1           0        0.351672    2.126989    2.053109
     15          1           0       -0.861487    0.975499    1.717813
     16          1           0        6.281676   -0.845180    2.565915
     17          1           0        5.584333   -1.824752    1.462184
     18          1           0        6.376543   -0.483323    0.977366
     19          7           0        5.680347    0.022657   -0.878126
     20          6           0        4.362314   -0.350245   -0.986732
     21          6           0        6.814553   -0.900406   -0.672667
     22          7           0        1.931587   -2.830524   -1.025597
     23          1           0        0.938878   -2.888905   -1.127420
     24          1           0        2.425632   -3.690489   -0.894864
     25          7           0        3.885754   -1.612416   -0.924476
     26          6           0        2.572380   -1.652422   -1.062553
     27          7           0        1.784180   -0.542459   -1.247525
     28          1           0        0.788177   -0.667789   -1.343671
     29          6           0        2.252987    0.765809   -1.314760
     30          8           0        1.456654    1.697347   -1.484536
     31          6           0        3.662199    0.824809   -1.168053
     32          7           0        4.523363    1.913508   -1.173193
     33          6           0        5.706718    1.390674   -0.998466
     34          1           0        6.635849    1.959523   -0.949469
     35          1           0        7.281325   -0.672702    0.181191
     36          1           0        6.473737   -1.838401   -0.624973
     37          1           0        7.455658   -0.818228   -1.434933
     38          1           0       -4.138772   -1.901818   -1.108932
     39          1           0       -4.036720   -1.790277   -2.864436
     40          1           0       -2.633853   -2.313390   -1.931863
     41          1           0       -4.261215    2.871630   -1.697023
     42          6           0       -3.536351    2.057555   -1.706611
     43          8           0       -1.653335    3.486284   -1.506371
     44          6           0       -2.141452    2.360867   -1.606253
     45          1           0       -0.317921    1.433040   -1.559199
     46          7           0       -1.310707    1.258755   -1.627980
     47          8           0       -0.873500   -0.966685   -1.743965
     48          6           0       -1.684658   -0.057527   -1.733351
     49          1           0       -4.980583    0.499821   -1.889536
     50          6           0       -3.931944    0.783456   -1.810556
     51          6           0       -3.493516   -1.659901   -1.940320
     52          7           0       -3.046248   -0.269005   -1.825939
     53          1           0       -6.876463   -3.308359    0.568205
     54          1           0       -5.531634   -3.197221   -0.348958
     55          1           0       -6.953502   -2.628020   -0.913234
     56          1           0       -3.127201    2.855976    2.303011
     57          1           0       -4.830125    2.766801    2.350025
     58          7           0       -3.959538    2.337019    2.107981
     59          6           0       -3.911776    1.125618    1.549945
     60          6           0       -4.842189   -0.882823    0.676866
     61          7           0       -3.658843   -1.435287    0.362405
     62          1           0       -1.661220   -0.988368    0.464249
     63          6           0       -2.660383   -0.616182    0.686520
     64          7           0       -2.706175    0.597504    1.245501
     65          1           0       -8.056562   -0.662267    0.943951
     66          6           0       -6.980019   -0.490603    0.967106
     67          7           0       -6.407937    0.592120    1.434127
     68          6           0       -5.052394    0.356480    1.256086
     69          6           0       -6.386923   -2.745137   -0.097486
     70          7           0       -6.092024   -1.425030    0.492727
 ---------------------------------------------------------------------

 SCF Done:  E(RwB97XD) =  -2048.59834642     A.U. after   15 cycles

 The electronic state is 1-A.
 Alpha  occ. eigenvalues --  -19.24914 -19.21035 -19.20774 -14.53032 -14.51167
 Alpha  occ. eigenvalues --  -14.49572 -14.49044 -14.48330 -14.46935 -14.46854
 Alpha  occ. eigenvalues --  -14.46568 -14.45615 -14.44727 -14.44279 -14.43167
 Alpha  occ. eigenvalues --  -14.41790 -14.41736 -14.41616 -14.41153 -14.40930
 Alpha  occ. eigenvalues --  -10.44463 -10.41320 -10.40220 -10.39160 -10.38414
 Alpha  occ. eigenvalues --  -10.38192 -10.37617 -10.36718 -10.36195 -10.36121
 Alpha  occ. eigenvalues --  -10.34787 -10.34696 -10.34404 -10.34154 -10.33857
 Alpha  occ. eigenvalues --  -10.33436 -10.32979 -10.32035 -10.31815 -10.30189
 Alpha  occ. eigenvalues --  -10.30056 -10.29014 -10.28566  -1.18611  -1.15727
 Alpha  occ. eigenvalues --   -1.13870  -1.12078  -1.11779  -1.11297  -1.09916
 Alpha  occ. eigenvalues --   -1.09160  -1.08246  -1.05704  -1.05410  -1.01499
 Alpha  occ. eigenvalues --   -1.01378  -1.01330  -1.00213  -0.99189  -0.97943
 Alpha  occ. eigenvalues --   -0.97617  -0.97042  -0.93475  -0.89989  -0.88095
 Alpha  occ. eigenvalues --   -0.86655  -0.86507  -0.84135  -0.84095  -0.82178
 Alpha  occ. eigenvalues --   -0.81976  -0.77921  -0.77416  -0.75604  -0.75258
 Alpha  occ. eigenvalues --   -0.74079  -0.73498  -0.72371  -0.71879  -0.70868
 Alpha  occ. eigenvalues --   -0.67999  -0.67374  -0.67223  -0.65598  -0.65232
 Alpha  occ. eigenvalues --   -0.64723  -0.63947  -0.63163  -0.62875  -0.62380
 Alpha  occ. eigenvalues --   -0.62175  -0.61629  -0.61046  -0.60798  -0.60069
 Alpha  occ. eigenvalues --   -0.59495  -0.58841  -0.58508  -0.58142  -0.56550
 Alpha  occ. eigenvalues --   -0.56260  -0.56203  -0.55813  -0.54722  -0.54524
 Alpha  occ. eigenvalues --   -0.53888  -0.53776  -0.53415  -0.52915  -0.52825
 Alpha  occ. eigenvalues --   -0.52574  -0.52052  -0.51369  -0.50892  -0.50538
 Alpha  occ. eigenvalues --   -0.50283  -0.50175  -0.49432  -0.49313  -0.49160
 Alpha  occ. eigenvalues --   -0.48678  -0.48588  -0.47895  -0.47423  -0.46959
 Alpha  occ. eigenvalues --   -0.46855  -0.46656  -0.44212  -0.43911  -0.43018
 Alpha  occ. eigenvalues --   -0.39926  -0.39473  -0.39374  -0.38807  -0.38072
 Alpha  occ. eigenvalues --   -0.37769  -0.37649  -0.36841  -0.35593  -0.34940
 Alpha  occ. eigenvalues --   -0.34467  -0.34141  -0.33859  -0.33726  -0.33178
 Alpha  occ. eigenvalues --   -0.33016  -0.32393  -0.31974  -0.31219  -0.30945
 Alpha  occ. eigenvalues --   -0.30425  -0.29297  -0.27255  -0.24303
 Alpha virt. eigenvalues --    0.03497   0.04007   0.06671   0.07044   0.08512
 Alpha virt. eigenvalues --    0.09018   0.09379   0.10304   0.10849   0.12300
 Alpha virt. eigenvalues --    0.12576   0.13423   0.13979   0.14537   0.14703

 Mulliken charges:
               1
     1  N   -0.286173
     2  C    0.197154
     3  C    0.065583
     4  N   -0.245177
     5  C    0.140347
     6  H    0.024721
     7  N   -0.265114
     8  C    0.109109
     9  H   -0.007054
    10  N   -0.260108
    11  C    0.199609
    12  C    0.064768
    13  N   -0.052181
    14  H    0.111716
    15  H    0.084311
    16  H    0.016269
    17  H    0.028187
    18  H    0.007974
    19  N   -0.308315
    20  C    0.193681
    21  C    0.208680
    22  N   -0.075326
    23  H    0.121755
    24  H    0.122173
    25  N   -0.231781
    26  C    0.129423
    27  N   -0.087752
    28  H    0.123250
    29  C    0.164385
    30  O   -0.316360
    31  C    0.019559
    32  N   -0.208888
    33  C    0.100865
    34  H    0.023637
    35  H    0.001554
    36  H    0.033721
    37  H    0.017290
    38  H    0.057396
    39  H    0.026465
    40  H    0.064409
    41  H    0.023330
    42  C   -0.093447
    43  O   -0.271928
    44  C    0.178380
    45  H    0.129319
    46  N   -0.113548
    47  O   -0.338883
    48  C    0.299144
    49  H    0.040636
    50  C    0.152555
    51  C    0.069629
    52  N   -0.264461
    53  H    0.035671
    54  H    0.054159
    55  H    0.029938
    56  H    0.123012
    57  H    0.121555
    58  N   -0.064785
    59  C    0.120632
    60  C    0.232583
    61  N   -0.301964
    62  H    0.043329
    63  C    0.161770
    64  N   -0.306916
    65  H    0.040316
    66  C    0.137947
    67  N   -0.254151
    68  C    0.039956
    69  C    0.178582
    70  N   -0.316123
 Sum of Mulliken charges =  -0.00000

 Dipole moment (field-independent basis, Debye):
    X=             -4.6550    Y=             -8.2898    Z=              1.2511  Tot=              9.5893
 Quadrupole moment (field-independent basis, Debye-Ang):
   XX=           -144.0706   YY=           -245.1028   ZZ=           -249.1910
   XY=              2.4496   XZ=             10.5437   YZ=             21.6491

 Normal termination of Gaussian 16 at Thu Jan 25 17:42:08 2018.
