 Gaussian 16, Revision A.03,
 Gaussian 16:  EM64L-G16RevA.03 25-Dec-2016

 ---------------------------------------
 #p wb97xd/cc-pvdz sp scf=(maxcycles=20)
 ---------------------------------------

 ------------------
 Base pair stacking
 ------------------
 Symbolic Z-matrix:
 Charge =  0 Multiplicity = 1

                         Standard orientation:
 ---------------------------------------------------------------------
 Center     Atomic      Atomic             Coordinates (Angstroms)
 Number     Number       Type             X           Y           Z
 ---------------------------------------------------------------------
      1          7           0        4.295119   -1.903216   -1.807296
      2          6           0        5.707704   -1.485854   -1.898930
      3          6           0        2.100960   -1.892680   -1.656139
      4          7           0        2.480524   -3.226366   -1.700132
      5          6           0        3.787233   -3.179336   -1.789433
      6          1           0        4.436682   -4.053401   -1.845845
      7          7           0        0.814665    0.080947   -1.541162
      8          6           0        1.971198    0.748031   -1.611827
      9          1           0        1.883926    1.833498   -1.591275
     10          7           0        3.213515    0.277803   -1.703636
     11          6           0        3.208574   -1.065351   -1.721285
     12          6           0        0.843322   -1.269556   -1.561235
     13          7           0       -0.310114   -1.937238   -1.490787
     14          1           0       -0.336381   -2.937439   -1.502377
     15          1           0       -1.186819   -1.460714   -1.424063
     16          1           0        6.104651   -1.832498   -2.748901
     17          1           0        5.762463   -0.487833   -1.889330
     18          1           0        6.217193   -1.853433   -1.120924
     19          7           0        5.003831    2.587409    0.675592
     20          6           0        3.668959    2.276644    0.773535
     21          6           0        5.547537    3.906429    0.294458
     22          7           0        0.335357    3.218871    0.526377
     23          1           0       -0.561827    2.796737    0.653229
     24          1           0        0.349497    4.180505    0.251088
     25          7           0        2.638031    3.117280    0.539915
     26          6           0        1.469139    2.527315    0.716635
     27          7           0        1.319136    1.214627    1.093307
     28          1           0        0.386501    0.847525    1.204655
     29          6           0        2.365698    0.331347    1.339017
     30          8           0        2.121817   -0.834359    1.674262
     31          6           0        3.627715    0.950782    1.153237
     32          7           0        4.910865    0.439453    1.290917
     33          6           0        5.692236    1.443474    0.998314
     34          1           0        6.782051    1.403890    1.002295
     35          1           0        6.102388    3.814042   -0.531617
     36          1           0        4.793071    4.537504    0.118953
     37          1           0        6.112976    4.263044    1.037366
     38          1           0       -4.497314   -0.546023    0.961621
     39          1           0       -4.429656   -0.332662    2.709354
     40          1           0       -3.424582    0.667519    1.660149
     41          1           0       -2.289205   -4.618036    2.261451
     42          6           0       -2.057708   -3.561811    2.123548
     43          8           0        0.290563   -3.893808    2.073170
     44          6           0       -0.690382   -3.152340    2.020619
     45          1           0        0.444220   -1.467489    1.771010
     46          7           0       -0.508431   -1.795025    1.847880
     47          8           0       -1.223841    0.347573    1.614004
     48          6           0       -1.483811   -0.832819    1.768168
     49          1           0       -4.086492   -2.906216    2.122051
     50          6           0       -3.031169   -2.646664    2.049510
     51          6           0       -3.852943   -0.314329    1.796589
     52          7           0       -2.776764   -1.305939    1.875990
     53          1           0       -5.805229    4.411038   -1.210223
     54          1           0       -4.471636    4.147977   -0.307782
     55          1           0       -5.947660    4.113414    0.388073
     56          1           0       -3.894580   -2.751858   -1.538555
     57          1           0       -5.516662   -2.225716   -1.584585
     58          7           0       -4.549993   -2.000897   -1.457132
     59          6           0       -4.153631   -0.754720   -1.190463
     60          6           0       -4.473437    1.568389   -0.787204
     61          7           0       -3.168665    1.841024   -0.620895
     62          1           0       -1.364807    0.868251   -0.641735
     63          6           0       -2.439242    0.735996   -0.761537
     64          7           0       -2.834360   -0.513050   -1.028632
     65          1           0       -7.647628    2.157571   -0.959094
     66          6           0       -6.655520    1.705203   -0.955205
     67          7           0       -6.414879    0.434889   -1.169880
     68          6           0       -5.035055    0.334586   -1.066213
     69          6           0       -5.429926    3.896112   -0.439519
     70          7           0       -5.526145    2.449780   -0.716760
 ---------------------------------------------------------------------

 SCF Done:  E(RwB97XD) =  -2048.73409311     A.U. after   15 cycles

 The electronic state is 1-A.
 Alpha  occ. eigenvalues --  -19.25052 -19.21068 -19.20483 -14.52791 -14.51522
 Alpha  occ. eigenvalues --  -14.49357 -14.48785 -14.48374 -14.46986 -14.46420
 Alpha  occ. eigenvalues --  -14.46406 -14.45702 -14.45164 -14.45115 -14.43325
 Alpha  occ. eigenvalues --  -14.41925 -14.41153 -14.41112 -14.41023 -14.40678
 Alpha  occ. eigenvalues --  -10.44591 -10.40975 -10.40820 -10.39207 -10.38248
 Alpha  occ. eigenvalues --  -10.37983 -10.37774 -10.37075 -10.36536 -10.35939
 Alpha  occ. eigenvalues --  -10.34136 -10.34126 -10.33840 -10.33735 -10.33451
 Alpha  occ. eigenvalues --  -10.33275 -10.33196 -10.33075 -10.30997 -10.30412
 Alpha  occ. eigenvalues --  -10.30138 -10.28606 -10.27949  -1.18685  -1.15608
 Alpha  occ. eigenvalues --   -1.13048  -1.12119  -1.11069  -1.10514  -1.10235
 Alpha  occ. eigenvalues --   -1.08493  -1.08357  -1.05710  -1.05444  -1.01601
 Alpha  occ. eigenvalues --   -1.01370  -1.00977  -0.99492  -0.98400  -0.97725
 Alpha  occ. eigenvalues --   -0.96766  -0.96567  -0.93132  -0.90280  -0.88225
 Alpha  occ. eigenvalues --   -0.86298  -0.84063  -0.83782  -0.82727  -0.82448
 Alpha  occ. eigenvalues --   -0.81966  -0.78084  -0.77693  -0.75550  -0.74497
 Alpha  occ. eigenvalues --   -0.73416  -0.73126  -0.72542  -0.71278  -0.71038
 Alpha  occ. eigenvalues --   -0.67533  -0.67178  -0.66510  -0.65777  -0.64887
 Alpha  occ. eigenvalues --   -0.64138  -0.63331  -0.62985  -0.62421  -0.61595
 Alpha  occ. eigenvalues --   -0.61179  -0.60883  -0.60447  -0.60060  -0.59107
 Alpha  occ. eigenvalues --   -0.58804  -0.58093  -0.57143  -0.56530  -0.56054
 Alpha  occ. eigenvalues --   -0.55726  -0.55711  -0.55579  -0.55157  -0.54137
 Alpha  occ. eigenvalues --   -0.53872  -0.53830  -0.53288  -0.53091  -0.52814
 Alpha  occ. eigenvalues --   -0.51943  -0.51755  -0.51494  -0.50580  -0.50537
 Alpha  occ. eigenvalues --   -0.50010  -0.49850  -0.49355  -0.48976  -0.48946
 Alpha  occ. eigenvalues --   -0.48617  -0.47879  -0.47841  -0.47447  -0.46959
 Alpha  occ. eigenvalues --   -0.46850  -0.45504  -0.45115  -0.44616  -0.43151
 Alpha  occ. eigenvalues --   -0.41369  -0.41209  -0.38953  -0.38285  -0.38183
 Alpha  occ. eigenvalues --   -0.37355  -0.37168  -0.37063  -0.35571  -0.35202
 Alpha  occ. eigenvalues --   -0.35125  -0.34307  -0.33664  -0.33260  -0.32802
 Alpha  occ. eigenvalues --   -0.32555  -0.32219  -0.31748  -0.31019  -0.30727
 Alpha  occ. eigenvalues --   -0.30579  -0.30234  -0.26534  -0.24839
 Alpha virt. eigenvalues --    0.03327   0.03868   0.06408   0.07858   0.09027
 Alpha virt. eigenvalues --    0.09317   0.09738   0.10081   0.10678   0.11655
 Alpha virt. eigenvalues --    0.13600   0.14428   0.14482   0.14531   0.14855

 Mulliken charges:
               1
     1  N   -0.311216
     2  C    0.185433
     3  C    0.068036
     4  N   -0.263799
     5  C    0.145716
     6  H    0.028575
     7  N   -0.282188
     8  C    0.110600
     9  H    0.023840
    10  N   -0.265048
    11  C    0.256048
    12  C    0.074412
    13  N   -0.070566
    14  H    0.108649
    15  H    0.082465
    16  H    0.019150
    17  H    0.030762
    18  H    0.034717
    19  N   -0.309558
    20  C    0.250482
    21  C    0.181942
    22  N   -0.105301
    23  H    0.122055
    24  H    0.116101
    25  N   -0.295511
    26  C    0.185414
    27  N   -0.104771
    28  H    0.117518
    29  C    0.147240
    30  O   -0.317286
    31  C    0.023227
    32  N   -0.233208
    33  C    0.117886
    34  H    0.021120
    35  H    0.026135
    36  H    0.029288
    37  H    0.024390
    38  H    0.066354
    39  H    0.053425
    40  H    0.081218
    41  H    0.027337
    42  C   -0.115492
    43  O   -0.261773
    44  C    0.177141
    45  H    0.135786
    46  N   -0.129423
    47  O   -0.347028
    48  C    0.353424
    49  H    0.042179
    50  C    0.163827
    51  C    0.035118
    52  N   -0.277434
    53  H    0.034627
    54  H    0.037959
    55  H    0.032177
    56  H    0.118616
    57  H    0.121809
    58  N   -0.061882
    59  C    0.052028
    60  C    0.237000
    61  N   -0.273166
    62  H    0.007919
    63  C    0.190030
    64  N   -0.301837
    65  H    0.040565
    66  C    0.140657
    67  N   -0.256599
    68  C    0.033435
    69  C    0.181251
    70  N   -0.311995
 Sum of Mulliken charges =  -0.00000

 Dipole moment (field-independent basis, Debye):
    X=             -8.4705    Y=              6.1976    Z=             -2.0910  Tot=             10.7019
 Quadrupole moment (field-independent basis, Debye-Ang):
   XX=           -168.8125   YY=           -217.1965   ZZ=           -252.8676
   XY=              8.3533   XZ=            -19.0041   YZ=             11.4032

 Normal termination of Gaussian 16 at Wed Jan 24 23:47:10 2018.
