 Gaussian 16, Revision A.03,
 Gaussian 16:  EM64L-G16RevA.03 25-Dec-2016

 ---------------------------------------
 #p wb97xd/cc-pvdz sp scf=(maxcycles=20)
 ---------------------------------------

 ------------------
 Base pair stacking
 ------------------
 Symbolic Z-matrix:
 Charge =  0 Multiplicity = 1

                         Standard orientation:
 ---------------------------------------------------------------------
 Center     Atomic      Atomic             Coordinates (Angstroms)
 Number     Number       Type             X           Y           Z
 ---------------------------------------------------------------------
      1          7           0       -5.876125   -1.790569    0.993704
      2          6           0       -7.277363   -1.333296    1.067416
      3          6           0       -3.679084   -1.867578    1.060058
      4          7           0       -4.100609   -3.134416    0.682978
      5          6           0       -5.407369   -3.037308    0.658095
      6          1           0       -6.084771   -3.851644    0.399375
      7          7           0       -2.329875   -0.021679    1.639028
      8          6           0       -3.466992    0.665451    1.788704
      9          1           0       -3.345833    1.705300    2.089193
     10          7           0       -4.725388    0.262819    1.623689
     11          6           0       -4.762244   -1.028388    1.255124
     12          6           0       -2.400594   -1.318605    1.267480
     13          7           0       -1.266602   -2.006174    1.117556
     14          1           0       -1.271432   -2.968582    0.843756
     15          1           0       -0.374048   -1.582965    1.273727
     16          1           0       -7.773494   -1.881957    1.740475
     17          1           0       -7.301121   -0.371858    1.339801
     18          1           0       -7.710947   -1.435142    0.172078
     19          7           0       -3.380125    2.928087   -1.502925
     20          6           0       -2.058363    2.557937   -1.439911
     21          6           0       -3.892389    4.300111   -1.313598
     22          7           0        1.280134    3.393372   -0.972753
     23          1           0        2.163843    2.926170   -0.968851
     24          1           0        1.287119    4.378789   -0.800639
     25          7           0       -1.013896    3.378820   -1.196413
     26          6           0        0.136565    2.729164   -1.198541
     27          7           0        0.257114    1.378933   -1.421839
     28          1           0        1.177303    0.966717   -1.404857
     29          6           0       -0.803850    0.514982   -1.674413
     30          8           0       -0.586640   -0.688378   -1.862836
     31          6           0       -2.046339    1.198428   -1.675279
     32          7           0       -3.334639    0.724616   -1.881895
     33          6           0       -4.090340    1.783264   -1.770557
     34          1           0       -5.175875    1.785069   -1.874886
     35          1           0       -4.524140    4.317940   -0.539414
     36          1           0       -3.127661    4.917106   -1.132533
     37          1           0       -4.369856    4.596425   -2.140053
     38          1           0        5.945945   -0.578052   -0.552517
     39          1           0        6.048465   -0.550656   -2.311322
     40          1           0        5.001005    0.593742   -1.471948
     41          1           0        3.672735   -4.678644   -1.631522
     42          6           0        3.480604   -3.605666   -1.626004
     43          8           0        1.124321   -3.840553   -1.767019
     44          6           0        2.130847   -3.135672   -1.697359
     45          1           0        1.060433   -1.391743   -1.732583
     46          7           0        1.999287   -1.761723   -1.683621
     47          8           0        2.792419    0.364742   -1.604258
     48          6           0        3.008390   -0.834423   -1.610356
     49          1           0        5.529919   -3.031539   -1.497600
     50          6           0        4.486062   -2.725652   -1.553676
     51          6           0        5.392373   -0.412693   -1.464813
     52          7           0        4.281569   -1.365333   -1.544408
     53          1           0        4.412828    3.825740    3.193283
     54          1           0        3.176746    3.907894    2.131460
     55          1           0        4.717344    3.984172    1.597786
     56          1           0        2.266182   -3.011688    1.267900
     57          1           0        3.888814   -2.616957    1.616256
     58          7           0        2.948563   -2.308498    1.467974
     59          6           0        2.620325   -1.016589    1.534333
     60          6           0        3.050436    1.302601    1.847550
     61          7           0        1.779771    1.687841    1.644020
     62          1           0       -0.043951    0.857363    1.213915
     63          6           0        1.006988    0.633303    1.391685
     64          7           0        1.333852   -0.661396    1.324789
     65          1           0        6.203831    1.630265    2.480705
     66          6           0        5.204907    1.256972    2.253249
     67          7           0        4.904988   -0.005653    2.070203
     68          6           0        3.541926    0.009269    1.812139
     69          6           0        4.107428    3.572812    2.275255
     70          7           0        4.130307    2.104052    2.133120
 ---------------------------------------------------------------------

 SCF Done:  E(RwB97XD) =  -2048.74779783     A.U. after   15 cycles

 The electronic state is 1-A.
 Alpha  occ. eigenvalues --  -19.25885 -19.22202 -19.20586 -14.52478 -14.52306
 Alpha  occ. eigenvalues --  -14.48715 -14.48322 -14.48136 -14.47858 -14.46885
 Alpha  occ. eigenvalues --  -14.46553 -14.45384 -14.44053 -14.44013 -14.41976
 Alpha  occ. eigenvalues --  -14.41942 -14.40951 -14.40754 -14.40534 -14.39896
 Alpha  occ. eigenvalues --  -10.45500 -10.41138 -10.40270 -10.39731 -10.38173
 Alpha  occ. eigenvalues --  -10.37943 -10.37872 -10.36968 -10.35467 -10.35067
 Alpha  occ. eigenvalues --  -10.34916 -10.34258 -10.33893 -10.33644 -10.33225
 Alpha  occ. eigenvalues --  -10.32916 -10.32731 -10.32460 -10.31278 -10.30874
 Alpha  occ. eigenvalues --  -10.30638 -10.28089 -10.28022  -1.19456  -1.15020
 Alpha  occ. eigenvalues --   -1.13190  -1.13155  -1.10891  -1.10527  -1.09359
 Alpha  occ. eigenvalues --   -1.09085  -1.08492  -1.04673  -1.04604  -1.02521
 Alpha  occ. eigenvalues --   -1.00852  -1.00070  -0.99663  -0.98498  -0.96702
 Alpha  occ. eigenvalues --   -0.96524  -0.96453  -0.92305  -0.91158  -0.87444
 Alpha  occ. eigenvalues --   -0.85804  -0.84036  -0.83530  -0.83511  -0.82446
 Alpha  occ. eigenvalues --   -0.81937  -0.78957  -0.76854  -0.74658  -0.74521
 Alpha  occ. eigenvalues --   -0.73600  -0.73383  -0.72534  -0.70678  -0.70254
 Alpha  occ. eigenvalues --   -0.67315  -0.66665  -0.66557  -0.65935  -0.64467
 Alpha  occ. eigenvalues --   -0.64121  -0.63745  -0.62663  -0.62352  -0.61670
 Alpha  occ. eigenvalues --   -0.60429  -0.60140  -0.60099  -0.59550  -0.59306
 Alpha  occ. eigenvalues --   -0.59242  -0.58293  -0.56615  -0.56236  -0.55988
 Alpha  occ. eigenvalues --   -0.55977  -0.55275  -0.55035  -0.54515  -0.54325
 Alpha  occ. eigenvalues --   -0.53763  -0.53635  -0.53296  -0.53113  -0.52931
 Alpha  occ. eigenvalues --   -0.52591  -0.52334  -0.51423  -0.50349  -0.50150
 Alpha  occ. eigenvalues --   -0.49892  -0.49595  -0.49465  -0.48913  -0.48857
 Alpha  occ. eigenvalues --   -0.48504  -0.48395  -0.48246  -0.47646  -0.47352
 Alpha  occ. eigenvalues --   -0.46572  -0.45656  -0.44887  -0.44525  -0.43954
 Alpha  occ. eigenvalues --   -0.40743  -0.40566  -0.39449  -0.37616  -0.37458
 Alpha  occ. eigenvalues --   -0.37233  -0.37070  -0.36768  -0.35973  -0.34712
 Alpha  occ. eigenvalues --   -0.34217  -0.33684  -0.33314  -0.33133  -0.32989
 Alpha  occ. eigenvalues --   -0.32628  -0.32359  -0.32138  -0.31809  -0.30522
 Alpha  occ. eigenvalues --   -0.30090  -0.29792  -0.25671  -0.25019
 Alpha virt. eigenvalues --    0.02848   0.04162   0.07336   0.08281   0.08395
 Alpha virt. eigenvalues --    0.09331   0.09795   0.10671   0.11438   0.11817
 Alpha virt. eigenvalues --    0.12412   0.14269   0.14577   0.14744   0.15262

 Mulliken charges:
               1
     1  N   -0.313001
     2  C    0.181332
     3  C    0.047993
     4  N   -0.259273
     5  C    0.135531
     6  H    0.025305
     7  N   -0.294842
     8  C    0.138084
     9  H    0.008104
    10  N   -0.291416
    11  C    0.252253
    12  C    0.115423
    13  N   -0.055777
    14  H    0.111632
    15  H    0.084072
    16  H    0.024054
    17  H    0.031994
    18  H    0.026071
    19  N   -0.311251
    20  C    0.247904
    21  C    0.180651
    22  N   -0.107143
    23  H    0.112538
    24  H    0.114143
    25  N   -0.308214
    26  C    0.233896
    27  N   -0.145627
    28  H    0.122894
    29  C    0.180757
    30  O   -0.321543
    31  C   -0.004341
    32  N   -0.225990
    33  C    0.132615
    34  H    0.023497
    35  H    0.029662
    36  H    0.028215
    37  H    0.024155
    38  H    0.062272
    39  H    0.058414
    40  H    0.071726
    41  H    0.029949
    42  C   -0.112054
    43  O   -0.264837
    44  C    0.158021
    45  H    0.133189
    46  N   -0.118175
    47  O   -0.342612
    48  C    0.337943
    49  H    0.047524
    50  C    0.162869
    51  C    0.039571
    52  N   -0.281909
    53  H    0.035264
    54  H    0.040142
    55  H    0.026457
    56  H    0.127684
    57  H    0.115653
    58  N   -0.059395
    59  C    0.077393
    60  C    0.245960
    61  N   -0.270955
    62  H    0.040703
    63  C    0.162014
    64  N   -0.302038
    65  H    0.036088
    66  C    0.138162
    67  N   -0.269096
    68  C    0.035674
    69  C    0.177519
    70  N   -0.313478
 Sum of Mulliken charges =  -0.00000

 Dipole moment (field-independent basis, Debye):
    X=              8.6565    Y=              5.8877    Z=              1.7513  Tot=             10.6145
 Quadrupole moment (field-independent basis, Debye-Ang):
   XX=           -156.5395   YY=           -215.8065   ZZ=           -253.0309
   XY=             -2.1659   XZ=              0.0307   YZ=             -5.9518

 Normal termination of Gaussian 16 at Thu Jan 25 01:20:17 2018.
