 Gaussian 16, Revision A.03,
 Gaussian 16:  EM64L-G16RevA.03 25-Dec-2016

 ---------------------------------------
 #p wb97xd/cc-pvdz sp scf=(maxcycles=20)
 ---------------------------------------

 ------------------
 Base pair stacking
 ------------------
 Symbolic Z-matrix:
 Charge =  0 Multiplicity = 1

                         Standard orientation:
 ---------------------------------------------------------------------
 Center     Atomic      Atomic             Coordinates (Angstroms)
 Number     Number       Type             X           Y           Z
 ---------------------------------------------------------------------
      1          7           0       -5.253544   -2.017592    1.392492
      2          6           0       -6.653408   -1.613971    1.628023
      3          6           0       -3.058166   -2.028767    1.260188
      4          7           0       -3.480365   -3.271606    0.810951
      5          6           0       -4.786108   -3.215134    0.908640
      6          1           0       -5.463640   -4.025826    0.639066
      7          7           0       -1.708516   -0.196516    1.880060
      8          6           0       -2.844264    0.438041    2.188233
      9          1           0       -2.722385    1.451694    2.567608
     10          7           0       -4.102058    0.010467    2.098576
     11          6           0       -4.139888   -1.244926    1.622133
     12          6           0       -1.780193   -1.458449    1.403102
     13          7           0       -0.647556   -2.093519    1.094900
     14          1           0       -0.653124   -3.028578    0.738723
     15          1           0        0.244677   -1.656552    1.209467
     16          1           0       -7.073548   -2.234073    2.290695
     17          1           0       -6.676409   -0.680685    1.985198
     18          1           0       -7.162811   -1.652711    0.768376
     19          7           0       -4.046385    2.934621   -1.177381
     20          6           0       -2.715856    2.597063   -1.239156
     21          6           0       -4.572080    4.292136   -0.929389
     22          7           0        0.630265    3.512129   -1.072295
     23          1           0        1.521634    3.067054   -1.153671
     24          1           0        0.629220    4.496213   -0.892554
     25          7           0       -1.673587    3.442004   -1.084909
     26          6           0       -0.512822    2.821227   -1.198398
     27          7           0       -0.380705    1.475984   -1.444119
     28          1           0        0.546845    1.086691   -1.515301
     29          6           0       -1.439196    0.587633   -1.606285
     30          8           0       -1.211204   -0.608616   -1.824803
     31          6           0       -2.692661    1.239932   -1.487035
     32          7           0       -3.982666    0.735619   -1.579042
     33          6           0       -4.750303    1.774335   -1.389250
     34          1           0       -5.840555    1.749829   -1.393636
     35          1           0       -5.130322    4.288903   -0.100439
     36          1           0       -3.809090    4.926712   -0.813547
     37          1           0       -5.130452    4.582139   -1.705878
     38          1           0        5.409535   -0.344698   -1.117712
     39          1           0        5.349413   -0.302660   -2.878186
     40          1           0        4.356113    0.809507   -1.935935
     41          1           0        3.146586   -4.493100   -2.021242
     42          6           0        2.929900   -3.425299   -1.988341
     43          8           0        0.576997   -3.717794   -1.914966
     44          6           0        1.568336   -2.988578   -1.931409
     45          1           0        0.457389   -1.271630   -1.852469
     46          7           0        1.405429   -1.618446   -1.893132
     47          8           0        2.150896    0.526501   -1.867371
     48          6           0        2.394299   -0.666840   -1.904178
     49          1           0        4.967875   -2.801218   -2.043044
     50          6           0        3.916201   -2.521043   -2.000436
     51          6           0        4.770687   -0.186901   -1.973889
     52          7           0        3.680608   -1.166330   -1.960038
     53          1           0        5.049247    3.720018    3.174528
     54          1           0        3.721364    3.852769    2.235814
     55          1           0        5.205604    4.024384    1.578811
     56          1           0        2.908247   -2.993199    0.847674
     57          1           0        4.545316   -2.577404    1.086845
     58          7           0        3.588226   -2.288008    1.048827
     59          6           0        3.235452   -1.017858    1.257243
     60          6           0        3.634499    1.278670    1.735220
     61          7           0        2.341583    1.638556    1.677914
     62          1           0        0.507732    0.789339    1.336692
     63          6           0        1.575576    0.585042    1.401788
     64          7           0        1.927009   -0.687897    1.192704
     65          1           0        6.822886    1.652888    2.117746
     66          6           0        5.817116    1.268287    1.946125
     67          7           0        5.533274    0.016944    1.679204
     68          6           0        4.152636    0.009746    1.543157
     69          6           0        4.669183    3.536937    2.267877
     70          7           0        4.715489    2.087276    1.995246
 ---------------------------------------------------------------------

 SCF Done:  E(RwB97XD) =  -2048.74735878     A.U. after   15 cycles

 The electronic state is 1-A.
 Alpha  occ. eigenvalues --  -19.25749 -19.22103 -19.20577 -14.52448 -14.52417
 Alpha  occ. eigenvalues --  -14.48832 -14.48430 -14.48004 -14.47748 -14.46909
 Alpha  occ. eigenvalues --  -14.46642 -14.45517 -14.44403 -14.44349 -14.42030
 Alpha  occ. eigenvalues --  -14.41914 -14.40922 -14.40613 -14.40370 -14.39852
 Alpha  occ. eigenvalues --  -10.45405 -10.41245 -10.40204 -10.40063 -10.38213
 Alpha  occ. eigenvalues --  -10.38047 -10.38010 -10.37226 -10.35779 -10.34967
 Alpha  occ. eigenvalues --  -10.34898 -10.34366 -10.33869 -10.33366 -10.33346
 Alpha  occ. eigenvalues --  -10.32740 -10.32686 -10.32581 -10.31216 -10.30984
 Alpha  occ. eigenvalues --  -10.30336 -10.28122 -10.27868  -1.19341  -1.15204
 Alpha  occ. eigenvalues --   -1.13193  -1.13089  -1.10605  -1.10595  -1.09482
 Alpha  occ. eigenvalues --   -1.09229  -1.08550  -1.04942  -1.04520  -1.02423
 Alpha  occ. eigenvalues --   -1.01020  -0.99942  -0.99725  -0.98554  -0.96945
 Alpha  occ. eigenvalues --   -0.96628  -0.96251  -0.92207  -0.91168  -0.87641
 Alpha  occ. eigenvalues --   -0.85904  -0.84141  -0.83483  -0.83274  -0.82541
 Alpha  occ. eigenvalues --   -0.81688  -0.78936  -0.77095  -0.74883  -0.74637
 Alpha  occ. eigenvalues --   -0.73641  -0.73317  -0.72357  -0.70552  -0.70420
 Alpha  occ. eigenvalues --   -0.67384  -0.66920  -0.66520  -0.65751  -0.64487
 Alpha  occ. eigenvalues --   -0.64322  -0.63793  -0.62670  -0.62176  -0.61758
 Alpha  occ. eigenvalues --   -0.60628  -0.60259  -0.60139  -0.59555  -0.59313
 Alpha  occ. eigenvalues --   -0.59292  -0.58348  -0.56664  -0.56092  -0.55937
 Alpha  occ. eigenvalues --   -0.55664  -0.55320  -0.54974  -0.54460  -0.54155
 Alpha  occ. eigenvalues --   -0.53751  -0.53666  -0.53508  -0.53186  -0.52990
 Alpha  occ. eigenvalues --   -0.52817  -0.52326  -0.51187  -0.50230  -0.50112
 Alpha  occ. eigenvalues --   -0.49934  -0.49581  -0.49451  -0.49224  -0.48873
 Alpha  occ. eigenvalues --   -0.48438  -0.48357  -0.48270  -0.47716  -0.47327
 Alpha  occ. eigenvalues --   -0.46375  -0.45736  -0.45411  -0.44271  -0.43728
 Alpha  occ. eigenvalues --   -0.40753  -0.40579  -0.39358  -0.37656  -0.37618
 Alpha  occ. eigenvalues --   -0.37302  -0.37274  -0.36521  -0.35854  -0.34832
 Alpha  occ. eigenvalues --   -0.34423  -0.33936  -0.33273  -0.32937  -0.32824
 Alpha  occ. eigenvalues --   -0.32689  -0.32466  -0.32245  -0.31890  -0.30323
 Alpha  occ. eigenvalues --   -0.30045  -0.29905  -0.25522  -0.25184
 Alpha virt. eigenvalues --    0.02483   0.04292   0.06816   0.08483   0.08733
 Alpha virt. eigenvalues --    0.09237   0.09780   0.10461   0.11533   0.11557
 Alpha virt. eigenvalues --    0.12979   0.14525   0.14601   0.14923   0.15023

 Mulliken charges:
               1
     1  N   -0.312961
     2  C    0.182152
     3  C    0.050711
     4  N   -0.257649
     5  C    0.139160
     6  H    0.025110
     7  N   -0.299749
     8  C    0.135214
     9  H    0.008856
    10  N   -0.288826
    11  C    0.258316
    12  C    0.106124
    13  N   -0.060557
    14  H    0.113835
    15  H    0.082097
    16  H    0.022604
    17  H    0.031317
    18  H    0.026940
    19  N   -0.311172
    20  C    0.251046
    21  C    0.180683
    22  N   -0.117446
    23  H    0.114232
    24  H    0.116389
    25  N   -0.311097
    26  C    0.243971
    27  N   -0.149364
    28  H    0.120837
    29  C    0.195817
    30  O   -0.321973
    31  C   -0.015369
    32  N   -0.226512
    33  C    0.130987
    34  H    0.022055
    35  H    0.029007
    36  H    0.028951
    37  H    0.024436
    38  H    0.060927
    39  H    0.059697
    40  H    0.073103
    41  H    0.028811
    42  C   -0.124009
    43  O   -0.264279
    44  C    0.168264
    45  H    0.131694
    46  N   -0.119687
    47  O   -0.343548
    48  C    0.338132
    49  H    0.044676
    50  C    0.165436
    51  C    0.037630
    52  N   -0.276630
    53  H    0.034578
    54  H    0.041262
    55  H    0.028356
    56  H    0.121353
    57  H    0.114151
    58  N   -0.055414
    59  C    0.089733
    60  C    0.253370
    61  N   -0.274831
    62  H    0.037824
    63  C    0.172032
    64  N   -0.311549
    65  H    0.038295
    66  C    0.138694
    67  N   -0.268821
    68  C    0.025816
    69  C    0.179716
    70  N   -0.312952
 Sum of Mulliken charges =  -0.00000

 Dipole moment (field-independent basis, Debye):
    X=              8.7198    Y=              6.2766    Z=              0.9432  Tot=             10.7852
 Quadrupole moment (field-independent basis, Debye-Ang):
   XX=           -160.8552   YY=           -214.9978   ZZ=           -251.6810
   XY=             -3.5205   XZ=             -7.5724   YZ=             -3.5709

 Normal termination of Gaussian 16 at Wed Jan 24 12:34:42 2018.
