 Gaussian 16, Revision A.03,
 Gaussian 16:  EM64L-G16RevA.03 25-Dec-2016

 ---------------------------------------
 #p wb97xd/cc-pvdz sp scf=(maxcycles=20)
 ---------------------------------------

 ------------------
 Base pair stacking
 ------------------
 Symbolic Z-matrix:
 Charge =  0 Multiplicity = 1

                         Standard orientation:
 ---------------------------------------------------------------------
 Center     Atomic      Atomic             Coordinates (Angstroms)
 Number     Number       Type             X           Y           Z
 ---------------------------------------------------------------------
      1          7           0        4.911895   -2.050616   -1.599388
      2          6           0        6.311182   -1.650624   -1.844344
      3          6           0        2.720598   -2.041912   -1.411045
      4          7           0        3.135645   -3.316992   -1.055180
      5          6           0        4.439202   -3.271199   -1.182901
      6          1           0        5.111315   -4.106607   -0.984634
      7          7           0        1.382865   -0.155465   -1.874441
      8          6           0        2.519724    0.483159   -2.169889
      9          1           0        2.403263    1.521059   -2.478862
     10          7           0        3.772954    0.034285   -2.141130
     11          6           0        3.804290   -1.250097   -1.748961
     12          6           0        1.447955   -1.446845   -1.483065
     13          7           0        0.314210   -2.086027   -1.187709
     14          1           0        0.314979   -3.042468   -0.893706
     15          1           0       -0.574103   -1.630899   -1.250212
     16          1           0        6.705402   -2.231234   -2.556851
     17          1           0        6.338909   -0.696254   -2.140192
     18          1           0        6.841378   -1.752429   -1.002604
     19          7           0        4.396333    2.830856    1.014305
     20          6           0        3.063344    2.512149    1.112298
     21          6           0        4.933786    4.177676    0.735145
     22          7           0       -0.273482    3.469929    1.012277
     23          1           0       -1.168424    3.038063    1.120928
     24          1           0       -0.263778    4.451384    0.818967
     25          7           0        2.028890    3.368910    0.971167
     26          6           0        0.863102    2.765433    1.120748
     27          7           0        0.719201    1.425538    1.388127
     28          1           0       -0.211425    1.049799    1.486686
     29          6           0        1.769483    0.525272    1.537389
     30          8           0        1.531059   -0.664738    1.777782
     31          6           0        3.028216    1.158923    1.379413
     32          7           0        4.313302    0.638548    1.447735
     33          6           0        5.089789    1.664153    1.225430
     34          1           0        6.179419    1.625004    1.204275
     35          1           0        5.471943    4.155710   -0.106701
     36          1           0        4.176660    4.820871    0.628674
     37          1           0        5.514338    4.470596    1.494067
     38          1           0       -5.100657   -0.321107    1.224462
     39          1           0       -4.997882   -0.256089    2.982263
     40          1           0       -4.012855    0.829727    2.001406
     41          1           0       -2.871541   -4.487066    2.131332
     42          6           0       -2.641672   -3.422830    2.078530
     43          8           0       -0.295245   -3.748012    1.953377
     44          6           0       -1.276227   -3.005323    1.983256
     45          1           0       -0.144981   -1.304750    1.854217
     46          7           0       -1.096267   -1.638167    1.922167
     47          8           0       -1.813828    0.516106    1.884441
     48          6           0       -2.071974   -0.673242    1.943528
     49          1           0       -4.669363   -2.770638    2.172956
     50          6           0       -3.615406   -2.505270    2.101515
     51          6           0       -4.439489   -0.160387    2.062969
     52          7           0       -3.363043   -1.154531    2.036807
     53          1           0       -5.346998    3.925301   -2.733800
     54          1           0       -3.994173    3.978753   -1.823264
     55          1           0       -5.458771    4.126093   -1.118064
     56          1           0       -3.247099   -2.953683   -0.907460
     57          1           0       -4.883373   -2.501793   -1.076261
     58          7           0       -3.921492   -2.227996   -1.044300
     59          6           0       -3.555433   -0.951588   -1.178302
     60          6           0       -3.932584    1.376399   -1.494522
     61          7           0       -2.633486    1.714875   -1.447443
     62          1           0       -0.804323    0.821276   -1.210307
     63          6           0       -1.876345    0.635611   -1.260823
     64          7           0       -2.241073   -0.643640   -1.126379
     65          1           0       -7.123722    1.816405   -1.768703
     66          6           0       -6.119718    1.408296   -1.648814
     67          7           0       -5.847675    0.138519   -1.471780
     68          6           0       -4.464309    0.104435   -1.372454
     69          6           0       -4.947026    3.678067   -1.851253
     70          7           0       -5.007769    2.214343   -1.672909
 ---------------------------------------------------------------------

 SCF Done:  E(RwB97XD) =  -2048.74931431     A.U. after   15 cycles

 The electronic state is 1-A.
 Alpha  occ. eigenvalues --  -19.25531 -19.21796 -19.20515 -14.52570 -14.52202
 Alpha  occ. eigenvalues --  -14.48843 -14.48722 -14.47994 -14.47499 -14.46804
 Alpha  occ. eigenvalues --  -14.46553 -14.45582 -14.44673 -14.44585 -14.42277
 Alpha  occ. eigenvalues --  -14.41995 -14.40969 -14.40628 -14.40478 -14.40042
 Alpha  occ. eigenvalues --  -10.45190 -10.41190 -10.40312 -10.39918 -10.38166
 Alpha  occ. eigenvalues --  -10.38147 -10.37829 -10.37402 -10.36044 -10.35177
 Alpha  occ. eigenvalues --  -10.34759 -10.34369 -10.33958 -10.33414 -10.33371
 Alpha  occ. eigenvalues --  -10.32906 -10.32754 -10.32688 -10.31029 -10.30999
 Alpha  occ. eigenvalues --  -10.30244 -10.28117 -10.27970  -1.19125  -1.15339
 Alpha  occ. eigenvalues --   -1.13138  -1.12796  -1.10617  -1.10592  -1.09660
 Alpha  occ. eigenvalues --   -1.09070  -1.08491  -1.05163  -1.04698  -1.02174
 Alpha  occ. eigenvalues --   -1.01143  -1.00145  -0.99649  -0.98515  -0.97175
 Alpha  occ. eigenvalues --   -0.96627  -0.96300  -0.92393  -0.90961  -0.87807
 Alpha  occ. eigenvalues --   -0.86033  -0.84138  -0.83317  -0.83299  -0.82538
 Alpha  occ. eigenvalues --   -0.81705  -0.78711  -0.77279  -0.75080  -0.74614
 Alpha  occ. eigenvalues --   -0.73570  -0.73095  -0.72480  -0.70710  -0.70545
 Alpha  occ. eigenvalues --   -0.67331  -0.67102  -0.66319  -0.65879  -0.64513
 Alpha  occ. eigenvalues --   -0.64353  -0.63687  -0.62600  -0.62318  -0.61714
 Alpha  occ. eigenvalues --   -0.60787  -0.60423  -0.60172  -0.59475  -0.59377
 Alpha  occ. eigenvalues --   -0.59229  -0.58269  -0.56675  -0.56198  -0.55796
 Alpha  occ. eigenvalues --   -0.55598  -0.55459  -0.55165  -0.54505  -0.54146
 Alpha  occ. eigenvalues --   -0.53845  -0.53573  -0.53496  -0.52992  -0.52986
 Alpha  occ. eigenvalues --   -0.52868  -0.52163  -0.51203  -0.50235  -0.50160
 Alpha  occ. eigenvalues --   -0.50039  -0.49667  -0.49490  -0.49224  -0.48769
 Alpha  occ. eigenvalues --   -0.48482  -0.48297  -0.48120  -0.47717  -0.47215
 Alpha  occ. eigenvalues --   -0.46440  -0.45700  -0.45390  -0.44318  -0.43637
 Alpha  occ. eigenvalues --   -0.40913  -0.40754  -0.39179  -0.37858  -0.37810
 Alpha  occ. eigenvalues --   -0.37287  -0.37265  -0.36574  -0.35609  -0.35029
 Alpha  occ. eigenvalues --   -0.34643  -0.33919  -0.33139  -0.33022  -0.32806
 Alpha  occ. eigenvalues --   -0.32628  -0.32482  -0.32007  -0.31860  -0.30383
 Alpha  occ. eigenvalues --   -0.30269  -0.30026  -0.25554  -0.25328
 Alpha virt. eigenvalues --    0.02702   0.04266   0.06509   0.08440   0.08965
 Alpha virt. eigenvalues --    0.09254   0.09807   0.10358   0.11378   0.11447
 Alpha virt. eigenvalues --    0.13178   0.14555   0.14584   0.14856   0.14983

 Mulliken charges:
               1
     1  N   -0.312619
     2  C    0.183075
     3  C    0.053054
     4  N   -0.258017
     5  C    0.141561
     6  H    0.025862
     7  N   -0.298090
     8  C    0.132952
     9  H    0.010062
    10  N   -0.285003
    11  C    0.260264
    12  C    0.100051
    13  N   -0.065832
    14  H    0.113650
    15  H    0.082016
    16  H    0.021641
    17  H    0.030902
    18  H    0.028772
    19  N   -0.310515
    20  C    0.252682
    21  C    0.180763
    22  N   -0.118494
    23  H    0.115852
    24  H    0.116526
    25  N   -0.311845
    26  C    0.245256
    27  N   -0.145076
    28  H    0.117053
    29  C    0.194093
    30  O   -0.322145
    31  C   -0.015252
    32  N   -0.228309
    33  C    0.128575
    34  H    0.021488
    35  H    0.028545
    36  H    0.029184
    37  H    0.024428
    38  H    0.060879
    39  H    0.059523
    40  H    0.074209
    41  H    0.027946
    42  C   -0.121809
    43  O   -0.262637
    44  C    0.172188
    45  H    0.132505
    46  N   -0.125078
    47  O   -0.346014
    48  C    0.346896
    49  H    0.042826
    50  C    0.165626
    51  C    0.036301
    52  N   -0.278228
    53  H    0.034704
    54  H    0.040223
    55  H    0.029516
    56  H    0.118307
    57  H    0.116140
    58  N   -0.058912
    59  C    0.089104
    60  C    0.255690
    61  N   -0.275740
    62  H    0.034479
    63  C    0.177420
    64  N   -0.314138
    65  H    0.039321
    66  C    0.138807
    67  N   -0.264782
    68  C    0.020248
    69  C    0.180305
    70  N   -0.312936
 Sum of Mulliken charges =  -0.00000

 Dipole moment (field-independent basis, Debye):
    X=             -8.6014    Y=              6.3626    Z=             -0.9371  Tot=             10.7398
 Quadrupole moment (field-independent basis, Debye-Ang):
   XX=           -163.3348   YY=           -214.9435   ZZ=           -251.7989
   XY=              4.3624   XZ=            -11.6323   YZ=              4.9364

 Normal termination of Gaussian 16 at Thu Jan 25 03:37:46 2018.
