 Gaussian 16, Revision A.03,
 Gaussian 16:  EM64L-G16RevA.03 25-Dec-2016

 ---------------------------------------
 #p wb97xd/cc-pvdz sp scf=(maxcycles=20)
 ---------------------------------------

 ------------------
 Base pair stacking
 ------------------
 Symbolic Z-matrix:
 Charge =  0 Multiplicity = 1

                         Standard orientation:
 ---------------------------------------------------------------------
 Center     Atomic      Atomic             Coordinates (Angstroms)
 Number     Number       Type             X           Y           Z
 ---------------------------------------------------------------------
      1          7           0       -7.230929   -1.503604    0.015247
      2          6           0       -8.629756   -1.033709   -0.006784
      3          6           0       -5.053074   -1.623285    0.298019
      4          7           0       -5.440058   -2.836116   -0.253341
      5          6           0       -6.736642   -2.715475   -0.401638
      6          1           0       -7.387944   -3.486698   -0.813897
      7          7           0       -3.761233    0.128751    1.206016
      8          6           0       -4.903994    0.814825    1.310719
      9          1           0       -4.809032    1.815003    1.731297
     10          7           0       -6.140650    0.452606    0.975470
     11          6           0       -6.146064   -0.791695    0.469397
     12          6           0       -3.800052   -1.120356    0.692895
     13          7           0       -2.660365   -1.806791    0.587574
     14          1           0       -2.641980   -2.734698    0.213580
     15          1           0       -1.786553   -1.417159    0.878743
     16          1           0       -9.196000   -1.642138    0.549408
     17          1           0       -8.676423   -0.106148    0.362761
     18          1           0       -8.968659   -1.033319   -0.947611
     19          7           0       -1.756508    2.938771   -1.884393
     20          6           0       -0.467005    2.521976   -1.657429
     21          6           0       -2.206455    4.344967   -1.913956
     22          7           0        2.861778    3.262800   -1.000024
     23          1           0        3.715011    2.761535   -0.858723
     24          1           0        2.908610    4.260904   -0.951890
     25          7           0        0.597106    3.320593   -1.425166
     26          6           0        1.706205    2.626051   -1.243180
     27          7           0        1.770444    1.254327   -1.285067
     28          1           0        2.661916    0.807607   -1.134406
     29          6           0        0.688311    0.412603   -1.522435
     30          8           0        0.853898   -0.813377   -1.539446
     31          6           0       -0.510250    1.144282   -1.719834
     32          7           0       -1.800936    0.705004   -1.980725
     33          6           0       -2.503854    1.801407   -2.070218
     34          1           0       -3.575141    1.837571   -2.270983
     35          1           0       -2.898686    4.490093   -1.207858
     36          1           0       -1.426705    4.945859   -1.743133
     37          1           0       -2.596245    4.553173   -2.810351
     38          1           0        7.250466   -0.823042    0.328068
     39          1           0        7.500772   -1.026784   -1.404123
     40          1           0        6.451510    0.261121   -0.811058
     41          1           0        4.852934   -4.924314   -0.432166
     42          6           0        4.720376   -3.852137   -0.577427
     43          8           0        2.374746   -3.999252   -0.899071
     44          6           0        3.409212   -3.336276   -0.827563
     45          1           0        2.443123   -1.565965   -1.175386
     46          7           0        3.352814   -1.967534   -0.996705
     47          8           0        4.252427    0.114461   -1.111584
     48          6           0        4.401804   -1.083844   -0.949054
     49          1           0        6.780320   -3.357043   -0.337993
     50          6           0        5.763220   -3.015258   -0.525160
     51          6           0        6.784913   -0.752269   -0.643690
     52          7           0        5.633869   -1.657396   -0.703566
     53          1           0        2.804592    3.679246    3.845392
     54          1           0        1.685799    3.893351    2.677249
     55          1           0        3.273842    4.000221    2.315628
     56          1           0        0.832264   -2.880468    0.991333
     57          1           0        2.412116   -2.551439    1.544429
     58          7           0        1.494001   -2.213641    1.334252
     59          6           0        1.167651   -0.930746    1.504078
     60          6           0        1.575512    1.335025    2.105476
     61          7           0        0.334922    1.760430    1.814952
     62          1           0       -1.438803    1.010086    1.113875
     63          6           0       -0.413217    0.751276    1.373585
     64          7           0       -0.088196   -0.534329    1.202779
     65          1           0        4.647941    1.542152    3.090085
     66          6           0        3.675983    1.211427    2.722837
     67          7           0        3.389838   -0.019719    2.376299
     68          6           0        2.061016    0.044763    1.982843
     69          6           0        2.594713    3.529714    2.879175
     70          7           0        2.624256    2.083995    2.584199
 ---------------------------------------------------------------------

 SCF Done:  E(RwB97XD) =  -2048.74395658     A.U. after   15 cycles

 The electronic state is 1-A.
 Alpha  occ. eigenvalues --  -19.26216 -19.22838 -19.21095 -14.52897 -14.50830
 Alpha  occ. eigenvalues --  -14.49063 -14.48862 -14.48435 -14.47574 -14.47502
 Alpha  occ. eigenvalues --  -14.45704 -14.43904 -14.42545 -14.42280 -14.42109
 Alpha  occ. eigenvalues --  -14.41995 -14.41550 -14.41068 -14.40897 -14.40118
 Alpha  occ. eigenvalues --  -10.45920 -10.41805 -10.40857 -10.38716 -10.38320
 Alpha  occ. eigenvalues --  -10.37769 -10.36424 -10.35645 -10.35375 -10.35343
 Alpha  occ. eigenvalues --  -10.34707 -10.34199 -10.33816 -10.33534 -10.33439
 Alpha  occ. eigenvalues --  -10.33077 -10.32629 -10.31592 -10.31083 -10.31013
 Alpha  occ. eigenvalues --  -10.30784 -10.28611 -10.28501  -1.19831  -1.13832
 Alpha  occ. eigenvalues --   -1.13762  -1.13447  -1.11447  -1.10954  -1.09792
 Alpha  occ. eigenvalues --   -1.09165  -1.07123  -1.04967  -1.03131  -1.02675
 Alpha  occ. eigenvalues --   -1.00466  -1.00375  -0.99253  -0.98982  -0.97014
 Alpha  occ. eigenvalues --   -0.96895  -0.94737  -0.92592  -0.91550  -0.85891
 Alpha  occ. eigenvalues --   -0.84480  -0.84322  -0.84097  -0.84002  -0.82797
 Alpha  occ. eigenvalues --   -0.82369  -0.79384  -0.75164  -0.75025  -0.74227
 Alpha  occ. eigenvalues --   -0.73899  -0.72918  -0.72856  -0.71071  -0.68529
 Alpha  occ. eigenvalues --   -0.67925  -0.67053  -0.66299  -0.64947  -0.64880
 Alpha  occ. eigenvalues --   -0.64171  -0.63108  -0.62732  -0.62303  -0.62255
 Alpha  occ. eigenvalues --   -0.60153  -0.60004  -0.59972  -0.59061  -0.58678
 Alpha  occ. eigenvalues --   -0.58400  -0.57835  -0.56892  -0.56467  -0.56455
 Alpha  occ. eigenvalues --   -0.56385  -0.55307  -0.54889  -0.54568  -0.54080
 Alpha  occ. eigenvalues --   -0.53787  -0.53630  -0.53333  -0.52878  -0.52264
 Alpha  occ. eigenvalues --   -0.51985  -0.51696  -0.51102  -0.50783  -0.50608
 Alpha  occ. eigenvalues --   -0.50189  -0.49929  -0.49383  -0.49139  -0.49015
 Alpha  occ. eigenvalues --   -0.48637  -0.48419  -0.48023  -0.47860  -0.47499
 Alpha  occ. eigenvalues --   -0.46967  -0.45187  -0.45107  -0.44533  -0.42961
 Alpha  occ. eigenvalues --   -0.41175  -0.39834  -0.39028  -0.37747  -0.37670
 Alpha  occ. eigenvalues --   -0.37204  -0.36650  -0.35774  -0.35708  -0.35037
 Alpha  occ. eigenvalues --   -0.33949  -0.33577  -0.33547  -0.33191  -0.32923
 Alpha  occ. eigenvalues --   -0.32574  -0.32398  -0.32240  -0.32048  -0.31009
 Alpha  occ. eigenvalues --   -0.30317  -0.28035  -0.25901  -0.25746
 Alpha virt. eigenvalues --    0.02464   0.05817   0.07922   0.07975   0.08588
 Alpha virt. eigenvalues --    0.09157   0.09435   0.10992   0.11656   0.12377
 Alpha virt. eigenvalues --    0.12822   0.13987   0.14350   0.14810   0.15999

 Mulliken charges:
               1
     1  N   -0.310528
     2  C    0.180993
     3  C    0.027828
     4  N   -0.258156
     5  C    0.132485
     6  H    0.026513
     7  N   -0.290771
     8  C    0.130185
     9  H    0.011140
    10  N   -0.289309
    11  C    0.239692
    12  C    0.120235
    13  N   -0.050849
    14  H    0.108839
    15  H    0.090519
    16  H    0.025752
    17  H    0.035237
    18  H    0.025363
    19  N   -0.310534
    20  C    0.256026
    21  C    0.182053
    22  N   -0.123555
    23  H    0.115626
    24  H    0.118212
    25  N   -0.302192
    26  C    0.232436
    27  N   -0.130578
    28  H    0.119741
    29  C    0.173278
    30  O   -0.324210
    31  C   -0.016556
    32  N   -0.218765
    33  C    0.131438
    34  H    0.031824
    35  H    0.030877
    36  H    0.028033
    37  H    0.025274
    38  H    0.062498
    39  H    0.060910
    40  H    0.074614
    41  H    0.033518
    42  C   -0.105423
    43  O   -0.275187
    44  C    0.150534
    45  H    0.136987
    46  N   -0.132507
    47  O   -0.351847
    48  C    0.367109
    49  H    0.050672
    50  C    0.177361
    51  C    0.042337
    52  N   -0.297181
    53  H    0.029480
    54  H    0.043757
    55  H    0.013532
    56  H    0.126855
    57  H    0.113389
    58  N   -0.045522
    59  C    0.094409
    60  C    0.241568
    61  N   -0.267114
    62  H    0.036435
    63  C    0.162657
    64  N   -0.298607
    65  H    0.025752
    66  C    0.127663
    67  N   -0.268836
    68  C    0.023482
    69  C    0.182822
    70  N   -0.309714
 Sum of Mulliken charges =  -0.00000

 Dipole moment (field-independent basis, Debye):
    X=              8.8940    Y=              5.4073    Z=              1.0287  Tot=             10.4595
 Quadrupole moment (field-independent basis, Debye-Ang):
   XX=           -145.0170   YY=           -217.2502   ZZ=           -247.8014
   XY=              2.0531   XZ=             14.3429   YZ=             -4.9523

 Normal termination of Gaussian 16 at Wed Jan 24 23:57:56 2018.
