 Gaussian 16, Revision A.03,
 Gaussian 16:  EM64L-G16RevA.03 25-Dec-2016

 ---------------------------------------
 #p wb97xd/cc-pvdz sp scf=(maxcycles=20)
 ---------------------------------------

 ------------------
 Base pair stacking
 ------------------
 Symbolic Z-matrix:
 Charge =  0 Multiplicity = 1

                         Standard orientation:
 ---------------------------------------------------------------------
 Center     Atomic      Atomic             Coordinates (Angstroms)
 Number     Number       Type             X           Y           Z
 ---------------------------------------------------------------------
      1          7           0       -6.991084   -1.539786    0.156466
      2          6           0       -8.390906   -1.072408    0.164150
      3          6           0       -4.808865   -1.659791    0.403173
      4          7           0       -5.202309   -2.864008   -0.162337
      5          6           0       -6.501263   -2.743515   -0.288334
      6          1           0       -7.157581   -3.509044   -0.703246
      7          7           0       -3.506056    0.079407    1.320122
      8          6           0       -4.648250    0.761328    1.454136
      9          1           0       -4.548475    1.754520    1.889894
     10          7           0       -5.889352    0.402278    1.132205
     11          6           0       -5.900499   -0.833390    0.605494
     12          6           0       -3.550706   -1.161016    0.786807
     13          7           0       -2.411603   -1.843295    0.652220
     14          1           0       -2.397443   -2.764776    0.262486
     15          1           0       -1.534028   -1.456830    0.936203
     16          1           0       -8.947313   -1.691195    0.718847
     17          1           0       -8.433424   -0.151257    0.549873
     18          1           0       -8.744481   -1.056958   -0.771124
     19          7           0       -2.033198    2.988478   -1.862195
     20          6           0       -0.739573    2.570544   -1.662404
     21          6           0       -2.486026    4.394062   -1.861158
     22          7           0        2.597770    3.306971   -1.044713
     23          1           0        3.453987    2.805132   -0.925168
     24          1           0        2.643609    4.304223   -0.980595
     25          7           0        0.326628    3.367305   -1.433426
     26          6           0        1.439664    2.672053   -1.280441
     27          7           0        1.505645    1.301355   -1.346309
     28          1           0        2.400136    0.853972   -1.217088
     29          6           0        0.421400    0.461539   -1.580831
     30          8           0        0.588859   -0.763648   -1.620971
     31          6           0       -0.781383    1.194002   -1.747207
     32          7           0       -2.075219    0.756550   -1.995246
     33          6           0       -2.781363    1.852880   -2.055369
     34          1           0       -3.855730    1.890237   -2.238752
     35          1           0       -3.167373    4.525949   -1.142018
     36          1           0       -1.704745    4.993583   -1.692482
     37          1           0       -2.890144    4.616451   -2.747746
     38          1           0        7.013861   -0.791666    0.146049
     39          1           0        7.237400   -0.965894   -1.593009
     40          1           0        6.195286    0.309791   -0.962137
     41          1           0        4.611917   -4.884469   -0.645299
     42          6           0        4.475233   -3.810280   -0.770484
     43          8           0        2.125110   -3.956723   -1.057905
     44          6           0        3.159415   -3.292949   -0.991443
     45          1           0        2.184901   -1.519017   -1.294426
     46          7           0        3.097978   -1.921685   -1.136720
     47          8           0        3.992033    0.163749   -1.230718
     48          6           0        4.146025   -1.036806   -1.090644
     49          1           0        6.537798   -3.315111   -0.554969
     50          6           0        5.517288   -2.972294   -0.720481
     51          6           0        6.533043   -0.705583   -0.817002
     52          7           0        5.382792   -1.611899   -0.874066
     53          1           0        3.094002    3.598469    3.915829
     54          1           0        1.956711    3.829834    2.769043
     55          1           0        3.538715    3.945938    2.384520
     56          1           0        1.088783   -2.916536    0.983374
     57          1           0        2.676521   -2.593624    1.517167
     58          7           0        1.754640   -2.254208    1.327038
     59          6           0        1.428736   -0.974985    1.523413
     60          6           0        1.841981    1.281215    2.156263
     61          7           0        0.596255    1.708920    1.892309
     62          1           0       -1.186899    0.966840    1.206536
     63          6           0       -0.156926    0.705787    1.445822
     64          7           0        0.167640   -0.576121    1.248451
     65          1           0        4.929057    1.478030    3.096130
     66          6           0        3.952066    1.151528    2.738606
     67          7           0        3.662693   -0.074212    2.375990
     68          6           0        2.327770   -0.005832    2.004469
     69          6           0        2.869309    3.464702    2.950634
     70          7           0        2.896769    2.024183    2.631044
 ---------------------------------------------------------------------

 SCF Done:  E(RwB97XD) =  -2048.74195292     A.U. after   15 cycles

 The electronic state is 1-A.
 Alpha  occ. eigenvalues --  -19.26195 -19.22876 -19.20968 -14.52916 -14.51096
 Alpha  occ. eigenvalues --  -14.49018 -14.48718 -14.48373 -14.47429 -14.47370
 Alpha  occ. eigenvalues --  -14.46003 -14.44169 -14.42588 -14.42444 -14.42426
 Alpha  occ. eigenvalues --  -14.41858 -14.41387 -14.41029 -14.40757 -14.39968
 Alpha  occ. eigenvalues --  -10.45896 -10.41712 -10.40886 -10.38605 -10.38408
 Alpha  occ. eigenvalues --  -10.38074 -10.36708 -10.35624 -10.35588 -10.35216
 Alpha  occ. eigenvalues --  -10.34668 -10.34042 -10.34032 -10.33481 -10.33283
 Alpha  occ. eigenvalues --  -10.32938 -10.32854 -10.31654 -10.31119 -10.31066
 Alpha  occ. eigenvalues --  -10.30915 -10.28445 -10.28442  -1.19825  -1.13886
 Alpha  occ. eigenvalues --   -1.13791  -1.13581  -1.11294  -1.10881  -1.09803
 Alpha  occ. eigenvalues --   -1.09039  -1.07454  -1.04811  -1.03242  -1.02892
 Alpha  occ. eigenvalues --   -1.00342  -1.00226  -0.99539  -0.98898  -0.96873
 Alpha  occ. eigenvalues --   -0.96838  -0.95050  -0.92442  -0.91605  -0.86164
 Alpha  occ. eigenvalues --   -0.84598  -0.84412  -0.84071  -0.83864  -0.82754
 Alpha  occ. eigenvalues --   -0.82234  -0.79416  -0.75466  -0.74960  -0.74140
 Alpha  occ. eigenvalues --   -0.73890  -0.73153  -0.72764  -0.70923  -0.68844
 Alpha  occ. eigenvalues --   -0.67836  -0.67065  -0.66156  -0.65207  -0.64927
 Alpha  occ. eigenvalues --   -0.64142  -0.63048  -0.62718  -0.62444  -0.62203
 Alpha  occ. eigenvalues --   -0.60063  -0.60021  -0.59985  -0.58963  -0.58937
 Alpha  occ. eigenvalues --   -0.58564  -0.58088  -0.56864  -0.56366  -0.56352
 Alpha  occ. eigenvalues --   -0.56344  -0.55183  -0.54904  -0.54600  -0.54046
 Alpha  occ. eigenvalues --   -0.53937  -0.53732  -0.53291  -0.52864  -0.52489
 Alpha  occ. eigenvalues --   -0.52176  -0.51638  -0.51378  -0.50643  -0.50568
 Alpha  occ. eigenvalues --   -0.50064  -0.49939  -0.49379  -0.49174  -0.48985
 Alpha  occ. eigenvalues --   -0.48598  -0.48367  -0.47946  -0.47848  -0.47699
 Alpha  occ. eigenvalues --   -0.46834  -0.45419  -0.44972  -0.44603  -0.43067
 Alpha  occ. eigenvalues --   -0.41018  -0.39811  -0.39267  -0.37686  -0.37591
 Alpha  occ. eigenvalues --   -0.37061  -0.36874  -0.36048  -0.35640  -0.34867
 Alpha  occ. eigenvalues --   -0.34006  -0.33468  -0.33387  -0.33090  -0.32914
 Alpha  occ. eigenvalues --   -0.32691  -0.32581  -0.32358  -0.32127  -0.30841
 Alpha  occ. eigenvalues --   -0.30194  -0.28339  -0.25834  -0.25592
 Alpha virt. eigenvalues --    0.02356   0.05471   0.07746   0.08107   0.08498
 Alpha virt. eigenvalues --    0.09340   0.09345   0.11147   0.11632   0.12221
 Alpha virt. eigenvalues --    0.12724   0.14034   0.14541   0.14812   0.15708

 Mulliken charges:
               1
     1  N   -0.310685
     2  C    0.181000
     3  C    0.030279
     4  N   -0.257966
     5  C    0.132232
     6  H    0.025983
     7  N   -0.291886
     8  C    0.131139
     9  H    0.010181
    10  N   -0.290453
    11  C    0.239321
    12  C    0.124008
    13  N   -0.051782
    14  H    0.109949
    15  H    0.091136
    16  H    0.025452
    17  H    0.034729
    18  H    0.025105
    19  N   -0.311685
    20  C    0.249832
    21  C    0.181628
    22  N   -0.124939
    23  H    0.115314
    24  H    0.117624
    25  N   -0.303980
    26  C    0.239766
    27  N   -0.132438
    28  H    0.116129
    29  C    0.169623
    30  O   -0.322337
    31  C   -0.005672
    32  N   -0.221145
    33  C    0.131958
    34  H    0.031251
    35  H    0.030440
    36  H    0.028306
    37  H    0.025228
    38  H    0.063448
    39  H    0.060256
    40  H    0.074598
    41  H    0.033097
    42  C   -0.106504
    43  O   -0.274872
    44  C    0.142920
    45  H    0.136365
    46  N   -0.123483
    47  O   -0.350980
    48  C    0.361921
    49  H    0.051201
    50  C    0.177362
    51  C    0.042936
    52  N   -0.294247
    53  H    0.030387
    54  H    0.044068
    55  H    0.016576
    56  H    0.129793
    57  H    0.111314
    58  N   -0.050632
    59  C    0.095597
    60  C    0.244045
    61  N   -0.266188
    62  H    0.042996
    63  C    0.155532
    64  N   -0.297437
    65  H    0.027679
    66  C    0.129556
    67  N   -0.270660
    68  C    0.020732
    69  C    0.181654
    70  N   -0.311676
 Sum of Mulliken charges =  -0.00000

 Dipole moment (field-independent basis, Debye):
    X=              8.9544    Y=              5.5028    Z=              1.0635  Tot=             10.5638
 Quadrupole moment (field-independent basis, Debye-Ang):
   XX=           -147.5115   YY=           -216.8584   ZZ=           -248.4007
   XY=              0.5301   XZ=             12.3386   YZ=             -4.5220

 Normal termination of Gaussian 16 at Wed Jan 24 23:11:54 2018.
