 Gaussian 16, Revision A.03,
 Gaussian 16:  EM64L-G16RevA.03 25-Dec-2016

 ---------------------------------------
 #p wb97xd/cc-pvdz sp scf=(maxcycles=20)
 ---------------------------------------

 ------------------
 Base pair stacking
 ------------------
 Symbolic Z-matrix:
 Charge =  0 Multiplicity = 1

                         Standard orientation:
 ---------------------------------------------------------------------
 Center     Atomic      Atomic             Coordinates (Angstroms)
 Number     Number       Type             X           Y           Z
 ---------------------------------------------------------------------
      1          7           0       -6.393330   -1.617161    0.636306
      2          6           0       -7.779042   -1.131140    0.489369
      3          6           0       -4.214211   -1.715873    0.917420
      4          7           0       -4.645163   -3.025386    0.761907
      5          6           0       -5.940754   -2.913505    0.598767
      6          1           0       -6.621043   -3.751781    0.445659
      7          7           0       -2.857001    0.185913    1.240120
      8          6           0       -3.978343    0.907928    1.145933
      9          1           0       -3.847683    1.984745    1.244190
     10          7           0       -5.230959    0.501397    0.949506
     11          6           0       -5.280484   -0.836700    0.842343
     12          6           0       -2.940196   -1.157817    1.128079
     13          7           0       -1.821952   -1.880262    1.221828
     14          1           0       -1.836415   -2.877805    1.144910
     15          1           0       -0.932119   -1.449248    1.372057
     16          1           0       -8.350128   -1.525388    1.209517
     17          1           0       -7.792954   -0.134351    0.562470
     18          1           0       -8.136937   -1.403183   -0.403876
     19          7           0       -2.820610    2.770903   -1.645187
     20          6           0       -1.511266    2.397132   -1.460942
     21          6           0       -3.352521    4.136244   -1.461906
     22          7           0        1.760623    3.211816   -0.628600
     23          1           0        2.640411    2.743641   -0.550967
     24          1           0        1.747883    4.190722   -0.422952
     25          7           0       -0.498781    3.207844   -1.084552
     26          6           0        0.647397    2.557196   -0.992075
     27          7           0        0.793032    1.215298   -1.248176
     28          1           0        1.707656    0.801572   -1.151949
     29          6           0       -0.234851    0.361866   -1.636755
     30          8           0        0.003068   -0.834571   -1.843319
     31          6           0       -1.472343    1.046501   -1.740390
     32          7           0       -2.731928    0.581693   -2.092976
     33          6           0       -3.497395    1.636844   -2.022735
     34          1           0       -4.566714    1.643600   -2.236687
     35          1           0       -4.059705    4.128260   -0.755765
     36          1           0       -2.611534    4.745693   -1.183022
     37          1           0       -3.744230    4.461390   -2.321947
     38          1           0        6.368494   -0.777579    0.126966
     39          1           0        6.649100   -0.689872   -1.610336
     40          1           0        5.519219    0.426314   -0.842952
     41          1           0        4.225847   -4.835801   -1.317515
     42          6           0        4.031746   -3.763405   -1.294723
     43          8           0        1.702515   -3.990331   -1.682392
     44          6           0        2.695171   -3.289534   -1.486674
     45          1           0        1.629972   -1.544075   -1.570609
     46          7           0        2.559817   -1.916695   -1.439228
     47          8           0        3.336022    0.204776   -1.206755
     48          6           0        3.554174   -0.993742   -1.232030
     49          1           0        6.056129   -3.196608   -0.939133
     50          6           0        5.022679   -2.887666   -1.090455
     51          6           0        5.910094   -0.580265   -0.830635
     52          7           0        4.815253   -1.528209   -1.055327
     53          1           0        3.855335    4.154032    2.611603
     54          1           0        2.719151    4.042212    1.445970
     55          1           0        4.301803    3.984289    1.051064
     56          1           0        1.647740   -2.893881    1.891167
     57          1           0        3.246913   -2.464395    2.301409
     58          7           0        2.334209   -2.176316    2.009522
     59          6           0        2.046352   -0.892048    1.788212
     60          6           0        2.527780    1.435364    1.673650
     61          7           0        1.293533    1.793071    1.282367
     62          1           0       -0.513860    0.923701    0.860292
     63          6           0        0.509415    0.722370    1.174366
     64          7           0        0.795847   -0.564718    1.395578
     65          1           0        5.624161    1.830770    2.515231
     66          6           0        4.636294    1.436138    2.275804
     67          7           0        4.309802    0.167619    2.319938
     68          6           0        2.975464    0.153196    1.940380
     69          6           0        3.621791    3.727326    1.737894
     70          7           0        3.606033    2.259708    1.892340
 ---------------------------------------------------------------------

 SCF Done:  E(RwB97XD) =  -2048.71001051     A.U. after   15 cycles

 The electronic state is 1-A.
 Alpha  occ. eigenvalues --  -19.25912 -19.22004 -19.20666 -14.52427 -14.52237
 Alpha  occ. eigenvalues --  -14.48800 -14.48743 -14.47879 -14.47701 -14.46728
 Alpha  occ. eigenvalues --  -14.46155 -14.45143 -14.43587 -14.42797 -14.42378
 Alpha  occ. eigenvalues --  -14.42129 -14.41473 -14.40979 -14.40712 -14.40209
 Alpha  occ. eigenvalues --  -10.45505 -10.41018 -10.40122 -10.39310 -10.38193
 Alpha  occ. eigenvalues --  -10.37829 -10.37659 -10.36603 -10.35500 -10.35084
 Alpha  occ. eigenvalues --  -10.35030 -10.34343 -10.34196 -10.34138 -10.33405
 Alpha  occ. eigenvalues --  -10.33183 -10.33172 -10.32013 -10.31151 -10.30998
 Alpha  occ. eigenvalues --  -10.30875 -10.28581 -10.28094  -1.19475  -1.14888
 Alpha  occ. eigenvalues --   -1.13323  -1.13030  -1.11384  -1.10585  -1.09319
 Alpha  occ. eigenvalues --   -1.08917  -1.08420  -1.05043  -1.04249  -1.02496
 Alpha  occ. eigenvalues --   -1.00804  -1.00528  -0.99753  -0.98590  -0.97034
 Alpha  occ. eigenvalues --   -0.96569  -0.96198  -0.92709  -0.91058  -0.87319
 Alpha  occ. eigenvalues --   -0.85880  -0.84084  -0.83984  -0.83534  -0.82492
 Alpha  occ. eigenvalues --   -0.82367  -0.78885  -0.76654  -0.74673  -0.74467
 Alpha  occ. eigenvalues --   -0.73648  -0.73356  -0.72976  -0.71130  -0.70106
 Alpha  occ. eigenvalues --   -0.67413  -0.66586  -0.66421  -0.66385  -0.64452
 Alpha  occ. eigenvalues --   -0.64015  -0.63756  -0.62850  -0.62786  -0.61877
 Alpha  occ. eigenvalues --   -0.60438  -0.60309  -0.60080  -0.59512  -0.59432
 Alpha  occ. eigenvalues --   -0.59202  -0.58233  -0.57068  -0.56553  -0.56399
 Alpha  occ. eigenvalues --   -0.56006  -0.55671  -0.55497  -0.54922  -0.54335
 Alpha  occ. eigenvalues --   -0.53891  -0.53620  -0.53094  -0.52959  -0.52789
 Alpha  occ. eigenvalues --   -0.52357  -0.52257  -0.51813  -0.50812  -0.50265
 Alpha  occ. eigenvalues --   -0.50149  -0.49413  -0.49408  -0.48825  -0.48752
 Alpha  occ. eigenvalues --   -0.48723  -0.48324  -0.48168  -0.48154  -0.47396
 Alpha  occ. eigenvalues --   -0.46987  -0.45940  -0.45070  -0.43949  -0.43550
 Alpha  occ. eigenvalues --   -0.41231  -0.40422  -0.39478  -0.37723  -0.37435
 Alpha  occ. eigenvalues --   -0.37267  -0.37249  -0.36631  -0.35910  -0.34606
 Alpha  occ. eigenvalues --   -0.34178  -0.33618  -0.33498  -0.33175  -0.32658
 Alpha  occ. eigenvalues --   -0.32439  -0.31974  -0.31861  -0.31757  -0.30884
 Alpha  occ. eigenvalues --   -0.30428  -0.28969  -0.25976  -0.25209
 Alpha virt. eigenvalues --    0.03043   0.04472   0.07453   0.07909   0.08642
 Alpha virt. eigenvalues --    0.09203   0.09425   0.10873   0.11292   0.11804
 Alpha virt. eigenvalues --    0.12643   0.14049   0.14178   0.14614   0.14903

 Mulliken charges:
               1
     1  N   -0.312439
     2  C    0.181107
     3  C    0.039714
     4  N   -0.260473
     5  C    0.134819
     6  H    0.026689
     7  N   -0.289190
     8  C    0.137428
     9  H    0.007716
    10  N   -0.291911
    11  C    0.247836
    12  C    0.122768
    13  N   -0.056925
    14  H    0.108362
    15  H    0.086954
    16  H    0.025179
    17  H    0.032987
    18  H    0.026837
    19  N   -0.308621
    20  C    0.239253
    21  C    0.180564
    22  N   -0.084356
    23  H    0.112739
    24  H    0.113780
    25  N   -0.290651
    26  C    0.201007
    27  N   -0.118326
    28  H    0.117016
    29  C    0.144621
    30  O   -0.317000
    31  C    0.022272
    32  N   -0.223271
    33  C    0.124402
    34  H    0.026867
    35  H    0.029198
    36  H    0.027710
    37  H    0.024615
    38  H    0.063170
    39  H    0.057695
    40  H    0.072502
    41  H    0.031146
    42  C   -0.113007
    43  O   -0.264619
    44  C    0.172748
    45  H    0.133633
    46  N   -0.130390
    47  O   -0.346526
    48  C    0.353852
    49  H    0.047812
    50  C    0.169335
    51  C    0.041230
    52  N   -0.290748
    53  H    0.038656
    54  H    0.030939
    55  H    0.027722
    56  H    0.123782
    57  H    0.115126
    58  N   -0.067235
    59  C    0.087791
    60  C    0.223845
    61  N   -0.273441
    62  H    0.044135
    63  C    0.171915
    64  N   -0.301219
    65  H    0.033127
    66  C    0.134034
    67  N   -0.264327
    68  C    0.038667
    69  C    0.163839
    70  N   -0.314469
 Sum of Mulliken charges =  -0.00000

 Dipole moment (field-independent basis, Debye):
    X=              8.0113    Y=              5.5392    Z=              2.8864  Tot=             10.1585
 Quadrupole moment (field-independent basis, Debye-Ang):
   XX=           -152.7824   YY=           -218.1274   ZZ=           -254.6635
   XY=             -0.0602   XZ=              6.0726   YZ=            -10.3299

 Normal termination of Gaussian 16 at Wed Jan 24 12:00:27 2018.
