 Gaussian 16, Revision A.03,
 Gaussian 16:  EM64L-G16RevA.03 25-Dec-2016

 ---------------------------------------
 #p wb97xd/cc-pvdz sp scf=(maxcycles=20)
 ---------------------------------------

 ------------------
 Base pair stacking
 ------------------
 Symbolic Z-matrix:
 Charge =  0 Multiplicity = 1

                         Standard orientation:
 ---------------------------------------------------------------------
 Center     Atomic      Atomic             Coordinates (Angstroms)
 Number     Number       Type             X           Y           Z
 ---------------------------------------------------------------------
      1          7           0       -6.210744   -1.759454    0.693088
      2          6           0       -7.613652   -1.324494    0.836832
      3          6           0       -4.014228   -1.846145    0.764764
      4          7           0       -4.429354   -3.021686    0.156089
      5          6           0       -5.736064   -2.922415    0.137266
      6          1           0       -6.409182   -3.675287   -0.273873
      7          7           0       -2.674643   -0.138283    1.687620
      8          6           0       -3.814667    0.508685    1.950983
      9          1           0       -3.698657    1.475148    2.439606
     10          7           0       -5.070564    0.142776    1.702545
     11          6           0       -5.101064   -1.058090    1.101355
     12          6           0       -2.738966   -1.344228    1.082121
     13          7           0       -1.602064   -1.991588    0.818390
     14          1           0       -1.602167   -2.886804    0.371405
     15          1           0       -0.711960   -1.604022    1.058490
     16          1           0       -8.114654   -1.988385    1.392189
     17          1           0       -7.642122   -0.429975    1.281975
     18          1           0       -8.038783   -1.259350   -0.065948
     19          7           0       -2.961158    3.112063   -1.614313
     20          6           0       -1.648909    2.711326   -1.540401
     21          6           0       -3.436809    4.504566   -1.490172
     22          7           0        1.712989    3.481946   -1.133559
     23          1           0        2.584448    2.992753   -1.111466
     24          1           0        1.746386    4.474123   -1.010377
     25          7           0       -0.582129    3.515854   -1.343530
     26          6           0        0.551273    2.837289   -1.319931
     27          7           0        0.635667    1.475024   -1.476903
     28          1           0        1.545095    1.040432   -1.444668
     29          6           0       -0.448770    0.627469   -1.680620
     30          8           0       -0.263749   -0.588929   -1.810568
     31          6           0       -1.673323    1.342023   -1.708374
     32          7           0       -2.974709    0.892158   -1.884206
     33          6           0       -3.702263    1.974240   -1.821134
     34          1           0       -4.788084    1.999043   -1.919404
     35          1           0       -4.062618    4.576865   -0.714325
     36          1           0       -2.655309    5.109697   -1.344047
     37          1           0       -3.912136    4.772094   -2.327608
     38          1           0        6.278293   -0.583576   -0.543443
     39          1           0        6.369516   -0.645483   -2.301992
     40          1           0        5.357440    0.565621   -1.514408
     41          1           0        3.893498   -4.672022   -1.405957
     42          6           0        3.728962   -3.595460   -1.452395
     43          8           0        1.366529   -3.775844   -1.568592
     44          6           0        2.391228   -3.094717   -1.539416
     45          1           0        1.365615   -1.327483   -1.654836
     46          7           0        2.294995   -1.718807   -1.592840
     47          8           0        3.142870    0.387704   -1.623018
     48          6           0        3.327999   -0.815498   -1.571058
     49          1           0        5.793133   -3.069016   -1.363840
     50          6           0        4.757099   -2.739308   -1.429195
     51          6           0        5.722944   -0.449044   -1.459727
     52          7           0        4.587580   -1.375338   -1.486007
     53          1           0        4.044646    3.359443    3.989645
     54          1           0        2.818158    3.635730    2.949708
     55          1           0        4.363397    3.810224    2.453866
     56          1           0        1.931514   -3.005529    0.813590
     57          1           0        3.549972   -2.681055    1.244168
     58          7           0        2.610405   -2.351044    1.146610
     59          6           0        2.278587   -1.093843    1.447497
     60          6           0        2.700465    1.127727    2.187990
     61          7           0        1.430828    1.543220    2.047196
     62          1           0       -0.386950    0.805503    1.453847
     63          6           0        0.662821    0.553054    1.597037
     64          7           0        0.993273   -0.706794    1.295092
     65          1           0        5.847167    1.334536    2.900486
     66          6           0        4.851227    1.009144    2.598560
     67          7           0        4.555912   -0.198072    2.182483
     68          6           0        3.195251   -0.136489    1.918792
     69          6           0        3.748256    3.280378    3.037856
     70          7           0        3.775826    1.863212    2.626935
 ---------------------------------------------------------------------

 SCF Done:  E(RwB97XD) =  -2048.74154843     A.U. after   15 cycles

 The electronic state is 1-A.
 Alpha  occ. eigenvalues --  -19.26243 -19.22952 -19.20831 -14.52910 -14.51837
 Alpha  occ. eigenvalues --  -14.48913 -14.48241 -14.48101 -14.47196 -14.47195
 Alpha  occ. eigenvalues --  -14.47034 -14.44951 -14.43535 -14.43509 -14.42258
 Alpha  occ. eigenvalues --  -14.41543 -14.40946 -14.40851 -14.40345 -14.39633
 Alpha  occ. eigenvalues --  -10.45866 -10.41494 -10.40889 -10.39113 -10.38432
 Alpha  occ. eigenvalues --  -10.38419 -10.37450 -10.36476 -10.35305 -10.34977
 Alpha  occ. eigenvalues --  -10.34807 -10.34517 -10.33534 -10.33416 -10.33394
 Alpha  occ. eigenvalues --  -10.32785 -10.32552 -10.31996 -10.31705 -10.31027
 Alpha  occ. eigenvalues --  -10.30582 -10.28273 -10.27929  -1.19826  -1.14552
 Alpha  occ. eigenvalues --   -1.13910  -1.13423  -1.10794  -1.10744  -1.09793
 Alpha  occ. eigenvalues --   -1.08808  -1.08521  -1.04410  -1.04118  -1.02930
 Alpha  occ. eigenvalues --   -1.00362  -1.00054  -0.99818  -0.98751  -0.96731
 Alpha  occ. eigenvalues --   -0.96443  -0.96035  -0.92057  -0.91632  -0.86964
 Alpha  occ. eigenvalues --   -0.85322  -0.84277  -0.83908  -0.83418  -0.82650
 Alpha  occ. eigenvalues --   -0.81812  -0.79408  -0.76357  -0.74818  -0.74083
 Alpha  occ. eigenvalues --   -0.73943  -0.73787  -0.72341  -0.70498  -0.69758
 Alpha  occ. eigenvalues --   -0.67639  -0.66975  -0.66120  -0.65735  -0.64850
 Alpha  occ. eigenvalues --   -0.64033  -0.63626  -0.62914  -0.62136  -0.61987
 Alpha  occ. eigenvalues --   -0.60243  -0.59967  -0.59844  -0.59810  -0.59085
 Alpha  occ. eigenvalues --   -0.58820  -0.58669  -0.56752  -0.56317  -0.56039
 Alpha  occ. eigenvalues --   -0.55936  -0.54915  -0.54832  -0.54733  -0.54445
 Alpha  occ. eigenvalues --   -0.53922  -0.53717  -0.53202  -0.53106  -0.52937
 Alpha  occ. eigenvalues --   -0.52724  -0.52151  -0.51299  -0.50467  -0.50212
 Alpha  occ. eigenvalues --   -0.49883  -0.49708  -0.49298  -0.49234  -0.48998
 Alpha  occ. eigenvalues --   -0.48522  -0.48385  -0.48180  -0.47856  -0.47659
 Alpha  occ. eigenvalues --   -0.46430  -0.45762  -0.44507  -0.44454  -0.44130
 Alpha  occ. eigenvalues --   -0.40547  -0.40065  -0.39784  -0.37491  -0.37453
 Alpha  occ. eigenvalues --   -0.37372  -0.36825  -0.36614  -0.36042  -0.34457
 Alpha  occ. eigenvalues --   -0.34099  -0.34009  -0.33561  -0.33058  -0.32928
 Alpha  occ. eigenvalues --   -0.32728  -0.32650  -0.32497  -0.31986  -0.30367
 Alpha  occ. eigenvalues --   -0.29873  -0.29290  -0.25730  -0.25052
 Alpha virt. eigenvalues --    0.02239   0.04693   0.07329   0.08450   0.08608
 Alpha virt. eigenvalues --    0.09005   0.09563   0.11173   0.11641   0.11992
 Alpha virt. eigenvalues --    0.12718   0.14350   0.14849   0.14952   0.15233

 Mulliken charges:
               1
     1  N   -0.311996
     2  C    0.181075
     3  C    0.044114
     4  N   -0.257940
     5  C    0.133165
     6  H    0.024456
     7  N   -0.296944
     8  C    0.136653
     9  H    0.008140
    10  N   -0.293353
    11  C    0.244227
    12  C    0.118294
    13  N   -0.050620
    14  H    0.113288
    15  H    0.089796
    16  H    0.024300
    17  H    0.032980
    18  H    0.024599
    19  N   -0.312412
    20  C    0.250107
    21  C    0.180881
    22  N   -0.121607
    23  H    0.114258
    24  H    0.116809
    25  N   -0.309666
    26  C    0.245488
    27  N   -0.144466
    28  H    0.115440
    29  C    0.182671
    30  O   -0.321140
    31  C   -0.004817
    32  N   -0.225505
    33  C    0.131742
    34  H    0.027085
    35  H    0.029771
    36  H    0.028566
    37  H    0.024885
    38  H    0.065476
    39  H    0.058723
    40  H    0.073665
    41  H    0.031874
    42  C   -0.107060
    43  O   -0.264812
    44  C    0.127733
    45  H    0.135423
    46  N   -0.106416
    47  O   -0.344832
    48  C    0.344403
    49  H    0.050885
    50  C    0.163716
    51  C    0.041280
    52  N   -0.281545
    53  H    0.033049
    54  H    0.043661
    55  H    0.023941
    56  H    0.129744
    57  H    0.114690
    58  N   -0.062222
    59  C    0.079711
    60  C    0.242907
    61  N   -0.268558
    62  H    0.039573
    63  C    0.168874
    64  N   -0.304728
    65  H    0.033397
    66  C    0.136755
    67  N   -0.269944
    68  C    0.031523
    69  C    0.179423
    70  N   -0.312637
 Sum of Mulliken charges =  -0.00000

 Dipole moment (field-independent basis, Debye):
    X=              9.0428    Y=              5.9086    Z=              0.9504  Tot=             10.8438
 Quadrupole moment (field-independent basis, Debye-Ang):
   XX=           -154.7745   YY=           -215.7599   ZZ=           -249.7697
   XY=             -2.4097   XZ=              4.0436   YZ=             -2.2302

 Normal termination of Gaussian 16 at Wed Jan 24 20:51:47 2018.
