 Gaussian 16, Revision A.03,
 Gaussian 16:  EM64L-G16RevA.03 25-Dec-2016

 ---------------------------------------
 #p wb97xd/cc-pvdz sp scf=(maxcycles=20)
 ---------------------------------------

 ------------------
 Base pair stacking
 ------------------
 Symbolic Z-matrix:
 Charge =  0 Multiplicity = 1

                         Standard orientation:
 ---------------------------------------------------------------------
 Center     Atomic      Atomic             Coordinates (Angstroms)
 Number     Number       Type             X           Y           Z
 ---------------------------------------------------------------------
      1          7           0        5.819110   -1.708895   -1.036636
      2          6           0        7.214795   -1.238887   -0.941045
      3          6           0        3.627722   -1.780950   -1.209676
      4          7           0        4.054261   -3.098695   -1.130091
      5          6           0        5.357420   -3.002543   -1.029020
      6          1           0        6.037074   -3.851086   -0.945331
      7          7           0        2.272960    0.141823   -1.384479
      8          6           0        3.404075    0.851611   -1.318347
      9          1           0        3.278249    1.932432   -1.365686
     10          7           0        4.661363    0.428723   -1.203056
     11          6           0        4.704275   -0.912964   -1.153369
     12          6           0        2.349696   -1.205930   -1.331873
     13          7           0        1.221706   -1.916190   -1.397744
     14          1           0        1.231106   -2.916136   -1.362521
     15          1           0        0.329285   -1.473248   -1.484490
     16          1           0        7.744974   -1.606971   -1.704985
     17          1           0        7.233919   -0.240049   -0.973946
     18          1           0        7.615196   -1.550030   -0.079148
     19          7           0        3.472636    2.742063    1.432339
     20          6           0        2.150523    2.383652    1.324522
     21          6           0        4.015503    4.090552    1.172385
     22          7           0       -1.144919    3.221416    0.617420
     23          1           0       -2.034305    2.765466    0.599295
     24          1           0       -1.127402    4.191636    0.374353
     25          7           0        1.133408    3.196627    0.965883
     26          6           0       -0.025473    2.562259    0.952475
     27          7           0       -0.178717    1.233441    1.265960
     28          1           0       -1.102979    0.831783    1.228857
     29          6           0        0.853719    0.377991    1.637654
     30          8           0        0.608108   -0.805780    1.900548
     31          6           0        2.104856    1.045210    1.656605
     32          7           0        3.372774    0.572844    1.966661
     33          6           0        4.149687    1.611686    1.820285
     34          1           0        5.228006    1.608511    1.983043
     35          1           0        4.687877    4.044437    0.434419
     36          1           0        3.271198    4.701493    0.905884
     37          1           0        4.452740    4.440887    1.999972
     38          1           0       -5.842763   -0.715683    0.232596
     39          1           0       -6.038551   -0.558660    1.976630
     40          1           0       -4.930141    0.509104    1.114848
     41          1           0       -3.694311   -4.752589    1.727314
     42          6           0       -3.485518   -3.685179    1.654647
     43          8           0       -1.144055   -3.936465    1.940127
     44          6           0       -2.134357   -3.226928    1.765066
     45          1           0       -1.040399   -1.497625    1.732182
     46          7           0       -1.980928   -1.859270    1.659160
     47          8           0       -2.735584    0.264773    1.383208
     48          6           0       -2.970169   -0.928153    1.464273
     49          1           0       -5.515901   -3.098226    1.373868
     50          6           0       -4.471900   -2.801190    1.464329
     51          6           0       -5.336158   -0.490548    1.159277
     52          7           0       -4.246108   -1.447657    1.367810
     53          1           0       -4.464564    4.209195   -2.247317
     54          1           0       -3.271642    4.041531   -1.146890
     55          1           0       -4.832621    3.978226   -0.674221
     56          1           0       -2.286486   -2.877455   -1.929546
     57          1           0       -3.900531   -2.420420   -2.239532
     58          7           0       -2.971618   -2.150911   -1.983184
     59          6           0       -2.661386   -0.878887   -1.724570
     60          6           0       -3.115476    1.445055   -1.490455
     61          7           0       -1.859774    1.777814   -1.148553
     62          1           0       -0.041127    0.879370   -0.855398
     63          6           0       -1.080803    0.698214   -1.124682
     64          7           0       -1.389642   -0.576651   -1.383388
     65          1           0       -6.246968    1.896138   -2.155632
     66          6           0       -5.251785    1.485178   -1.983403
     67          7           0       -4.939350    0.217354   -2.096016
     68          6           0       -3.587619    0.178098   -1.786142
     69          6           0       -4.190745    3.745173   -1.404872
     70          7           0       -4.196017    2.285112   -1.619809
 ---------------------------------------------------------------------

 SCF Done:  E(RwB97XD) =  -2048.71500135     A.U. after   15 cycles

 The electronic state is 1-A.
 Alpha  occ. eigenvalues --  -19.25610 -19.21725 -19.20342 -14.52737 -14.52214
 Alpha  occ. eigenvalues --  -14.48595 -14.48462 -14.48370 -14.47597 -14.46406
 Alpha  occ. eigenvalues --  -14.45652 -14.45294 -14.44317 -14.43697 -14.42451
 Alpha  occ. eigenvalues --  -14.41522 -14.41273 -14.40849 -14.40375 -14.40215
 Alpha  occ. eigenvalues --  -10.45234 -10.40491 -10.40035 -10.39858 -10.38151
 Alpha  occ. eigenvalues --  -10.37848 -10.37636 -10.37252 -10.35611 -10.35443
 Alpha  occ. eigenvalues --  -10.34692 -10.34598 -10.33949 -10.33849 -10.33210
 Alpha  occ. eigenvalues --  -10.32996 -10.32895 -10.32650 -10.30964 -10.30834
 Alpha  occ. eigenvalues --  -10.30627 -10.28419 -10.27615  -1.19242  -1.15394
 Alpha  occ. eigenvalues --   -1.12893  -1.12759  -1.11180  -1.10231  -1.09429
 Alpha  occ. eigenvalues --   -1.09085  -1.08125  -1.05023  -1.04948  -1.02222
 Alpha  occ. eigenvalues --   -1.01250  -1.00462  -0.99185  -0.98189  -0.96986
 Alpha  occ. eigenvalues --   -0.96759  -0.96203  -0.92669  -0.90850  -0.87846
 Alpha  occ. eigenvalues --   -0.86321  -0.83814  -0.83673  -0.83277  -0.82220
 Alpha  occ. eigenvalues --   -0.82146  -0.78669  -0.77197  -0.75173  -0.74184
 Alpha  occ. eigenvalues --   -0.73216  -0.73067  -0.72876  -0.71016  -0.70663
 Alpha  occ. eigenvalues --   -0.67089  -0.66929  -0.66308  -0.66256  -0.64570
 Alpha  occ. eigenvalues --   -0.64171  -0.63451  -0.62723  -0.62583  -0.61217
 Alpha  occ. eigenvalues --   -0.60910  -0.60491  -0.60406  -0.59645  -0.59356
 Alpha  occ. eigenvalues --   -0.59224  -0.58043  -0.56875  -0.56355  -0.56145
 Alpha  occ. eigenvalues --   -0.55852  -0.55689  -0.55439  -0.54877  -0.54396
 Alpha  occ. eigenvalues --   -0.53959  -0.53381  -0.53320  -0.53144  -0.52642
 Alpha  occ. eigenvalues --   -0.52565  -0.52066  -0.51674  -0.50714  -0.50126
 Alpha  occ. eigenvalues --   -0.49867  -0.49668  -0.49405  -0.49009  -0.48857
 Alpha  occ. eigenvalues --   -0.48490  -0.47996  -0.47869  -0.47275  -0.47074
 Alpha  occ. eigenvalues --   -0.46704  -0.45678  -0.44831  -0.44596  -0.43690
 Alpha  occ. eigenvalues --   -0.41276  -0.41005  -0.39290  -0.38108  -0.37886
 Alpha  occ. eigenvalues --   -0.37147  -0.36886  -0.36786  -0.35760  -0.34820
 Alpha  occ. eigenvalues --   -0.34373  -0.33574  -0.33482  -0.32891  -0.32339
 Alpha  occ. eigenvalues --   -0.32119  -0.31783  -0.31542  -0.31490  -0.30754
 Alpha  occ. eigenvalues --   -0.30405  -0.29944  -0.25866  -0.24378
 Alpha virt. eigenvalues --    0.03172   0.03927   0.06934   0.07967   0.08538
 Alpha virt. eigenvalues --    0.09584   0.10125   0.10332   0.11258   0.11787
 Alpha virt. eigenvalues --    0.12317   0.13941   0.14445   0.14915   0.15085

 Mulliken charges:
               1
     1  N   -0.314108
     2  C    0.181695
     3  C    0.047265
     4  N   -0.261573
     5  C    0.136410
     6  H    0.026354
     7  N   -0.291073
     8  C    0.144324
     9  H    0.009443
    10  N   -0.287692
    11  C    0.257955
    12  C    0.114000
    13  N   -0.059905
    14  H    0.107975
    15  H    0.083115
    16  H    0.024236
    17  H    0.031228
    18  H    0.027874
    19  N   -0.300591
    20  C    0.227196
    21  C    0.180266
    22  N   -0.060242
    23  H    0.111342
    24  H    0.109878
    25  N   -0.300899
    26  C    0.195229
    27  N   -0.148671
    28  H    0.128544
    29  C    0.171901
    30  O   -0.323263
    31  C    0.004295
    32  N   -0.222787
    33  C    0.130502
    34  H    0.019051
    35  H    0.029312
    36  H    0.027072
    37  H    0.023720
    38  H    0.061546
    39  H    0.058106
    40  H    0.069389
    41  H    0.029976
    42  C   -0.112796
    43  O   -0.262984
    44  C    0.173809
    45  H    0.132150
    46  N   -0.125504
    47  O   -0.341227
    48  C    0.340988
    49  H    0.046189
    50  C    0.165251
    51  C    0.041054
    52  N   -0.286995
    53  H    0.038857
    54  H    0.025716
    55  H    0.031885
    56  H    0.121533
    57  H    0.116857
    58  N   -0.062370
    59  C    0.082322
    60  C    0.264873
    61  N   -0.303384
    62  H    0.052281
    63  C    0.160963
    64  N   -0.297909
    65  H    0.036876
    66  C    0.134015
    67  N   -0.262644
    68  C    0.026577
    69  C    0.180099
    70  N   -0.314877
 Sum of Mulliken charges =  -0.00000

 Dipole moment (field-independent basis, Debye):
    X=             -8.3885    Y=              5.6901    Z=             -3.1161  Tot=             10.6045
 Quadrupole moment (field-independent basis, Debye-Ang):
   XX=           -155.9317   YY=           -217.9170   ZZ=           -255.8954
   XY=              1.2876   XZ=             -1.3537   YZ=             10.5482

 Normal termination of Gaussian 16 at Wed Jan 24 15:27:27 2018.
