 Gaussian 16, Revision A.03,
 Gaussian 16:  EM64L-G16RevA.03 25-Dec-2016

 ---------------------------------------
 #p wb97xd/cc-pvdz sp scf=(maxcycles=20)
 ---------------------------------------

 ------------------
 Base pair stacking
 ------------------
 Symbolic Z-matrix:
 Charge =  0 Multiplicity = 1

                         Standard orientation:
 ---------------------------------------------------------------------
 Center     Atomic      Atomic             Coordinates (Angstroms)
 Number     Number       Type             X           Y           Z
 ---------------------------------------------------------------------
      1          7           0        4.906310   -1.953583   -1.601695
      2          6           0        6.311501   -1.528295   -1.751879
      3          6           0        2.710400   -1.964658   -1.478423
      4          7           0        3.117011   -3.275753   -1.277342
      5          6           0        4.423687   -3.216607   -1.359659
      6          1           0        5.091124   -4.071941   -1.250709
      7          7           0        1.383603   -0.031560   -1.734688
      8          6           0        2.527549    0.637402   -1.911988
      9          1           0        2.418429    1.706652   -2.088265
     10          7           0        3.780177    0.185991   -1.904252
     11          6           0        3.802179   -1.138211   -1.679682
     12          6           0        1.439387   -1.362672   -1.510808
     13          7           0        0.298549   -2.032186   -1.333590
     14          1           0        0.292333   -3.018483   -1.165080
     15          1           0       -0.588330   -1.570984   -1.363206
     16          1           0        6.727571   -2.013305   -2.521187
     17          1           0        6.346261   -0.543871   -1.921652
     18          1           0        6.816832   -1.738540   -0.914959
     19          7           0        4.410291    2.748718    1.019372
     20          6           0        3.076199    2.426193    1.084379
     21          6           0        4.950709    4.089692    0.718622
     22          7           0       -0.259736    3.363784    0.851516
     23          1           0       -1.155867    2.930683    0.944259
     24          1           0       -0.247988    4.339333    0.630398
     25          7           0        2.043183    3.273304    0.886033
     26          6           0        0.875759    2.668466    1.016070
     27          7           0        0.729039    1.336073    1.317264
     28          1           0       -0.202680    0.958600    1.397187
     29          6           0        1.777797    0.445788    1.525496
     30          8           0        1.536819   -0.738023    1.792432
     31          6           0        3.038252    1.081022    1.389141
     32          7           0        4.322683    0.569335    1.512960
     33          6           0        5.101541    1.592070    1.285815
     34          1           0        6.191450    1.557863    1.300202
     35          1           0        5.515363    4.046334   -0.104836
     36          1           0        4.194667    4.725713    0.569819
     37          1           0        5.505685    4.407184    1.486736
     38          1           0       -5.075401   -0.444037    1.020372
     39          1           0       -5.028669   -0.328131    2.777936
     40          1           0       -4.017571    0.734107    1.797785
     41          1           0       -2.858841   -4.570931    2.116820
     42          6           0       -2.631840   -3.507486    2.040655
     43          8           0       -0.281294   -3.824224    1.999063
     44          6           0       -1.265808   -3.085970    1.976543
     45          1           0       -0.138120   -1.384081    1.834335
     46          7           0       -1.089684   -1.720224    1.881793
     47          8           0       -1.814650    0.428407    1.759382
     48          6           0       -2.069595   -0.760047    1.844532
     49          1           0       -4.664203   -2.863141    2.052190
     50          6           0       -3.609629   -2.594591    2.006450
     51          6           0       -4.441821   -0.255991    1.874351
     52          7           0       -3.360951   -1.245008    1.910838
     53          1           0       -5.325165    4.139604   -2.260229
     54          1           0       -3.999852    4.072793   -1.310916
     55          1           0       -5.484862    4.131278   -0.636080
     56          1           0       -3.267940   -2.921364   -1.272211
     57          1           0       -4.899327   -2.448169   -1.429661
     58          7           0       -3.939279   -2.182720   -1.334449
     59          6           0       -3.571673   -0.900428   -1.292424
     60          6           0       -3.943414    1.449651   -1.317746
     61          7           0       -2.646868    1.776615   -1.189309
     62          1           0       -0.823926    0.856189   -1.015226
     63          6           0       -1.893674    0.680766   -1.120748
     64          7           0       -2.259959   -0.604406   -1.162648
     65          1           0       -7.125856    1.927798   -1.626981
     66          6           0       -6.125116    1.505604   -1.531015
     67          7           0       -5.856181    0.223057   -1.510731
     68          6           0       -4.476286    0.173648   -1.375907
     69          6           0       -4.950940    3.780162   -1.405383
     70          7           0       -5.014346    2.305781   -1.418533
 ---------------------------------------------------------------------

 SCF Done:  E(RwB97XD) =  -2048.75097705     A.U. after   15 cycles

 The electronic state is 1-A.
 Alpha  occ. eigenvalues --  -19.25349 -19.21582 -19.20395 -14.52722 -14.52046
 Alpha  occ. eigenvalues --  -14.48912 -14.48708 -14.48151 -14.47354 -14.46616
 Alpha  occ. eigenvalues --  -14.46280 -14.45698 -14.44797 -14.44780 -14.42583
 Alpha  occ. eigenvalues --  -14.41856 -14.40833 -14.40833 -14.40620 -14.40209
 Alpha  occ. eigenvalues --  -10.45016 -10.41011 -10.40477 -10.39709 -10.38271
 Alpha  occ. eigenvalues --  -10.38028 -10.37609 -10.37556 -10.36256 -10.35396
 Alpha  occ. eigenvalues --  -10.34586 -10.34224 -10.34116 -10.33557 -10.33301
 Alpha  occ. eigenvalues --  -10.33020 -10.32920 -10.32821 -10.30896 -10.30876
 Alpha  occ. eigenvalues --  -10.30336 -10.28161 -10.27962  -1.18992  -1.15485
 Alpha  occ. eigenvalues --   -1.12986  -1.12591  -1.10784  -1.10452  -1.09796
 Alpha  occ. eigenvalues --   -1.08927  -1.08323  -1.05327  -1.04895  -1.02013
 Alpha  occ. eigenvalues --   -1.01285  -1.00363  -0.99427  -0.98366  -0.97338
 Alpha  occ. eigenvalues --   -0.96491  -0.96481  -0.92586  -0.90774  -0.87965
 Alpha  occ. eigenvalues --   -0.86192  -0.83993  -0.83466  -0.83161  -0.82409
 Alpha  occ. eigenvalues --   -0.81852  -0.78539  -0.77430  -0.75257  -0.74465
 Alpha  occ. eigenvalues --   -0.73380  -0.72929  -0.72673  -0.70871  -0.70717
 Alpha  occ. eigenvalues --   -0.67283  -0.67118  -0.66155  -0.66074  -0.64663
 Alpha  occ. eigenvalues --   -0.64218  -0.63543  -0.62526  -0.62472  -0.61528
 Alpha  occ. eigenvalues --   -0.60918  -0.60582  -0.60339  -0.59645  -0.59286
 Alpha  occ. eigenvalues --   -0.59127  -0.58042  -0.56635  -0.56342  -0.55703
 Alpha  occ. eigenvalues --   -0.55674  -0.55631  -0.55380  -0.54611  -0.54055
 Alpha  occ. eigenvalues --   -0.53946  -0.53488  -0.53411  -0.53097  -0.52828
 Alpha  occ. eigenvalues --   -0.52718  -0.52024  -0.51347  -0.50321  -0.50277
 Alpha  occ. eigenvalues --   -0.49982  -0.49808  -0.49648  -0.49080  -0.48670
 Alpha  occ. eigenvalues --   -0.48625  -0.48132  -0.47992  -0.47568  -0.47082
 Alpha  occ. eigenvalues --   -0.46586  -0.45702  -0.45298  -0.44311  -0.43557
 Alpha  occ. eigenvalues --   -0.41114  -0.40938  -0.39032  -0.38026  -0.37970
 Alpha  occ. eigenvalues --   -0.37250  -0.37133  -0.36649  -0.35442  -0.35154
 Alpha  occ. eigenvalues --   -0.34852  -0.33792  -0.33236  -0.33131  -0.32769
 Alpha  occ. eigenvalues --   -0.32480  -0.32326  -0.31784  -0.31737  -0.30525
 Alpha  occ. eigenvalues --   -0.30404  -0.30187  -0.25741  -0.25181
 Alpha virt. eigenvalues --    0.02895   0.04149   0.06307   0.08260   0.09108
 Alpha virt. eigenvalues --    0.09394   0.09924   0.10233   0.11157   0.11563
 Alpha virt. eigenvalues --    0.13025   0.14373   0.14740   0.14803   0.15110

 Mulliken charges:
               1
     1  N   -0.312801
     2  C    0.183556
     3  C    0.053747
     4  N   -0.260542
     5  C    0.141744
     6  H    0.026425
     7  N   -0.294052
     8  C    0.130119
     9  H    0.012302
    10  N   -0.281207
    11  C    0.261288
    12  C    0.097981
    13  N   -0.065660
    14  H    0.111763
    15  H    0.080859
    16  H    0.021580
    17  H    0.030591
    18  H    0.029759
    19  N   -0.308383
    20  C    0.249625
    21  C    0.180809
    22  N   -0.112625
    23  H    0.114011
    24  H    0.115177
    25  N   -0.310061
    26  C    0.237925
    27  N   -0.137371
    28  H    0.113406
    29  C    0.188330
    30  O   -0.322728
    31  C   -0.014065
    32  N   -0.227834
    33  C    0.127501
    34  H    0.020324
    35  H    0.028403
    36  H    0.028783
    37  H    0.023965
    38  H    0.061425
    39  H    0.058963
    40  H    0.074703
    41  H    0.027979
    42  C   -0.117826
    43  O   -0.262142
    44  C    0.174830
    45  H    0.132682
    46  N   -0.127048
    47  O   -0.343623
    48  C    0.347617
    49  H    0.042705
    50  C    0.164877
    51  C    0.035597
    52  N   -0.279513
    53  H    0.035144
    54  H    0.038119
    55  H    0.030591
    56  H    0.118840
    57  H    0.117611
    58  N   -0.060029
    59  C    0.086382
    60  C    0.256617
    61  N   -0.277516
    62  H    0.031802
    63  C    0.180460
    64  N   -0.312026
    65  H    0.039873
    66  C    0.138286
    67  N   -0.261202
    68  C    0.015185
    69  C    0.180816
    70  N   -0.312820
 Sum of Mulliken charges =  -0.00000

 Dipole moment (field-independent basis, Debye):
    X=             -8.5894    Y=              6.1680    Z=             -1.5899  Tot=             10.6934
 Quadrupole moment (field-independent basis, Debye-Ang):
   XX=           -163.0563   YY=           -215.7044   ZZ=           -253.2883
   XY=              4.7888   XZ=            -12.1732   YZ=              7.7677

 Normal termination of Gaussian 16 at Thu Jan 25 03:15:11 2018.
