 Gaussian 16, Revision A.03,
 Gaussian 16:  EM64L-G16RevA.03 25-Dec-2016

 ---------------------------------------
 #p wb97xd/cc-pvdz sp scf=(maxcycles=20)
 ---------------------------------------

 ------------------
 Base pair stacking
 ------------------
 Symbolic Z-matrix:
 Charge =  0 Multiplicity = 1

                         Standard orientation:
 ---------------------------------------------------------------------
 Center     Atomic      Atomic             Coordinates (Angstroms)
 Number     Number       Type             X           Y           Z
 ---------------------------------------------------------------------
      1          7           0        4.281506   -1.944857   -1.834382
      2          6           0        5.690961   -1.530691   -1.975482
      3          6           0        2.090407   -1.929943   -1.644205
      4          7           0        2.473114   -3.263208   -1.618491
      5          6           0        3.777848   -3.218835   -1.734106
      6          1           0        4.428780   -4.093429   -1.752064
      7          7           0        0.800498    0.044521   -1.619295
      8          6           0        1.953576    0.708710   -1.749131
      9          1           0        1.863434    1.793379   -1.789313
     10          7           0        3.195439    0.236409   -1.836385
     11          6           0        3.194189   -1.105559   -1.776843
     12          6           0        0.832832   -1.304848   -1.562349
     13          7           0       -0.317142   -1.969630   -1.432753
     14          1           0       -0.340629   -2.968892   -1.386458
     15          1           0       -1.193920   -1.491768   -1.377542
     16          1           0        6.073538   -1.924796   -2.811240
     17          1           0        5.742891   -0.533665   -2.024160
     18          1           0        6.215500   -1.851998   -1.187061
     19          7           0        5.013449    2.606337    0.681858
     20          6           0        3.678819    2.300644    0.797355
     21          6           0        5.557698    3.930183    0.318634
     22          7           0        0.346711    3.265475    0.630193
     23          1           0       -0.550433    2.845510    0.764365
     24          1           0        0.361362    4.232588    0.374863
     25          7           0        2.648643    3.151445    0.600025
     26          6           0        1.479786    2.564079    0.785445
     27          7           0        1.329131    1.244583    1.137221
     28          1           0        0.396586    0.880160    1.257686
     29          6           0        2.374915    0.350803    1.345470
     30          8           0        2.130479   -0.820377    1.660612
     31          6           0        3.636882    0.967331    1.149931
     32          7           0        4.919376    0.446441    1.253694
     33          6           0        5.701046    1.452254    0.968104
     34          1           0        6.790520    1.406823    0.951576
     35          1           0        6.097120    3.852236   -0.519074
     36          1           0        4.803790    4.568781    0.170016
     37          1           0        6.138395    4.268112    1.058507
     38          1           0       -4.498627   -0.482139    1.073784
     39          1           0       -4.398418   -0.305907    2.824082
     40          1           0       -3.406679    0.710776    1.778042
     41          1           0       -2.290655   -4.592182    2.248082
     42          6           0       -2.055684   -3.534533    2.128137
     43          8           0        0.289379   -3.877805    2.028437
     44          6           0       -0.688131   -3.130217    2.009124
     45          1           0        0.451328   -1.446520    1.774365
     46          7           0       -0.501632   -1.770553    1.861550
     47          8           0       -1.208959    0.380234    1.685496
     48          6           0       -1.472809   -0.801743    1.819607
     49          1           0       -4.080428   -2.868323    2.176978
     50          6           0       -3.025127   -2.612894    2.090845
     51          6           0       -3.838071   -0.271445    1.901633
     52          7           0       -2.766284   -1.270184    1.940830
     53          1           0       -5.825266    4.373564   -1.417022
     54          1           0       -4.474817    4.165343   -0.525376
     55          1           0       -5.937946    4.167923    0.198050
     56          1           0       -3.899430   -2.792639   -1.368513
     57          1           0       -5.523650   -2.273169   -1.415155
     58          7           0       -4.555518   -2.039521   -1.318407
     59          6           0       -4.158139   -0.779316   -1.130941
     60          6           0       -4.477558    1.562485   -0.855885
     61          7           0       -3.170821    1.846765   -0.729244
     62          1           0       -1.364732    0.877918   -0.727035
     63          6           0       -2.440757    0.736919   -0.819498
     64          7           0       -2.836887   -0.526182   -1.007246
     65          1           0       -7.656082    2.134646   -1.003548
     66          6           0       -6.662715    1.685170   -0.991750
     67          7           0       -6.422195    0.405103   -1.137532
     68          6           0       -5.040427    0.313607   -1.053381
     69          6           0       -5.434584    3.904464   -0.624995
     70          7           0       -5.531453    2.444414   -0.816995
 ---------------------------------------------------------------------

 SCF Done:  E(RwB97XD) =  -2048.74299457     A.U. after   15 cycles

 The electronic state is 1-A.
 Alpha  occ. eigenvalues --  -19.25083 -19.21117 -19.20483 -14.52746 -14.51574
 Alpha  occ. eigenvalues --  -14.49286 -14.48825 -14.48308 -14.47009 -14.46503
 Alpha  occ. eigenvalues --  -14.46411 -14.45666 -14.45138 -14.45070 -14.43254
 Alpha  occ. eigenvalues --  -14.41943 -14.41080 -14.41065 -14.41065 -14.40678
 Alpha  occ. eigenvalues --  -10.44630 -10.41016 -10.40762 -10.39251 -10.38224
 Alpha  occ. eigenvalues --  -10.38026 -10.37727 -10.37145 -10.36503 -10.35882
 Alpha  occ. eigenvalues --  -10.34212 -10.34090 -10.33924 -10.33773 -10.33484
 Alpha  occ. eigenvalues --  -10.33221 -10.33175 -10.33114 -10.31020 -10.30472
 Alpha  occ. eigenvalues --  -10.30109 -10.28549 -10.28004  -1.18675  -1.15561
 Alpha  occ. eigenvalues --   -1.13046  -1.12155  -1.11006  -1.10549  -1.10157
 Alpha  occ. eigenvalues --   -1.08517  -1.08366  -1.05636  -1.05382  -1.01631
 Alpha  occ. eigenvalues --   -1.01331  -1.00898  -0.99504  -0.98419  -0.97655
 Alpha  occ. eigenvalues --   -0.96699  -0.96593  -0.93072  -0.90337  -0.88158
 Alpha  occ. eigenvalues --   -0.86250  -0.84091  -0.83713  -0.82774  -0.82480
 Alpha  occ. eigenvalues --   -0.81917  -0.78126  -0.77637  -0.75478  -0.74523
 Alpha  occ. eigenvalues --   -0.73421  -0.73052  -0.72566  -0.71195  -0.70978
 Alpha  occ. eigenvalues --   -0.67470  -0.67198  -0.66435  -0.65810  -0.64824
 Alpha  occ. eigenvalues --   -0.64171  -0.63332  -0.62914  -0.62424  -0.61609
 Alpha  occ. eigenvalues --   -0.61118  -0.60812  -0.60371  -0.59962  -0.59083
 Alpha  occ. eigenvalues --   -0.58848  -0.58111  -0.56956  -0.56551  -0.55958
 Alpha  occ. eigenvalues --   -0.55677  -0.55636  -0.55542  -0.55104  -0.54104
 Alpha  occ. eigenvalues --   -0.53875  -0.53719  -0.53250  -0.53141  -0.52821
 Alpha  occ. eigenvalues --   -0.51969  -0.51773  -0.51447  -0.50497  -0.50449
 Alpha  occ. eigenvalues --   -0.50034  -0.49922  -0.49415  -0.48935  -0.48927
 Alpha  occ. eigenvalues --   -0.48639  -0.47901  -0.47797  -0.47522  -0.46979
 Alpha  occ. eigenvalues --   -0.46824  -0.45580  -0.45294  -0.44685  -0.43219
 Alpha  occ. eigenvalues --   -0.41365  -0.41177  -0.38907  -0.38255  -0.38143
 Alpha  occ. eigenvalues --   -0.37308  -0.37177  -0.37040  -0.35507  -0.35128
 Alpha  occ. eigenvalues --   -0.35122  -0.34166  -0.33588  -0.33307  -0.32820
 Alpha  occ. eigenvalues --   -0.32535  -0.32248  -0.31768  -0.31065  -0.30711
 Alpha  occ. eigenvalues --   -0.30590  -0.30367  -0.26419  -0.24990
 Alpha virt. eigenvalues --    0.03419   0.03798   0.06437   0.07885   0.09032
 Alpha virt. eigenvalues --    0.09325   0.09804   0.10140   0.10705   0.11609
 Alpha virt. eigenvalues --    0.13600   0.14455   0.14545   0.14581   0.14778

 Mulliken charges:
               1
     1  N   -0.310976
     2  C    0.185071
     3  C    0.067237
     4  N   -0.262632
     5  C    0.146372
     6  H    0.028601
     7  N   -0.285579
     8  C    0.116111
     9  H    0.019919
    10  N   -0.268452
    11  C    0.255355
    12  C    0.076515
    13  N   -0.070387
    14  H    0.109925
    15  H    0.082410
    16  H    0.019208
    17  H    0.030951
    18  H    0.034565
    19  N   -0.310251
    20  C    0.252249
    21  C    0.181751
    22  N   -0.112256
    23  H    0.122502
    24  H    0.116399
    25  N   -0.301410
    26  C    0.205485
    27  N   -0.113983
    28  H    0.116695
    29  C    0.154944
    30  O   -0.318273
    31  C    0.016135
    32  N   -0.233782
    33  C    0.119866
    34  H    0.021380
    35  H    0.026459
    36  H    0.029457
    37  H    0.024492
    38  H    0.065790
    39  H    0.055026
    40  H    0.079383
    41  H    0.027195
    42  C   -0.116344
    43  O   -0.260814
    44  C    0.175022
    45  H    0.135931
    46  N   -0.128417
    47  O   -0.347150
    48  C    0.353361
    49  H    0.041856
    50  C    0.163534
    51  C    0.036128
    52  N   -0.277940
    53  H    0.034595
    54  H    0.038276
    55  H    0.031809
    56  H    0.118426
    57  H    0.121418
    58  N   -0.062638
    59  C    0.054920
    60  C    0.239987
    61  N   -0.272640
    62  H    0.013094
    63  C    0.186165
    64  N   -0.303919
    65  H    0.040468
    66  C    0.141060
    67  N   -0.257223
    68  C    0.032338
    69  C    0.181189
    70  N   -0.311955
 Sum of Mulliken charges =  -0.00000

 Dipole moment (field-independent basis, Debye):
    X=             -8.4656    Y=              6.2604    Z=             -1.7542  Tot=             10.6741
 Quadrupole moment (field-independent basis, Debye-Ang):
   XX=           -168.8703   YY=           -216.4729   ZZ=           -252.3313
   XY=              8.0117   XZ=            -18.8498   YZ=             10.3010

 Normal termination of Gaussian 16 at Wed Jan 24 19:05:48 2018.
