 Gaussian 16, Revision A.03,
 Gaussian 16:  EM64L-G16RevA.03 25-Dec-2016

 ---------------------------------------
 #p wb97xd/cc-pvdz sp scf=(maxcycles=20)
 ---------------------------------------

 ------------------
 Base pair stacking
 ------------------
 Symbolic Z-matrix:
 Charge =  0 Multiplicity = 1

                         Standard orientation:
 ---------------------------------------------------------------------
 Center     Atomic      Atomic             Coordinates (Angstroms)
 Number     Number       Type             X           Y           Z
 ---------------------------------------------------------------------
      1          7           0        4.908472   -1.999626   -1.604171
      2          6           0        6.311004   -1.585047   -1.801732
      3          6           0        2.714644   -2.002307   -1.447898
      4          7           0        3.125056   -3.298196   -1.170492
      5          6           0        4.430326   -3.244715   -1.275748
      6          1           0        5.099879   -4.091648   -1.122925
      7          7           0        1.382901   -0.088882   -1.805989
      8          6           0        2.523653    0.567245   -2.042117
      9          1           0        2.411222    1.623258   -2.283911
     10          7           0        3.776559    0.116881   -2.024483
     11          6           0        3.802776   -1.190501   -1.717107
     12          6           0        1.442885   -1.403218   -1.499375
     13          7           0        0.305244   -2.059891   -1.263335
     14          1           0        0.302185   -3.033590   -1.032818
     15          1           0       -0.582284   -1.601238   -1.308854
     16          1           0        6.715946   -2.117782   -2.544961
     17          1           0        6.342590   -0.613316   -2.033815
     18          1           0        6.828817   -1.742166   -0.960789
     19          7           0        4.404182    2.787546    1.020757
     20          6           0        3.070505    2.466959    1.101896
     21          6           0        4.943030    4.131870    0.732461
     22          7           0       -0.266403    3.415386    0.936710
     23          1           0       -1.162011    2.982837    1.036898
     24          1           0       -0.255789    4.394250    0.730717
     25          7           0        2.036548    3.319328    0.933241
     26          6           0        0.869855    2.715085    1.072322
     27          7           0        0.724673    1.378460    1.354955
     28          1           0       -0.206572    1.001817    1.443743
     29          6           0        1.774425    0.482730    1.532558
     30          8           0        1.534830   -0.704587    1.784759
     31          6           0        3.034113    1.117270    1.386147
     32          7           0        4.319093    0.600900    1.481553
     33          6           0        5.096750    1.625360    1.258079
     34          1           0        6.186658    1.588540    1.254621
     35          1           0        5.494465    4.100185   -0.100436
     36          1           0        4.186288    4.771807    0.605643
     37          1           0        5.510887    4.436077    1.496541
     38          1           0       -5.088050   -0.384071    1.122483
     39          1           0       -5.013205   -0.295809    2.880680
     40          1           0       -4.015178    0.779429    1.901315
     41          1           0       -2.864463   -4.532469    2.118954
     42          6           0       -2.636113   -3.468474    2.055827
     43          8           0       -0.287299   -3.789660    1.971961
     44          6           0       -1.270237   -3.048986    1.976629
     45          1           0       -0.140807   -1.347554    1.843142
     46          7           0       -1.092320   -1.682321    1.900452
     47          8           0       -1.813890    0.469553    1.823156
     48          6           0       -2.070343   -0.719522    1.893765
     49          1           0       -4.666455   -2.819937    2.109706
     50          6           0       -3.612088   -2.553016    2.051422
     51          6           0       -4.440568   -0.210814    1.969128
     52          7           0       -3.361674   -1.202638    1.972982
     53          1           0       -5.335686    4.042597   -2.494284
     54          1           0       -3.996414    4.035503   -1.562418
     55          1           0       -5.471294    4.136877   -0.870670
     56          1           0       -3.259352   -2.942459   -1.093067
     57          1           0       -4.893205   -2.479704   -1.255862
     58          7           0       -3.932028   -2.209034   -1.191841
     59          6           0       -3.564701   -0.926753   -1.236324
     60          6           0       -3.938331    1.417152   -1.404450
     61          7           0       -2.640254    1.751211   -1.316154
     62          1           0       -0.814317    0.843125   -1.111355
     63          6           0       -1.885379    0.661675   -1.189720
     64          7           0       -2.251398   -0.623478   -1.144961
     65          1           0       -7.125322    1.875673   -1.696018
     66          6           0       -6.122990    1.460113   -1.588450
     67          7           0       -5.852930    0.181325   -1.491222
     68          6           0       -4.471159    0.140164   -1.374027
     69          6           0       -4.948599    3.737746   -1.624100
     70          7           0       -5.011207    2.265490   -1.543200
 ---------------------------------------------------------------------

 SCF Done:  E(RwB97XD) =  -2048.75048729     A.U. after   15 cycles

 The electronic state is 1-A.
 Alpha  occ. eigenvalues --  -19.25434 -19.21679 -19.20454 -14.52647 -14.52115
 Alpha  occ. eigenvalues --  -14.48818 -14.48776 -14.48075 -14.47418 -14.46712
 Alpha  occ. eigenvalues --  -14.46424 -14.45642 -14.44738 -14.44683 -14.42437
 Alpha  occ. eigenvalues --  -14.41924 -14.40903 -14.40733 -14.40557 -14.40131
 Alpha  occ. eigenvalues --  -10.45096 -10.41101 -10.40396 -10.39803 -10.38211
 Alpha  occ. eigenvalues --  -10.38098 -10.37709 -10.37480 -10.36149 -10.35291
 Alpha  occ. eigenvalues --  -10.34666 -10.34297 -10.34038 -10.33467 -10.33357
 Alpha  occ. eigenvalues --  -10.32967 -10.32841 -10.32762 -10.30948 -10.30946
 Alpha  occ. eigenvalues --  -10.30292 -10.28070 -10.28041  -1.19048  -1.15413
 Alpha  occ. eigenvalues --   -1.13061  -1.12683  -1.10703  -1.10523  -1.09725
 Alpha  occ. eigenvalues --   -1.08991  -1.08407  -1.05244  -1.04801  -1.02084
 Alpha  occ. eigenvalues --   -1.01215  -1.00259  -0.99540  -0.98439  -0.97256
 Alpha  occ. eigenvalues --   -0.96558  -0.96395  -0.92494  -0.90857  -0.87886
 Alpha  occ. eigenvalues --   -0.86114  -0.84066  -0.83391  -0.83225  -0.82473
 Alpha  occ. eigenvalues --   -0.81782  -0.78615  -0.77355  -0.75167  -0.74539
 Alpha  occ. eigenvalues --   -0.73476  -0.73003  -0.72579  -0.70791  -0.70634
 Alpha  occ. eigenvalues --   -0.67255  -0.67161  -0.66228  -0.65980  -0.64584
 Alpha  occ. eigenvalues --   -0.64284  -0.63609  -0.62532  -0.62423  -0.61622
 Alpha  occ. eigenvalues --   -0.60852  -0.60501  -0.60251  -0.59556  -0.59324
 Alpha  occ. eigenvalues --   -0.59179  -0.58158  -0.56640  -0.56283  -0.55723
 Alpha  occ. eigenvalues --   -0.55654  -0.55548  -0.55275  -0.54553  -0.54079
 Alpha  occ. eigenvalues --   -0.53915  -0.53504  -0.53464  -0.53047  -0.52908
 Alpha  occ. eigenvalues --   -0.52787  -0.52084  -0.51278  -0.50265  -0.50218
 Alpha  occ. eigenvalues --   -0.50029  -0.49741  -0.49566  -0.49148  -0.48695
 Alpha  occ. eigenvalues --   -0.48578  -0.48210  -0.48044  -0.47642  -0.47145
 Alpha  occ. eigenvalues --   -0.46517  -0.45695  -0.45348  -0.44326  -0.43598
 Alpha  occ. eigenvalues --   -0.41011  -0.40853  -0.39098  -0.37944  -0.37890
 Alpha  occ. eigenvalues --   -0.37246  -0.37197  -0.36635  -0.35515  -0.35097
 Alpha  occ. eigenvalues --   -0.34747  -0.33844  -0.33171  -0.33085  -0.32806
 Alpha  occ. eigenvalues --   -0.32552  -0.32406  -0.31887  -0.31798  -0.30459
 Alpha  occ. eigenvalues --   -0.30343  -0.30113  -0.25631  -0.25277
 Alpha virt. eigenvalues --    0.02814   0.04206   0.06404   0.08349   0.09045
 Alpha virt. eigenvalues --    0.09327   0.09870   0.10290   0.11264   0.11505
 Alpha virt. eigenvalues --    0.13088   0.14461   0.14653   0.14881   0.14995

 Mulliken charges:
               1
     1  N   -0.312662
     2  C    0.183296
     3  C    0.053407
     4  N   -0.259310
     5  C    0.141694
     6  H    0.026174
     7  N   -0.296301
     8  C    0.131734
     9  H    0.011084
    10  N   -0.283235
    11  C    0.260851
    12  C    0.099345
    13  N   -0.065821
    14  H    0.112854
    15  H    0.081429
    16  H    0.021618
    17  H    0.030767
    18  H    0.029286
    19  N   -0.309657
    20  C    0.251817
    21  C    0.180783
    22  N   -0.115761
    23  H    0.114954
    24  H    0.115888
    25  N   -0.311348
    26  C    0.242120
    27  N   -0.141397
    28  H    0.115348
    29  C    0.190683
    30  O   -0.322394
    31  C   -0.014322
    32  N   -0.228265
    33  C    0.128120
    34  H    0.020909
    35  H    0.028486
    36  H    0.028995
    37  H    0.024198
    38  H    0.061197
    39  H    0.059273
    40  H    0.074374
    41  H    0.027876
    42  C   -0.119560
    43  O   -0.262369
    44  C    0.173386
    45  H    0.132578
    46  N   -0.126104
    47  O   -0.344935
    48  C    0.347382
    49  H    0.042675
    50  C    0.165255
    51  C    0.035831
    52  N   -0.279061
    53  H    0.034936
    54  H    0.039176
    55  H    0.030023
    56  H    0.118585
    57  H    0.116896
    58  N   -0.059652
    59  C    0.087991
    60  C    0.256464
    61  N   -0.276365
    62  H    0.033251
    63  C    0.178074
    64  N   -0.313012
    65  H    0.039613
    66  C    0.138575
    67  N   -0.262991
    68  C    0.017644
    69  C    0.180529
    70  N   -0.312904
 Sum of Mulliken charges =  -0.00000

 Dipole moment (field-independent basis, Debye):
    X=             -8.5927    Y=              6.2648    Z=             -1.2618  Tot=             10.7086
 Quadrupole moment (field-independent basis, Debye-Ang):
   XX=           -163.1946   YY=           -215.2590   ZZ=           -252.5951
   XY=              4.5759   XZ=            -11.8987   YZ=              6.3940

 Normal termination of Gaussian 16 at Wed Jan 24 09:29:05 2018.
