 Gaussian 16, Revision A.03,
 Gaussian 16:  EM64L-G16RevA.03 25-Dec-2016

 ---------------------------------------
 #p wb97xd/cc-pvdz sp scf=(maxcycles=20)
 ---------------------------------------

 ------------------
 Base pair stacking
 ------------------
 Symbolic Z-matrix:
 Charge =  0 Multiplicity = 1

                         Standard orientation:
 ---------------------------------------------------------------------
 Center     Atomic      Atomic             Coordinates (Angstroms)
 Number     Number       Type             X           Y           Z
 ---------------------------------------------------------------------
      1          7           0        5.833419   -1.727383   -1.031300
      2          6           0        7.231006   -1.256324   -0.977840
      3          6           0        3.640195   -1.803561   -1.177191
      4          7           0        4.064825   -3.115523   -1.024909
      5          6           0        5.369156   -3.017121   -0.943109
      6          1           0        6.047886   -3.861115   -0.816845
      7          7           0        2.287669    0.109277   -1.450393
      8          6           0        3.420878    0.818687   -1.437662
      9          1           0        3.296812    1.895217   -1.546960
     10          7           0        4.678423    0.399909   -1.310773
     11          6           0        4.719082   -0.936666   -1.182974
     12          6           0        2.362153   -1.233275   -1.319670
     13          7           0        1.232071   -1.943138   -1.332143
     14          1           0        1.239767   -2.939333   -1.238477
     15          1           0        0.339710   -1.503649   -1.435488
     16          1           0        7.752394   -1.669959   -1.724328
     17          1           0        7.251845   -0.261183   -1.069424
     18          1           0        7.639760   -1.517513   -0.103371
     19          7           0        3.450511    2.783159    1.456562
     20          6           0        2.128138    2.422732    1.359206
     21          6           0        3.985827    4.138392    1.216854
     22          7           0       -1.179000    3.264000    0.713553
     23          1           0       -2.067199    2.805629    0.698084
     24          1           0       -1.167648    4.239009    0.490080
     25          7           0        1.103875    3.239515    1.030871
     26          6           0       -0.053198    2.601796    1.020089
     27          7           0       -0.198261    1.266394    1.308486
     28          1           0       -1.121740    0.862587    1.275613
     29          6           0        0.841626    0.406928    1.648817
     30          8           0        0.603093   -0.782725    1.890817
     31          6           0        2.090917    1.077671    1.664561
     32          7           0        3.364298    0.603215    1.947906
     33          6           0        4.136076    1.647333    1.812301
     34          1           0        5.216492    1.644347    1.960486
     35          1           0        4.648322    4.109460    0.469153
     36          1           0        3.236188    4.752222    0.972849
     37          1           0        4.433124    4.473269    2.045466
     38          1           0       -5.869895   -0.679676    0.311703
     39          1           0       -6.042634   -0.558753    2.061043
     40          1           0       -4.949120    0.529896    1.206388
     41          1           0       -3.689541   -4.739127    1.694988
     42          6           0       -3.484917   -3.669794    1.641273
     43          8           0       -1.139074   -3.919231    1.890159
     44          6           0       -2.133749   -3.209497    1.742881
     45          1           0       -1.045468   -1.476346    1.730536
     46          7           0       -1.985823   -1.839487    1.662779
     47          8           0       -2.750425    0.287268    1.440265
     48          6           0       -2.980357   -0.907812    1.500171
     49          1           0       -5.520626   -3.083838    1.399753
     50          6           0       -4.476389   -2.785327    1.482229
     51          6           0       -5.351530   -0.471769    1.235890
     52          7           0       -4.255930   -1.429377    1.410269
     53          1           0       -4.450073    4.137165   -2.480530
     54          1           0       -3.246052    4.031071   -1.384552
     55          1           0       -4.802128    3.999761   -0.892893
     56          1           0       -2.283480   -2.924505   -1.770453
     57          1           0       -3.899729   -2.482082   -2.090002
     58          7           0       -2.967632   -2.200513   -1.859507
     59          6           0       -2.652069   -0.916365   -1.679109
     60          6           0       -3.098870    1.418517   -1.576937
     61          7           0       -1.838972    1.767369   -1.268099
     62          1           0       -0.019221    0.882772   -0.941596
     63          6           0       -1.062029    0.688936   -1.189035
     64          7           0       -1.376201   -0.598066   -1.369368
     65          1           0       -6.236213    1.838244   -2.235035
     66          6           0       -5.240135    1.435415   -2.049298
     67          7           0       -4.931517    0.162344   -2.090627
     68          6           0       -3.576708    0.137685   -1.792953
     69          6           0       -4.168406    3.722573   -1.615218
     70          7           0       -4.178964    2.252448   -1.744133
 ---------------------------------------------------------------------

 SCF Done:  E(RwB97XD) =  -2048.73234141     A.U. after   15 cycles

 The electronic state is 1-A.
 Alpha  occ. eigenvalues --  -19.25671 -19.21810 -19.20405 -14.52610 -14.52259
 Alpha  occ. eigenvalues --  -14.48538 -14.48481 -14.48375 -14.47649 -14.46553
 Alpha  occ. eigenvalues --  -14.45731 -14.45579 -14.44245 -14.43887 -14.42341
 Alpha  occ. eigenvalues --  -14.41672 -14.41203 -14.40788 -14.40494 -14.40155
 Alpha  occ. eigenvalues --  -10.45286 -10.40690 -10.39946 -10.39936 -10.38074
 Alpha  occ. eigenvalues --  -10.37938 -10.37696 -10.37175 -10.35584 -10.35367
 Alpha  occ. eigenvalues --  -10.34727 -10.34386 -10.33978 -10.33886 -10.33151
 Alpha  occ. eigenvalues --  -10.33001 -10.32956 -10.32603 -10.31025 -10.30794
 Alpha  occ. eigenvalues --  -10.30700 -10.28352 -10.27744  -1.19274  -1.15282
 Alpha  occ. eigenvalues --   -1.12953  -1.12836  -1.11120  -1.10315  -1.09321
 Alpha  occ. eigenvalues --   -1.09133  -1.08204  -1.04933  -1.04858  -1.02277
 Alpha  occ. eigenvalues --   -1.01133  -1.00378  -0.99270  -0.98272  -0.96927
 Alpha  occ. eigenvalues --   -0.96693  -0.96298  -0.92592  -0.90906  -0.87724
 Alpha  occ. eigenvalues --   -0.86169  -0.83780  -0.83750  -0.83315  -0.82234
 Alpha  occ. eigenvalues --   -0.82158  -0.78720  -0.77096  -0.74987  -0.74279
 Alpha  occ. eigenvalues --   -0.73306  -0.73132  -0.72803  -0.70941  -0.70535
 Alpha  occ. eigenvalues --   -0.67019  -0.66941  -0.66331  -0.66209  -0.64433
 Alpha  occ. eigenvalues --   -0.64231  -0.63521  -0.62643  -0.62561  -0.61326
 Alpha  occ. eigenvalues --   -0.60755  -0.60402  -0.60298  -0.59539  -0.59368
 Alpha  occ. eigenvalues --   -0.59251  -0.57986  -0.56759  -0.56348  -0.56121
 Alpha  occ. eigenvalues --   -0.55832  -0.55625  -0.55365  -0.54728  -0.54282
 Alpha  occ. eigenvalues --   -0.54009  -0.53404  -0.53326  -0.53100  -0.52692
 Alpha  occ. eigenvalues --   -0.52608  -0.52115  -0.51625  -0.50614  -0.50074
 Alpha  occ. eigenvalues --   -0.49932  -0.49695  -0.49378  -0.49029  -0.48783
 Alpha  occ. eigenvalues --   -0.48576  -0.48081  -0.47949  -0.47390  -0.47140
 Alpha  occ. eigenvalues --   -0.46728  -0.45641  -0.44890  -0.44592  -0.43740
 Alpha  occ. eigenvalues --   -0.41059  -0.40965  -0.39301  -0.37929  -0.37800
 Alpha  occ. eigenvalues --   -0.37057  -0.36991  -0.36815  -0.35782  -0.34827
 Alpha  occ. eigenvalues --   -0.34398  -0.33495  -0.33409  -0.32973  -0.32421
 Alpha  occ. eigenvalues --   -0.32280  -0.32113  -0.31849  -0.31604  -0.30743
 Alpha  occ. eigenvalues --   -0.30345  -0.29916  -0.25819  -0.24653
 Alpha virt. eigenvalues --    0.03130   0.04005   0.07066   0.08043   0.08505
 Alpha virt. eigenvalues --    0.09530   0.10035   0.10404   0.11251   0.11775
 Alpha virt. eigenvalues --    0.12326   0.13999   0.14484   0.14855   0.15156

 Mulliken charges:
               1
     1  N   -0.313771
     2  C    0.181578
     3  C    0.047553
     4  N   -0.260994
     5  C    0.136343
     6  H    0.026178
     7  N   -0.291611
     8  C    0.140850
     9  H    0.009217
    10  N   -0.288585
    11  C    0.256603
    12  C    0.114685
    13  N   -0.058859
    14  H    0.108894
    15  H    0.083306
    16  H    0.024226
    17  H    0.031435
    18  H    0.027452
    19  N   -0.304668
    20  C    0.236159
    21  C    0.180380
    22  N   -0.073899
    23  H    0.110619
    24  H    0.111189
    25  N   -0.303061
    26  C    0.205668
    27  N   -0.145795
    28  H    0.127383
    29  C    0.173401
    30  O   -0.322705
    31  C    0.001850
    32  N   -0.224026
    33  C    0.131205
    34  H    0.020446
    35  H    0.029481
    36  H    0.027404
    37  H    0.023714
    38  H    0.061494
    39  H    0.058198
    40  H    0.070327
    41  H    0.029880
    42  C   -0.112704
    43  O   -0.263418
    44  C    0.170889
    45  H    0.132410
    46  N   -0.123972
    47  O   -0.341537
    48  C    0.339555
    49  H    0.046453
    50  C    0.164897
    51  C    0.040142
    52  N   -0.285648
    53  H    0.037938
    54  H    0.030757
    55  H    0.030099
    56  H    0.122584
    57  H    0.116463
    58  N   -0.061599
    59  C    0.081241
    60  C    0.255017
    61  N   -0.287667
    62  H    0.046480
    63  C    0.159785
    64  N   -0.298751
    65  H    0.036748
    66  C    0.135795
    67  N   -0.264772
    68  C    0.030427
    69  C    0.177780
    70  N   -0.314539
 Sum of Mulliken charges =  -0.00000

 Dipole moment (field-independent basis, Debye):
    X=             -8.4044    Y=              5.7387    Z=             -2.7585  Tot=             10.5440
 Quadrupole moment (field-independent basis, Debye-Ang):
   XX=           -156.0921   YY=           -217.2292   ZZ=           -255.2903
   XY=              1.5432   XZ=             -0.9870   YZ=              9.5392

 Normal termination of Gaussian 16 at Wed Jan 24 10:51:16 2018.
