 Gaussian 16, Revision A.03,
 Gaussian 16:  EM64L-G16RevA.03 25-Dec-2016

 ---------------------------------------
 #p wb97xd/cc-pvdz sp scf=(maxcycles=20)
 ---------------------------------------

 ------------------
 Base pair stacking
 ------------------
 Symbolic Z-matrix:
 Charge =  0 Multiplicity = 1

                         Standard orientation:
 ---------------------------------------------------------------------
 Center     Atomic      Atomic             Coordinates (Angstroms)
 Number     Number       Type             X           Y           Z
 ---------------------------------------------------------------------
      1          7           0       -5.890284   -1.815558    0.970604
      2          6           0       -7.292129   -1.369212    1.087272
      3          6           0       -3.692490   -1.888773    1.011276
      4          7           0       -4.113766   -3.129628    0.555705
      5          6           0       -5.420994   -3.035846    0.549436
      6          1           0       -6.098366   -3.833889    0.244090
      7          7           0       -2.343390   -0.079992    1.697702
      8          6           0       -3.481098    0.591687    1.902797
      9          1           0       -3.360215    1.609991    2.269824
     10          7           0       -4.739794    0.196194    1.723416
     11          6           0       -4.776258   -1.068149    1.271163
     12          6           0       -2.413743   -1.349964    1.242403
     13          7           0       -1.279166   -2.022077    1.037066
     14          1           0       -1.283702   -2.964433    0.700669
     15          1           0       -0.386444   -1.606790    1.212382
     16          1           0       -7.780162   -1.962695    1.727411
     17          1           0       -7.316184   -0.427826    1.422447
     18          1           0       -7.733925   -1.413609    0.191253
     19          7           0       -3.355259    2.986339   -1.503616
     20          6           0       -2.034165    2.611798   -1.453877
     21          6           0       -3.859664    4.362750   -1.325363
     22          7           0        1.313588    3.440040   -1.043581
     23          1           0        2.195488    2.969432   -1.045647
     24          1           0        1.326667    4.427597   -0.884566
     25          7           0       -0.983342    3.431657   -1.235550
     26          6           0        0.164505    2.777473   -1.244909
     27          7           0        0.276853    1.423963   -1.452039
     28          1           0        1.195630    1.008352   -1.442252
     29          6           0       -0.790751    0.560980   -1.678649
     30          8           0       -0.580712   -0.645581   -1.854167
     31          6           0       -2.030537    1.249289   -1.671466
     32          7           0       -3.323343    0.777919   -1.854143
     33          6           0       -4.073414    1.840929   -1.746394
     34          1           0       -5.160269    1.845681   -1.835838
     35          1           0       -4.480631    4.393234   -0.542884
     36          1           0       -3.090188    4.979020   -1.162948
     37          1           0       -4.347339    4.650088   -2.149030
     38          1           0        5.969668   -0.544014   -0.635141
     39          1           0        6.048070   -0.540076   -2.395392
     40          1           0        5.016595    0.619367   -1.556869
     41          1           0        3.666307   -4.649354   -1.628778
     42          6           0        3.478338   -3.575638   -1.634752
     43          8           0        1.119462   -3.802997   -1.740334
     44          6           0        2.129509   -3.101272   -1.693773
     45          1           0        1.065322   -1.353714   -1.737275
     46          7           0        2.003357   -1.726737   -1.696318
     47          8           0        2.805551    0.397411   -1.655848
     48          6           0        3.016879   -0.802571   -1.649114
     49          1           0        5.531387   -3.008004   -1.542034
     50          6           0        4.488019   -2.698749   -1.587819
     51          6           0        5.404222   -0.388434   -1.541856
     52          7           0        4.288826   -1.337619   -1.593651
     53          1           0        4.402197    3.681519    3.438516
     54          1           0        3.155805    3.828745    2.395955
     55          1           0        4.691008    3.945507    1.854114
     56          1           0        2.257914   -3.022433    1.088077
     57          1           0        3.882604   -2.645542    1.446478
     58          7           0        2.940047   -2.331433    1.327557
     59          6           0        2.608563   -1.047874    1.481717
     60          6           0        3.034651    1.247280    1.942644
     61          7           0        1.760944    1.640437    1.776714
     62          1           0       -0.064281    0.833386    1.309985
     63          6           0        0.988971    0.601955    1.462843
     64          7           0        1.319081   -0.684373    1.307970
     65          1           0        6.192936    1.544112    2.566547
     66          6           0        5.193017    1.182939    2.324376
     67          7           0        4.895177   -0.066025    2.061554
     68          6           0        3.529680   -0.039134    1.817748
     69          6           0        4.088821    3.488328    2.508742
     70          7           0        4.114773    2.032170    2.270182
 ---------------------------------------------------------------------

 SCF Done:  E(RwB97XD) =  -2048.74736216     A.U. after   15 cycles

 The electronic state is 1-A.
 Alpha  occ. eigenvalues --  -19.25975 -19.22392 -19.20650 -14.52576 -14.52212
 Alpha  occ. eigenvalues --  -14.48780 -14.48245 -14.48024 -14.47945 -14.46979
 Alpha  occ. eigenvalues --  -14.46715 -14.45313 -14.43975 -14.43953 -14.42059
 Alpha  occ. eigenvalues --  -14.41792 -14.40862 -14.40825 -14.40440 -14.39796
 Alpha  occ. eigenvalues --  -10.45592 -10.41253 -10.40421 -10.39644 -10.38246
 Alpha  occ. eigenvalues --  -10.38046 -10.37800 -10.36887 -10.35394 -10.34998
 Alpha  occ. eigenvalues --  -10.34955 -10.34336 -10.33765 -10.33558 -10.33287
 Alpha  occ. eigenvalues --  -10.32829 -10.32643 -10.32396 -10.31386 -10.30927
 Alpha  occ. eigenvalues --  -10.30581 -10.28099 -10.27993  -1.19545  -1.14935
 Alpha  occ. eigenvalues --   -1.13356  -1.13233  -1.10809  -1.10593  -1.09463
 Alpha  occ. eigenvalues --   -1.09002  -1.08586  -1.04586  -1.04510  -1.02631
 Alpha  occ. eigenvalues --   -1.00765  -0.99957  -0.99782  -0.98572  -0.96618
 Alpha  occ. eigenvalues --   -0.96590  -0.96366  -0.92200  -0.91272  -0.87356
 Alpha  occ. eigenvalues --   -0.85699  -0.84113  -0.83602  -0.83450  -0.82511
 Alpha  occ. eigenvalues --   -0.81857  -0.79066  -0.76772  -0.74655  -0.74508
 Alpha  occ. eigenvalues --   -0.73697  -0.73489  -0.72437  -0.70584  -0.70169
 Alpha  occ. eigenvalues --   -0.67413  -0.66667  -0.66571  -0.65835  -0.64563
 Alpha  occ. eigenvalues --   -0.64037  -0.63823  -0.62726  -0.62248  -0.61770
 Alpha  occ. eigenvalues --   -0.60353  -0.60086  -0.60048  -0.59639  -0.59283
 Alpha  occ. eigenvalues --   -0.59158  -0.58409  -0.56644  -0.56153  -0.56066
 Alpha  occ. eigenvalues --   -0.55922  -0.55162  -0.54922  -0.54544  -0.54354
 Alpha  occ. eigenvalues --   -0.53720  -0.53679  -0.53309  -0.53140  -0.53013
 Alpha  occ. eigenvalues --   -0.52529  -0.52429  -0.51348  -0.50277  -0.50221
 Alpha  occ. eigenvalues --   -0.49818  -0.49560  -0.49519  -0.48980  -0.48813
 Alpha  occ. eigenvalues --   -0.48538  -0.48399  -0.48338  -0.47715  -0.47432
 Alpha  occ. eigenvalues --   -0.46492  -0.45696  -0.44845  -0.44474  -0.44037
 Alpha  occ. eigenvalues --   -0.40642  -0.40462  -0.39529  -0.37540  -0.37369
 Alpha  occ. eigenvalues --   -0.37304  -0.37151  -0.36675  -0.36062  -0.34647
 Alpha  occ. eigenvalues --   -0.34135  -0.33831  -0.33473  -0.33040  -0.32952
 Alpha  occ. eigenvalues --   -0.32681  -0.32423  -0.32257  -0.31872  -0.30436
 Alpha  occ. eigenvalues --   -0.29997  -0.29719  -0.25664  -0.25024
 Alpha virt. eigenvalues --    0.02701   0.04231   0.07401   0.08244   0.08460
 Alpha virt. eigenvalues --    0.09260   0.09736   0.10766   0.11530   0.11874
 Alpha virt. eigenvalues --    0.12504   0.14421   0.14520   0.14816   0.15278

 Mulliken charges:
               1
     1  N   -0.312872
     2  C    0.181269
     3  C    0.047879
     4  N   -0.258689
     5  C    0.135159
     6  H    0.024946
     7  N   -0.296026
     8  C    0.137890
     9  H    0.007925
    10  N   -0.292200
    11  C    0.251053
    12  C    0.115219
    13  N   -0.054681
    14  H    0.112585
    15  H    0.084490
    16  H    0.023980
    17  H    0.032159
    18  H    0.025611
    19  N   -0.311859
    20  C    0.248846
    21  C    0.180711
    22  N   -0.113327
    23  H    0.113210
    24  H    0.115163
    25  N   -0.309381
    26  C    0.239378
    27  N   -0.146575
    28  H    0.121389
    29  C    0.183654
    30  O   -0.321342
    31  C   -0.005723
    32  N   -0.226212
    33  C    0.132733
    34  H    0.024234
    35  H    0.029641
    36  H    0.028414
    37  H    0.024374
    38  H    0.062759
    39  H    0.058492
    40  H    0.072202
    41  H    0.030170
    42  C   -0.111749
    43  O   -0.264955
    44  C    0.151335
    45  H    0.133460
    46  N   -0.115246
    47  O   -0.342843
    48  C    0.337977
    49  H    0.048041
    50  C    0.162069
    51  C    0.039808
    52  N   -0.280588
    53  H    0.034572
    54  H    0.041725
    55  H    0.025900
    56  H    0.129209
    57  H    0.115469
    58  N   -0.058574
    59  C    0.076757
    60  C    0.246159
    61  N   -0.270228
    62  H    0.040376
    63  C    0.163790
    64  N   -0.303570
    65  H    0.035762
    66  C    0.138280
    67  N   -0.269876
    68  C    0.035170
    69  C    0.178221
    70  N   -0.313100
 Sum of Mulliken charges =  -0.00000

 Dipole moment (field-independent basis, Debye):
    X=              8.7666    Y=              5.9448    Z=              1.4329  Tot=             10.6886
 Quadrupole moment (field-independent basis, Debye-Ang):
   XX=           -156.6907   YY=           -215.5509   ZZ=           -252.1154
   XY=             -2.3725   XZ=              0.3068   YZ=             -4.5508

 Normal termination of Gaussian 16 at Wed Jan 24 11:02:36 2018.
