 Gaussian 16, Revision A.03,
 Gaussian 16:  EM64L-G16RevA.03 25-Dec-2016

 ---------------------------------------
 #p wb97xd/cc-pvdz sp scf=(maxcycles=20)
 ---------------------------------------

 ------------------
 Base pair stacking
 ------------------
 Symbolic Z-matrix:
 Charge =  0 Multiplicity = 1

                         Standard orientation:
 ---------------------------------------------------------------------
 Center     Atomic      Atomic             Coordinates (Angstroms)
 Number     Number       Type             X           Y           Z
 ---------------------------------------------------------------------
      1          7           0       -7.204893   -1.513342    0.086231
      2          6           0       -8.590358   -1.022402   -0.046034
      3          6           0       -5.036480   -1.632791    0.434075
      4          7           0       -5.444757   -2.912217    0.086056
      5          6           0       -6.734815   -2.789040   -0.109579
      6          1           0       -7.398316   -3.603848   -0.400768
      7          7           0       -3.716284    0.217675    1.063214
      8          6           0       -4.842501    0.937240    1.025236
      9          1           0       -4.729242    1.991637    1.273574
     10          7           0       -6.081806    0.551688    0.727957
     11          6           0       -6.110367   -0.759716    0.438443
     12          6           0       -3.778235   -1.098907    0.766824
     13          7           0       -2.655096   -1.818860    0.804179
     14          1           0       -2.654035   -2.796745    0.592151
     15          1           0       -1.776916   -1.405539    1.045239
     16          1           0       -9.182399   -1.515292    0.591711
     17          1           0       -8.619604   -0.044963    0.161037
     18          1           0       -8.911771   -1.173108   -0.980898
     19          7           0       -1.846673    2.810592   -1.822485
     20          6           0       -0.554519    2.417170   -1.570289
     21          6           0       -2.337988    4.202674   -1.784772
     22          7           0        2.722823    3.209766   -0.738076
     23          1           0        3.585042    2.725036   -0.593674
     24          1           0        2.737255    4.203932   -0.627867
     25          7           0        0.475123    3.229685   -1.248233
     26          6           0        1.597290    2.556838   -1.064823
     27          7           0        1.704998    1.192656   -1.186973
     28          1           0        2.603383    0.762857   -1.028433
     29          6           0        0.658859    0.336945   -1.517437
     30          8           0        0.862403   -0.880504   -1.601969
     31          6           0       -0.553211    1.045273   -1.717525
     32          7           0       -1.819078    0.586636   -2.055365
     33          6           0       -2.551315    1.666188   -2.106164
     34          1           0       -3.614862    1.684392   -2.346606
     35          1           0       -3.060511    4.284425   -1.099139
     36          1           0       -1.584000    4.813677   -1.547208
     37          1           0       -2.699827    4.454614   -2.681662
     38          1           0        7.181153   -0.824604    0.513226
     39          1           0        7.502841   -0.914115   -1.216850
     40          1           0        6.393012    0.304684   -0.589002
     41          1           0        4.940635   -4.937302   -0.587855
     42          6           0        4.780927   -3.862386   -0.673162
     43          8           0        2.454721   -4.055563   -1.095684
     44          6           0        3.464985   -3.369311   -0.943349
     45          1           0        2.459017   -1.608914   -1.221467
     46          7           0        3.373168   -1.994891   -1.031527
     47          8           0        4.212367    0.114791   -0.984636
     48          6           0        4.392081   -1.086562   -0.889063
     49          1           0        6.814240   -3.325030   -0.322897
     50          6           0        5.794953   -3.001215   -0.529164
     51          6           0        6.750695   -0.707277   -0.470140
     52          7           0        5.630962   -1.639127   -0.630131
     53          1           0        2.890259    4.013274    3.214778
     54          1           0        1.799110    4.052429    2.002363
     55          1           0        3.395776    4.060820    1.663777
     56          1           0        0.800333   -2.887689    1.461365
     57          1           0        2.377792   -2.505851    1.986647
     58          7           0        1.472826   -2.187694    1.702012
     59          6           0        1.176973   -0.887490    1.646185
     60          6           0        1.632664    1.437466    1.866837
     61          7           0        0.409139    1.835669    1.481018
     62          1           0       -1.370364    1.018089    0.876424
     63          6           0       -0.356824    0.783687    1.198996
     64          7           0       -0.062357   -0.519315    1.254289
     65          1           0        4.690822    1.738252    2.871495
     66          6           0        3.717488    1.372354    2.543334
     67          7           0        3.405748    0.107179    2.402511
     68          6           0        2.086518    0.134371    1.974002
     69          6           0        2.694361    3.707625    2.283009
     70          7           0        2.691608    2.232570    2.236212
 ---------------------------------------------------------------------

 SCF Done:  E(RwB97XD) =  -2048.73964184     A.U. after   15 cycles

 The electronic state is 1-A.
 Alpha  occ. eigenvalues --  -19.26043 -19.22354 -19.20946 -14.52658 -14.51129
 Alpha  occ. eigenvalues --  -14.49046 -14.49005 -14.48150 -14.47599 -14.47276
 Alpha  occ. eigenvalues --  -14.46411 -14.44138 -14.42511 -14.42461 -14.42374
 Alpha  occ. eigenvalues --  -14.42327 -14.41740 -14.41150 -14.40989 -14.40380
 Alpha  occ. eigenvalues --  -10.45709 -10.41666 -10.40448 -10.38582 -10.38244
 Alpha  occ. eigenvalues --  -10.38047 -10.36682 -10.35642 -10.35615 -10.35495
 Alpha  occ. eigenvalues --  -10.34576 -10.34390 -10.34101 -10.33654 -10.33499
 Alpha  occ. eigenvalues --  -10.33336 -10.32957 -10.31334 -10.31153 -10.31099
 Alpha  occ. eigenvalues --  -10.31021 -10.28837 -10.28445  -1.19625  -1.13925
 Alpha  occ. eigenvalues --   -1.13485  -1.13349  -1.11642  -1.10860  -1.09551
 Alpha  occ. eigenvalues --   -1.09086  -1.07558  -1.05221  -1.03147  -1.02771
 Alpha  occ. eigenvalues --   -1.00648  -1.00539  -0.99528  -0.98844  -0.97222
 Alpha  occ. eigenvalues --   -0.96819  -0.95140  -0.92858  -0.91293  -0.86249
 Alpha  occ. eigenvalues --   -0.84685  -0.84406  -0.84202  -0.83895  -0.82739
 Alpha  occ. eigenvalues --   -0.82560  -0.79124  -0.75531  -0.74955  -0.74194
 Alpha  occ. eigenvalues --   -0.73622  -0.73228  -0.73146  -0.71311  -0.68925
 Alpha  occ. eigenvalues --   -0.67873  -0.66805  -0.66537  -0.65285  -0.64722
 Alpha  occ. eigenvalues --   -0.64041  -0.63037  -0.62985  -0.62678  -0.62339
 Alpha  occ. eigenvalues --   -0.60400  -0.59779  -0.59767  -0.59143  -0.59099
 Alpha  occ. eigenvalues --   -0.58987  -0.58197  -0.56863  -0.56695  -0.56622
 Alpha  occ. eigenvalues --   -0.56216  -0.55588  -0.54773  -0.54627  -0.53985
 Alpha  occ. eigenvalues --   -0.53930  -0.53573  -0.53226  -0.52683  -0.52480
 Alpha  occ. eigenvalues --   -0.52091  -0.51910  -0.51441  -0.50984  -0.50436
 Alpha  occ. eigenvalues --   -0.50406  -0.49677  -0.49326  -0.49104  -0.48838
 Alpha  occ. eigenvalues --   -0.48560  -0.48535  -0.48106  -0.47714  -0.47448
 Alpha  occ. eigenvalues --   -0.47204  -0.45393  -0.45325  -0.44291  -0.43089
 Alpha  occ. eigenvalues --   -0.41425  -0.39659  -0.39347  -0.37732  -0.37541
 Alpha  occ. eigenvalues --   -0.37428  -0.36501  -0.36013  -0.35806  -0.35138
 Alpha  occ. eigenvalues --   -0.33799  -0.33747  -0.33526  -0.33040  -0.33009
 Alpha  occ. eigenvalues --   -0.32464  -0.32345  -0.32217  -0.32111  -0.31220
 Alpha  occ. eigenvalues --   -0.30574  -0.28382  -0.26032  -0.25745
 Alpha virt. eigenvalues --    0.02834   0.05457   0.07692   0.08123   0.08287
 Alpha virt. eigenvalues --    0.09172   0.09474   0.10736   0.11363   0.12415
 Alpha virt. eigenvalues --    0.12870   0.13761   0.14382   0.14738   0.15101

 Mulliken charges:
               1
     1  N   -0.310878
     2  C    0.180957
     3  C    0.029202
     4  N   -0.258834
     5  C    0.133679
     6  H    0.027377
     7  N   -0.289732
     8  C    0.129471
     9  H    0.009888
    10  N   -0.288663
    11  C    0.241356
    12  C    0.122134
    13  N   -0.054095
    14  H    0.108207
    15  H    0.089290
    16  H    0.025993
    17  H    0.035254
    18  H    0.026170
    19  N   -0.308665
    20  C    0.248977
    21  C    0.182452
    22  N   -0.112802
    23  H    0.116711
    24  H    0.118258
    25  N   -0.286567
    26  C    0.211420
    27  N   -0.118546
    28  H    0.119506
    29  C    0.163367
    30  O   -0.320912
    31  C   -0.016781
    32  N   -0.217661
    33  C    0.130584
    34  H    0.031574
    35  H    0.030437
    36  H    0.027724
    37  H    0.025034
    38  H    0.061781
    39  H    0.060194
    40  H    0.073379
    41  H    0.032343
    42  C   -0.111831
    43  O   -0.269563
    44  C    0.167834
    45  H    0.135316
    46  N   -0.136937
    47  O   -0.351630
    48  C    0.366308
    49  H    0.049159
    50  C    0.175016
    51  C    0.042948
    52  N   -0.297614
    53  H    0.031468
    54  H    0.045115
    55  H   -0.000321
    56  H    0.124122
    57  H    0.114155
    58  N   -0.057076
    59  C    0.102632
    60  C    0.228731
    61  N   -0.258724
    62  H    0.042829
    63  C    0.157322
    64  N   -0.297170
    65  H    0.026041
    66  C    0.124121
    67  N   -0.265534
    68  C    0.026338
    69  C    0.180674
    70  N   -0.302307
 Sum of Mulliken charges =  -0.00000

 Dipole moment (field-independent basis, Debye):
    X=              8.1978    Y=              5.3933    Z=              2.0236  Tot=             10.0193
 Quadrupole moment (field-independent basis, Debye-Ang):
   XX=           -145.5366   YY=           -218.1460   ZZ=           -250.4771
   XY=              3.5316   XZ=             14.3199   YZ=             -8.3592

 Normal termination of Gaussian 16 at Thu Jan 25 04:56:50 2018.
