 Gaussian 16, Revision A.03,
 Gaussian 16:  EM64L-G16RevA.03 25-Dec-2016

 ---------------------------------------
 #p wb97xd/cc-pvdz sp scf=(maxcycles=20)
 ---------------------------------------

 ------------------
 Base pair stacking
 ------------------
 Symbolic Z-matrix:
 Charge =  0 Multiplicity = 1

                         Standard orientation:
 ---------------------------------------------------------------------
 Center     Atomic      Atomic             Coordinates (Angstroms)
 Number     Number       Type             X           Y           Z
 ---------------------------------------------------------------------
      1          7           0       -6.959590   -1.542097    0.232231
      2          6           0       -8.347630   -1.051847    0.127332
      3          6           0       -4.785786   -1.662075    0.544486
      4          7           0       -5.197767   -2.938154    0.188645
      5          6           0       -6.490907   -2.814799    0.014766
      6          1           0       -7.157816   -3.627327   -0.275030
      7          7           0       -3.458368    0.183291    1.173407
      8          6           0       -4.586027    0.901495    1.161248
      9          1           0       -4.470295    1.953227    1.419559
     10          7           0       -5.829340    0.517376    0.879238
     11          6           0       -5.860672   -0.790764    0.575557
     12          6           0       -3.523189   -1.129992    0.863311
     13          7           0       -2.398608   -1.848581    0.874892
     14          1           0       -2.399565   -2.824035    0.651938
     15          1           0       -1.517298   -1.436624    1.106688
     16          1           0       -8.928869   -1.552737    0.768772
     17          1           0       -8.374952   -0.076821    0.345766
     18          1           0       -8.683561   -1.192597   -0.803978
     19          7           0       -2.126360    2.845123   -1.812232
     20          6           0       -0.829851    2.450902   -1.584850
     21          6           0       -2.618923    4.235936   -1.751186
     22          7           0        2.459131    3.239210   -0.795591
     23          1           0        3.324184    2.754229   -0.670247
     24          1           0        2.473942    4.232103   -0.674511
     25          7           0        0.203634    3.261357   -1.269992
     26          6           0        1.329474    2.588236   -1.111841
     27          7           0        1.437107    1.225672   -1.250948
     28          1           0        2.338470    0.795516   -1.111413
     29          6           0        0.387054    0.372092   -1.574437
     30          8           0        0.590903   -0.844020   -1.675791
     31          6           0       -0.828991    1.080740   -1.747438
     32          7           0       -2.099405    0.623952   -2.070390
     33          6           0       -2.833829    1.702882   -2.097550
     34          1           0       -3.901060    1.722120   -2.320985
     35          1           0       -3.330645    4.308907   -1.053384
     36          1           0       -1.862114    4.845410   -1.518724
     37          1           0       -2.995216    4.497322   -2.639383
     38          1           0        6.942167   -0.802000    0.340011
     39          1           0        7.236622   -0.871683   -1.395816
     40          1           0        6.135185    0.338313   -0.736942
     41          1           0        4.690173   -4.905594   -0.771571
     42          6           0        4.527670   -3.830041   -0.842309
     43          8           0        2.195352   -4.022076   -1.230250
     44          6           0        3.206954   -3.336009   -1.086179
     45          1           0        2.194318   -1.574170   -1.328687
     46          7           0        3.111879   -1.960834   -1.157506
     47          8           0        3.948828    0.149485   -1.100248
     48          6           0        4.131671   -1.052582   -1.020975
     49          1           0        6.565521   -3.293493   -0.518153
     50          6           0        5.542665   -2.968967   -0.704695
     51          6           0        6.496082   -0.674360   -0.635071
     52          7           0        5.375239   -1.606091   -0.787809
     53          1           0        3.176123    3.964811    3.262901
     54          1           0        2.065913    4.015823    2.068353
     55          1           0        3.657026    4.030451    1.704751
     56          1           0        1.068212   -2.919352    1.465510
     57          1           0        2.653243   -2.540981    1.970098
     58          7           0        1.743461   -2.221051    1.703345
     59          6           0        1.444996   -0.920762    1.666750
     60          6           0        1.900926    1.402273    1.906203
     61          7           0        0.670929    1.802884    1.544205
     62          1           0       -1.116784    0.989362    0.958626
     63          6           0       -0.097951    0.752938    1.262535
     64          7           0        0.199133   -0.550145    1.298588
     65          1           0        4.974145    1.696537    2.865824
     66          6           0        3.996263    1.332837    2.548975
     67          7           0        3.684069    0.068835    2.398931
     68          6           0        2.358196    0.098764    1.991604
     69          6           0        2.965953    3.669287    2.330971
     70          7           0        2.964480    2.194835    2.267714
 ---------------------------------------------------------------------

 SCF Done:  E(RwB97XD) =  -2048.74110154     A.U. after   15 cycles

 The electronic state is 1-A.
 Alpha  occ. eigenvalues --  -19.26017 -19.22357 -19.20776 -14.52639 -14.51441
 Alpha  occ. eigenvalues --  -14.48913 -14.48911 -14.48106 -14.47380 -14.47045
 Alpha  occ. eigenvalues --  -14.46747 -14.44432 -14.42848 -14.42775 -14.42237
 Alpha  occ. eigenvalues --  -14.42216 -14.41591 -14.41023 -14.40908 -14.40237
 Alpha  occ. eigenvalues --  -10.45680 -10.41528 -10.40446 -10.38565 -10.38420
 Alpha  occ. eigenvalues --  -10.38073 -10.37013 -10.35917 -10.35499 -10.35412
 Alpha  occ. eigenvalues --  -10.34524 -10.34294 -10.34247 -10.33510 -10.33385
 Alpha  occ. eigenvalues --  -10.33259 -10.33205 -10.31474 -10.31352 -10.31063
 Alpha  occ. eigenvalues --  -10.30974 -10.28681 -10.28334  -1.19603  -1.14130
 Alpha  occ. eigenvalues --   -1.13426  -1.13347  -1.11501  -1.10746  -1.09529
 Alpha  occ. eigenvalues --   -1.08894  -1.07884  -1.05077  -1.03463  -1.02744
 Alpha  occ. eigenvalues --   -1.00516  -1.00339  -0.99828  -0.98712  -0.97092
 Alpha  occ. eigenvalues --   -0.96715  -0.95453  -0.92720  -0.91298  -0.86531
 Alpha  occ. eigenvalues --   -0.84983  -0.84306  -0.84073  -0.83841  -0.82655
 Alpha  occ. eigenvalues --   -0.82438  -0.79114  -0.75838  -0.74837  -0.74025
 Alpha  occ. eigenvalues --   -0.73599  -0.73513  -0.73014  -0.71175  -0.69237
 Alpha  occ. eigenvalues --   -0.67713  -0.66778  -0.66409  -0.65587  -0.64681
 Alpha  occ. eigenvalues --   -0.63978  -0.63120  -0.62894  -0.62749  -0.62158
 Alpha  occ. eigenvalues --   -0.60305  -0.59795  -0.59747  -0.59391  -0.59124
 Alpha  occ. eigenvalues --   -0.58836  -0.58456  -0.56839  -0.56606  -0.56509
 Alpha  occ. eigenvalues --   -0.56163  -0.55479  -0.54885  -0.54604  -0.54251
 Alpha  occ. eigenvalues --   -0.53859  -0.53563  -0.53143  -0.52730  -0.52636
 Alpha  occ. eigenvalues --   -0.52312  -0.51843  -0.51726  -0.50854  -0.50351
 Alpha  occ. eigenvalues --   -0.50293  -0.49648  -0.49267  -0.49066  -0.48825
 Alpha  occ. eigenvalues --   -0.48623  -0.48450  -0.48055  -0.47769  -0.47593
 Alpha  occ. eigenvalues --   -0.47077  -0.45514  -0.45190  -0.44305  -0.43161
 Alpha  occ. eigenvalues --   -0.41283  -0.39637  -0.39507  -0.37674  -0.37423
 Alpha  occ. eigenvalues --   -0.37296  -0.36743  -0.36337  -0.35766  -0.34820
 Alpha  occ. eigenvalues --   -0.33703  -0.33598  -0.33510  -0.33177  -0.32879
 Alpha  occ. eigenvalues --   -0.32754  -0.32527  -0.32227  -0.31992  -0.31051
 Alpha  occ. eigenvalues --   -0.30455  -0.28739  -0.25884  -0.25641
 Alpha virt. eigenvalues --    0.02792   0.05077   0.07784   0.07835   0.08347
 Alpha virt. eigenvalues --    0.09327   0.09485   0.10870   0.11423   0.12192
 Alpha virt. eigenvalues --    0.12719   0.13865   0.14583   0.14763   0.14879

 Mulliken charges:
               1
     1  N   -0.311060
     2  C    0.180962
     3  C    0.031796
     4  N   -0.258830
     5  C    0.133513
     6  H    0.026907
     7  N   -0.290284
     8  C    0.130545
     9  H    0.009215
    10  N   -0.289763
    11  C    0.241454
    12  C    0.125232
    13  N   -0.054765
    14  H    0.108916
    15  H    0.089573
    16  H    0.025701
    17  H    0.034698
    18  H    0.026016
    19  N   -0.310897
    20  C    0.241569
    21  C    0.181704
    22  N   -0.116752
    23  H    0.116452
    24  H    0.116578
    25  N   -0.292272
    26  C    0.225067
    27  N   -0.120863
    28  H    0.115622
    29  C    0.153577
    30  O   -0.319078
    31  C   -0.001617
    32  N   -0.220509
    33  C    0.130834
    34  H    0.031095
    35  H    0.029934
    36  H    0.027991
    37  H    0.024923
    38  H    0.062540
    39  H    0.059386
    40  H    0.073252
    41  H    0.031939
    42  C   -0.112998
    43  O   -0.269491
    44  C    0.164535
    45  H    0.136451
    46  N   -0.132587
    47  O   -0.350236
    48  C    0.362054
    49  H    0.049282
    50  C    0.174560
    51  C    0.043444
    52  N   -0.295165
    53  H    0.033444
    54  H    0.044982
    55  H    0.008501
    56  H    0.126544
    57  H    0.113462
    58  N   -0.060222
    59  C    0.100629
    60  C    0.230144
    61  N   -0.258448
    62  H    0.053574
    63  C    0.149144
    64  N   -0.296705
    65  H    0.028571
    66  C    0.128929
    67  N   -0.268225
    68  C    0.027731
    69  C    0.175348
    70  N   -0.307548
 Sum of Mulliken charges =  -0.00000

 Dipole moment (field-independent basis, Debye):
    X=              8.3076    Y=              5.4517    Z=              2.0913  Tot=             10.1544
 Quadrupole moment (field-independent basis, Debye-Ang):
   XX=           -147.9173   YY=           -217.7064   ZZ=           -251.0693
   XY=              2.0454   XZ=             12.2544   YZ=             -8.0065

 Normal termination of Gaussian 16 at Thu Jan 25 04:11:55 2018.
