 Gaussian 16, Revision A.03,
 Gaussian 16:  EM64L-G16RevA.03 25-Dec-2016

 ---------------------------------------
 #p wb97xd/cc-pvdz sp scf=(maxcycles=20)
 ---------------------------------------

 ------------------
 Base pair stacking
 ------------------
 Symbolic Z-matrix:
 Charge =  0 Multiplicity = 1

                         Standard orientation:
 ---------------------------------------------------------------------
 Center     Atomic      Atomic             Coordinates (Angstroms)
 Number     Number       Type             X           Y           Z
 ---------------------------------------------------------------------
      1          7           0       -5.847743   -1.746993    1.022886
      2          6           0       -7.246882   -1.277629    1.011797
      3          6           0       -3.652975   -1.825406    1.141805
      4          7           0       -4.076131   -3.127145    0.915664
      5          6           0       -5.381470   -3.027806    0.853061
      6          1           0       -6.059515   -3.864708    0.683440
      7          7           0       -2.302093    0.071604    1.515206
      8          6           0       -3.436993    0.777226    1.556340
      9          1           0       -3.314272    1.845654    1.728551
     10          7           0       -4.694817    0.363129    1.417350
     11          6           0       -4.733713   -0.963537    1.210296
     12          6           0       -2.374843   -1.260952    1.305223
     13          7           0       -1.243075   -1.967022    1.263816
     14          1           0       -1.249452   -2.955847    1.110842
     15          1           0       -0.350699   -1.531910    1.384237
     16          1           0       -7.759643   -1.736632    1.737441
     17          1           0       -7.269058   -0.289805    1.162906
     18          1           0       -7.663979   -1.487283    0.127449
     19          7           0       -3.427642    2.827565   -1.477465
     20          6           0       -2.105242    2.464490   -1.390968
     21          6           0       -3.955316    4.189006   -1.256733
     22          7           0        1.212998    3.306521   -0.806132
     23          1           0        2.099844    2.845456   -0.793773
     24          1           0        1.207787    4.285682   -0.601332
     25          7           0       -1.074022    3.283872   -1.092206
     26          6           0        0.081036    2.642469   -1.084687
     27          7           0        0.217903    1.301280   -1.349247
     28          1           0        1.140439    0.894974   -1.321009
     29          6           0       -0.829241    0.439043   -1.658962
     30          8           0       -0.597818   -0.755869   -1.881194
     31          6           0       -2.076465    1.113693   -1.670830
     32          7           0       -3.355070    0.638299   -1.927855
     33          6           0       -4.121593    1.687499   -1.802017
     34          1           0       -5.203919    1.685423   -1.935591
     35          1           0       -4.607749    4.176754   -0.499776
     36          1           0       -3.200485    4.804797   -1.034683
     37          1           0       -4.412685    4.509456   -2.085546
     38          1           0        5.896207   -0.644967   -0.391473
     39          1           0        6.045691   -0.558272   -2.144981
     40          1           0        4.967311    0.550383   -1.296829
     41          1           0        3.684339   -4.722650   -1.666907
     42          6           0        3.483893   -3.651772   -1.631050
     43          8           0        1.134119   -3.897809   -1.843538
     44          6           0        2.132967   -3.188831   -1.723334
     45          1           0        1.050520   -1.451996   -1.729750
     46          7           0        1.990534   -1.817028   -1.667653
     47          8           0        2.764900    0.310940   -1.496430
     48          6           0        2.990164   -0.885859   -1.536393
     49          1           0        5.524555   -3.068353   -1.428233
     50          6           0        4.480265   -2.767857   -1.502400
     51          6           0        5.366075   -0.453054   -1.312447
     52          7           0        4.265157   -1.410025   -1.453615
     53          1           0        4.436630    4.050231    2.716203
     54          1           0        3.221676    4.006329    1.628057
     55          1           0        4.772701    4.008954    1.119722
     56          1           0        2.279025   -2.962637    1.607157
     57          1           0        3.897445   -2.535426    1.936248
     58          7           0        2.962391   -2.243282    1.732416
     59          6           0        2.642056   -0.951566    1.632304
     60          6           0        3.082447    1.386524    1.665392
     61          7           0        1.818659    1.749562    1.390707
     62          1           0       -0.002319    0.880785    1.030279
     63          6           0        1.043421    0.675533    1.255160
     64          7           0        1.362364   -0.619026    1.355053
     65          1           0        6.225403    1.775268    2.315692
     66          6           0        5.228399    1.381370    2.116283
     67          7           0        4.923135    0.107215    2.084542
     68          6           0        3.565404    0.096464    1.799621
     69          6           0        4.147058    3.687263    1.830544
     70          7           0        4.162291    2.212100    1.871235
 ---------------------------------------------------------------------

 SCF Done:  E(RwB97XD) =  -2048.74180760     A.U. after   15 cycles

 The electronic state is 1-A.
 Alpha  occ. eigenvalues --  -19.25731 -19.21916 -19.20466 -14.52501 -14.52319
 Alpha  occ. eigenvalues --  -14.48571 -14.48471 -14.48304 -14.47709 -14.46677
 Alpha  occ. eigenvalues --  -14.46074 -14.45514 -14.44187 -14.43998 -14.42217
 Alpha  occ. eigenvalues --  -14.41790 -14.41124 -14.40712 -14.40593 -14.40077
 Alpha  occ. eigenvalues --  -10.45345 -10.40859 -10.40029 -10.39879 -10.38020
 Alpha  occ. eigenvalues --  -10.38007 -10.37767 -10.37109 -10.35560 -10.35275
 Alpha  occ. eigenvalues --  -10.34779 -10.34197 -10.34084 -10.33810 -10.33087
 Alpha  occ. eigenvalues --  -10.33079 -10.32892 -10.32562 -10.31098 -10.30763
 Alpha  occ. eigenvalues --  -10.30746 -10.28270 -10.27849  -1.19319  -1.15189
 Alpha  occ. eigenvalues --   -1.13019  -1.12930  -1.11049  -1.10390  -1.09239
 Alpha  occ. eigenvalues --   -1.09194  -1.08297  -1.04847  -1.04775  -1.02344
 Alpha  occ. eigenvalues --   -1.01033  -1.00282  -0.99396  -0.98349  -0.96858
 Alpha  occ. eigenvalues --   -0.96619  -0.96379  -0.92502  -0.90976  -0.87623
 Alpha  occ. eigenvalues --   -0.86035  -0.83869  -0.83683  -0.83367  -0.82308
 Alpha  occ. eigenvalues --   -0.82090  -0.78785  -0.77012  -0.74851  -0.74370
 Alpha  occ. eigenvalues --   -0.73402  -0.73204  -0.72719  -0.70857  -0.70432
 Alpha  occ. eigenvalues --   -0.67110  -0.66842  -0.66393  -0.66125  -0.64326
 Alpha  occ. eigenvalues --   -0.64293  -0.63593  -0.62581  -0.62544  -0.61444
 Alpha  occ. eigenvalues --   -0.60629  -0.60316  -0.60207  -0.59457  -0.59396
 Alpha  occ. eigenvalues --   -0.59272  -0.58055  -0.56664  -0.56336  -0.56085
 Alpha  occ. eigenvalues --   -0.55857  -0.55515  -0.55263  -0.54624  -0.54228
 Alpha  occ. eigenvalues --   -0.53984  -0.53481  -0.53299  -0.53078  -0.52768
 Alpha  occ. eigenvalues --   -0.52630  -0.52177  -0.51564  -0.50519  -0.50021
 Alpha  occ. eigenvalues --   -0.49999  -0.49694  -0.49365  -0.49028  -0.48696
 Alpha  occ. eigenvalues --   -0.48665  -0.48171  -0.48042  -0.47489  -0.47207
 Alpha  occ. eigenvalues --   -0.46700  -0.45626  -0.44915  -0.44583  -0.43802
 Alpha  occ. eigenvalues --   -0.40924  -0.40839  -0.39331  -0.37790  -0.37699
 Alpha  occ. eigenvalues --   -0.37080  -0.36972  -0.36868  -0.35827  -0.34809
 Alpha  occ. eigenvalues --   -0.34369  -0.33456  -0.33322  -0.33068  -0.32724
 Alpha  occ. eigenvalues --   -0.32495  -0.32231  -0.31931  -0.31678  -0.30681
 Alpha  occ. eigenvalues --   -0.30266  -0.29889  -0.25761  -0.24839
 Alpha virt. eigenvalues --    0.03061   0.04057   0.07171   0.08133   0.08462
 Alpha virt. eigenvalues --    0.09469   0.09934   0.10494   0.11288   0.11771
 Alpha virt. eigenvalues --    0.12340   0.14067   0.14542   0.14783   0.15208

 Mulliken charges:
               1
     1  N   -0.313485
     2  C    0.181490
     3  C    0.047807
     4  N   -0.260431
     5  C    0.136156
     6  H    0.025925
     7  N   -0.292749
     8  C    0.139516
     9  H    0.008839
    10  N   -0.289758
    11  C    0.255134
    12  C    0.115135
    13  N   -0.057838
    14  H    0.109785
    15  H    0.083512
    16  H    0.024180
    17  H    0.031636
    18  H    0.027000
    19  N   -0.307810
    20  C    0.242090
    21  C    0.180496
    22  N   -0.087250
    23  H    0.111035
    24  H    0.112186
    25  N   -0.305025
    26  C    0.216627
    27  N   -0.144844
    28  H    0.125909
    29  C    0.175497
    30  O   -0.322238
    31  C   -0.000446
    32  N   -0.225001
    33  C    0.131939
    34  H    0.021628
    35  H    0.029593
    36  H    0.027709
    37  H    0.023796
    38  H    0.061615
    39  H    0.058288
    40  H    0.070867
    41  H    0.029832
    42  C   -0.112688
    43  O   -0.263910
    44  C    0.167626
    45  H    0.132681
    46  N   -0.122527
    47  O   -0.342038
    48  C    0.339085
    49  H    0.046745
    50  C    0.164459
    51  C    0.039659
    52  N   -0.284541
    53  H    0.036980
    54  H    0.034888
    55  H    0.028549
    56  H    0.124081
    57  H    0.116161
    58  N   -0.060769
    59  C    0.079366
    60  C    0.249206
    61  N   -0.278112
    62  H    0.043161
    63  C    0.159623
    64  N   -0.299266
    65  H    0.036588
    66  C    0.137034
    67  N   -0.266612
    68  C    0.033628
    69  C    0.176821
    70  N   -0.314224
 Sum of Mulliken charges =  -0.00000

 Dipole moment (field-independent basis, Debye):
    X=              8.4658    Y=              5.7853    Z=              2.4138  Tot=             10.5341
 Quadrupole moment (field-independent basis, Debye-Ang):
   XX=           -156.2418   YY=           -216.6503   ZZ=           -254.6054
   XY=             -1.7691   XZ=             -0.6185   YZ=             -8.4376

 Normal termination of Gaussian 16 at Thu Jan 25 01:08:48 2018.
