 Gaussian 16, Revision A.03,
 Gaussian 16:  EM64L-G16RevA.03 25-Dec-2016

 ---------------------------------------
 #p wb97xd/cc-pvdz sp scf=(maxcycles=20)
 ---------------------------------------

 ------------------
 Base pair stacking
 ------------------
 Symbolic Z-matrix:
 Charge =  0 Multiplicity = 1

                         Standard orientation:
 ---------------------------------------------------------------------
 Center     Atomic      Atomic             Coordinates (Angstroms)
 Number     Number       Type             X           Y           Z
 ---------------------------------------------------------------------
      1          7           0       -6.612774   -1.572042    0.487034
      2          6           0       -7.984137   -1.093327    0.225890
      3          6           0       -4.448399   -1.658066    0.868378
      4          7           0       -4.892036   -2.972462    0.851520
      5          6           0       -6.178235   -2.868022    0.622453
      6          1           0       -6.864120   -3.711820    0.541701
      7          7           0       -3.077331    0.255124    1.019383
      8          6           0       -4.183200    0.971813    0.793568
      9          1           0       -4.040714    2.051320    0.768732
     10          7           0       -5.432776    0.557162    0.594778
     11          6           0       -5.497710   -0.783613    0.645169
     12          6           0       -3.175777   -1.091491    1.064198
     13          7           0       -2.072991   -1.808628    1.289486
     14          1           0       -2.099069   -2.808042    1.330939
     15          1           0       -1.183647   -1.371595    1.424444
     16          1           0       -8.589443   -1.393294    0.963307
     17          1           0       -7.986263   -0.094842    0.179551
     18          1           0       -8.309839   -1.466324   -0.642901
     19          7           0       -2.591345    2.679262   -1.636784
     20          6           0       -1.288635    2.310010   -1.403014
     21          6           0       -3.145500    4.032254   -1.429370
     22          7           0        1.930710    3.120796   -0.383100
     23          1           0        2.810490    2.657528   -0.280101
     24          1           0        1.897987    4.091197   -0.142358
     25          7           0       -0.303889    3.114672   -0.948201
     26          6           0        0.843119    2.470777   -0.824165
     27          7           0        1.014741    1.140651   -1.122186
     28          1           0        1.927863    0.731405   -0.996912
     29          6           0        0.015653    0.293627   -1.591479
     30          8           0        0.275559   -0.892203   -1.830213
     31          6           0       -1.222387    0.971129   -1.729851
     32          7           0       -2.458629    0.509134   -2.160151
     33          6           0       -3.237403    1.554382   -2.088347
     34          1           0       -4.295167    1.560053   -2.353648
     35          1           0       -3.885816    3.991906   -0.759208
     36          1           0       -2.425145    4.637124   -1.092497
     37          1           0       -3.498552    4.385942   -2.294857
     38          1           0        6.537530   -0.854774    0.447990
     39          1           0        6.900740   -0.699903   -1.269200
     40          1           0        5.723715    0.377234   -0.517021
     41          1           0        4.508968   -4.874282   -1.247619
     42          6           0        4.302970   -3.805167   -1.194756
     43          8           0        1.997618   -4.037231   -1.703317
     44          6           0        2.972414   -3.335825   -1.433867
     45          1           0        1.894603   -1.597561   -1.505072
     46          7           0        2.820810   -1.966916   -1.342476
     47          8           0        3.563030    0.150912   -0.994467
     48          6           0        3.794469   -1.043932   -1.053277
     49          1           0        6.301883   -3.234879   -0.720517
     50          6           0        5.273830   -2.929281   -0.910399
     51          6           0        6.123876   -0.625744   -0.522845
     52          7           0        5.050974   -1.573905   -0.835300
     53          1           0        3.632327    4.291914    2.188687
     54          1           0        2.542367    4.053213    0.998264
     55          1           0        4.138580    3.933023    0.679271
     56          1           0        1.351679   -2.769489    2.218280
     57          1           0        2.939238   -2.309994    2.640912
     58          7           0        2.043351   -2.049740    2.279148
     59          6           0        1.783610   -0.798222    1.895226
     60          6           0        2.303544    1.494084    1.525470
     61          7           0        1.091427    1.814791    1.043455
     62          1           0       -0.710188    0.919219    0.652607
     63          6           0        0.296559    0.746654    1.030696
     64          7           0        0.554846   -0.507673    1.414792
     65          1           0        5.369110    1.956362    2.442403
     66          6           0        4.385944    1.545786    2.210570
     67          7           0        4.039255    0.294848    2.391262
     68          6           0        2.721178    0.248474    1.960864
     69          6           0        3.427798    3.766456    1.362811
     70          7           0        3.384192    2.327925    1.689522
 ---------------------------------------------------------------------

 SCF Done:  E(RwB97XD) =  -2048.57992947     A.U. after   15 cycles

 The electronic state is 1-A.
 Alpha  occ. eigenvalues --  -19.25926 -19.21950 -19.20596 -14.52490 -14.52437
 Alpha  occ. eigenvalues --  -14.49098 -14.48677 -14.47919 -14.47858 -14.46033
 Alpha  occ. eigenvalues --  -14.45304 -14.44582 -14.43761 -14.42737 -14.42357
 Alpha  occ. eigenvalues --  -14.41878 -14.41795 -14.41311 -14.40610 -14.40526
 Alpha  occ. eigenvalues --  -10.45522 -10.41372 -10.40081 -10.39466 -10.38092
 Alpha  occ. eigenvalues --  -10.37887 -10.37796 -10.36783 -10.35846 -10.35151
 Alpha  occ. eigenvalues --  -10.35126 -10.34448 -10.34291 -10.33739 -10.33736
 Alpha  occ. eigenvalues --  -10.33518 -10.33009 -10.32216 -10.31205 -10.31116
 Alpha  occ. eigenvalues --  -10.30861 -10.28923 -10.27949  -1.19504  -1.15725
 Alpha  occ. eigenvalues --   -1.13614  -1.12989  -1.11698  -1.10566  -1.09661
 Alpha  occ. eigenvalues --   -1.09325  -1.08589  -1.05378  -1.04274  -1.02537
 Alpha  occ. eigenvalues --   -1.02117  -1.00879  -0.99561  -0.98584  -0.97342
 Alpha  occ. eigenvalues --   -0.96723  -0.96328  -0.93044  -0.91048  -0.87780
 Alpha  occ. eigenvalues --   -0.86628  -0.84293  -0.83965  -0.83601  -0.82651
 Alpha  occ. eigenvalues --   -0.82509  -0.78888  -0.77288  -0.75280  -0.74623
 Alpha  occ. eigenvalues --   -0.73769  -0.73373  -0.73299  -0.71471  -0.70619
 Alpha  occ. eigenvalues --   -0.67839  -0.67170  -0.66714  -0.66511  -0.64814
 Alpha  occ. eigenvalues --   -0.64434  -0.63769  -0.63254  -0.63010  -0.62873
 Alpha  occ. eigenvalues --   -0.61000  -0.60676  -0.60475  -0.59815  -0.59520
 Alpha  occ. eigenvalues --   -0.59390  -0.58554  -0.57509  -0.56912  -0.56672
 Alpha  occ. eigenvalues --   -0.56252  -0.55898  -0.55687  -0.54624  -0.54365
 Alpha  occ. eigenvalues --   -0.53847  -0.53254  -0.53177  -0.52878  -0.52817
 Alpha  occ. eigenvalues --   -0.52338  -0.52072  -0.51680  -0.51115  -0.50548
 Alpha  occ. eigenvalues --   -0.50060  -0.49790  -0.49400  -0.49260  -0.48813
 Alpha  occ. eigenvalues --   -0.48688  -0.48560  -0.48247  -0.48096  -0.47364
 Alpha  occ. eigenvalues --   -0.47283  -0.46458  -0.45380  -0.43954  -0.42926
 Alpha  occ. eigenvalues --   -0.41580  -0.39857  -0.39470  -0.37905  -0.37593
 Alpha  occ. eigenvalues --   -0.37467  -0.37191  -0.36626  -0.35909  -0.34820
 Alpha  occ. eigenvalues --   -0.34259  -0.33903  -0.33797  -0.33125  -0.32604
 Alpha  occ. eigenvalues --   -0.32351  -0.31950  -0.31757  -0.31165  -0.30841
 Alpha  occ. eigenvalues --   -0.29778  -0.27929  -0.26263  -0.25186
 Alpha virt. eigenvalues --    0.03064   0.03639   0.07258   0.07522   0.08604
 Alpha virt. eigenvalues --    0.08944   0.09088   0.10531   0.11734   0.12318
 Alpha virt. eigenvalues --    0.12778   0.13840   0.13918   0.14523   0.14977

 Mulliken charges:
               1
     1  N   -0.312601
     2  C    0.181052
     3  C    0.036866
     4  N   -0.260862
     5  C    0.135213
     6  H    0.027718
     7  N   -0.288810
     8  C    0.138191
     9  H    0.004807
    10  N   -0.289249
    11  C    0.248083
    12  C    0.124066
    13  N   -0.058920
    14  H    0.107193
    15  H    0.086962
    16  H    0.025673
    17  H    0.033856
    18  H    0.027605
    19  N   -0.305623
    20  C    0.223803
    21  C    0.180777
    22  N   -0.091373
    23  H    0.109528
    24  H    0.094129
    25  N   -0.268816
    26  C    0.204335
    27  N   -0.112865
    28  H    0.118991
    29  C    0.125172
    30  O   -0.315796
    31  C    0.028680
    32  N   -0.219513
    33  C    0.116811
    34  H    0.028472
    35  H    0.026149
    36  H    0.027742
    37  H    0.025119
    38  H    0.062487
    39  H    0.058144
    40  H    0.073206
    41  H    0.031711
    42  C   -0.112577
    43  O   -0.263414
    44  C    0.178078
    45  H    0.133823
    46  N   -0.136895
    47  O   -0.346446
    48  C    0.360230
    49  H    0.047563
    50  C    0.170093
    51  C    0.041927
    52  N   -0.294168
    53  H    0.030024
    54  H    0.027494
    55  H    0.021391
    56  H    0.121755
    57  H    0.116270
    58  N   -0.069292
    59  C    0.102012
    60  C    0.239538
    61  N   -0.288150
    62  H    0.070694
    63  C    0.175026
    64  N   -0.300626
    65  H    0.034100
    66  C    0.136715
    67  N   -0.262307
    68  C    0.031934
    69  C    0.178489
    70  N   -0.331392
 Sum of Mulliken charges =  -0.00000

 Dipole moment (field-independent basis, Debye):
    X=              7.5205    Y=              5.0610    Z=              3.8878  Tot=              9.8634
 Quadrupole moment (field-independent basis, Debye-Ang):
   XX=           -151.0298   YY=           -221.1740   ZZ=           -255.3033
   XY=              0.4904   XZ=              8.6581   YZ=            -12.3848

 Normal termination of Gaussian 16 at Wed Jan 24 22:02:20 2018.
