 Gaussian 16, Revision A.03,
 Gaussian 16:  EM64L-G16RevA.03 25-Dec-2016

 ---------------------------------------
 #p wb97xd/cc-pvdz sp scf=(maxcycles=20)
 ---------------------------------------

 ------------------
 Base pair stacking
 ------------------
 Symbolic Z-matrix:
 Charge =  0 Multiplicity = 1

                         Standard orientation:
 ---------------------------------------------------------------------
 Center     Atomic      Atomic             Coordinates (Angstroms)
 Number     Number       Type             X           Y           Z
 ---------------------------------------------------------------------
      1          7           0        5.223121   -1.854520   -1.421624
      2          6           0        6.628845   -1.408145   -1.473270
      3          6           0        3.024091   -1.892788   -1.410534
      4          7           0        3.435870   -3.210428   -1.272727
      5          6           0        4.744224   -3.134631   -1.284922
      6          1           0        5.415606   -3.989280   -1.196827
      7          7           0        1.688618    0.040988   -1.610448
      8          6           0        2.831875    0.729967   -1.686857
      9          1           0        2.718851    1.807289   -1.800257
     10          7           0        4.087883    0.290027   -1.644437
     11          6           0        4.114555   -1.045577   -1.503495
     12          6           0        1.749139   -1.301169   -1.468915
     13          7           0        0.608995   -1.990668   -1.392454
     14          1           0        0.606220   -2.985747   -1.287371
     15          1           0       -0.280776   -1.536342   -1.437574
     16          1           0        7.088592   -1.839272   -2.249764
     17          1           0        6.660216   -0.414609   -1.578277
     18          1           0        7.094261   -1.667026   -0.626887
     19          7           0        4.097235    2.747834    1.173907
     20          6           0        2.765289    2.410231    1.175075
     21          6           0        4.637335    4.090490    0.880234
     22          7           0       -0.564475    3.303773    0.755532
     23          1           0       -1.459266    2.861329    0.808758
     24          1           0       -0.552308    4.275904    0.519897
     25          7           0        1.734438    3.241669    0.910293
     26          6           0        0.568747    2.624811    0.989473
     27          7           0        0.421658    1.295488    1.303767
     28          1           0       -0.508621    0.908040    1.341468
     29          6           0        1.468211    0.421227    1.579927
     30          8           0        1.227104   -0.761206    1.852795
     31          6           0        2.726793    1.069496    1.498747
     32          7           0        4.008773    0.575328    1.696783
     33          6           0        4.786767    1.603825    1.493968
     34          1           0        5.874778    1.583011    1.565119
     35          1           0        5.244332    4.041416    0.087807
     36          1           0        3.882884    4.714993    0.682557
     37          1           0        5.148168    4.426345    1.670845
     38          1           0       -5.339140   -0.558965    0.735958
     39          1           0       -5.384816   -0.415732    2.491534
     40          1           0       -4.336359    0.643587    1.548157
     41          1           0       -3.135923   -4.641574    2.010593
     42          6           0       -2.917299   -3.576755    1.929403
     43          8           0       -0.564323   -3.865647    2.014193
     44          6           0       -1.554617   -3.139776    1.929209
     45          1           0       -0.440357   -1.426746    1.818433
     46          7           0       -1.389251   -1.773616    1.822042
     47          8           0       -2.131098    0.363990    1.628337
     48          6           0       -2.376681   -0.826025    1.719039
     49          1           0       -4.954667   -2.956924    1.825825
     50          6           0       -3.902235   -2.676376    1.830324
     51          6           0       -4.752799   -0.350284    1.618408
     52          7           0       -3.664192   -1.325488    1.726303
     53          1           0       -5.035167    4.177997   -2.208997
     54          1           0       -3.758189    4.062281   -1.200023
     55          1           0       -5.275619    4.064402   -0.598809
     56          1           0       -2.945179   -2.913311   -1.568078
     57          1           0       -4.572225   -2.445406   -1.777501
     58          7           0       -3.621385   -2.178152   -1.617210
     59          6           0       -3.271766   -0.897988   -1.475391
     60          6           0       -3.669978    1.445543   -1.370358
     61          7           0       -2.385483    1.775020   -1.156027
     62          1           0       -0.562576    0.861440   -0.948694
     63          6           0       -1.623537    0.683707   -1.119113
     64          7           0       -1.971812   -0.599323   -1.260923
     65          1           0       -6.838529    1.914441   -1.809214
     66          6           0       -5.838823    1.495815   -1.689729
     67          7           0       -5.555852    0.217005   -1.737267
     68          6           0       -4.183914    0.171225   -1.536225
     69          6           0       -4.699787    3.767926   -1.360847
     70          7           0       -4.744753    2.296902   -1.470679
 ---------------------------------------------------------------------

 SCF Done:  E(RwB97XD) =  -2048.74953306     A.U. after   15 cycles

 The electronic state is 1-A.
 Alpha  occ. eigenvalues --  -19.25367 -19.21616 -19.20320 -14.52829 -14.52089
 Alpha  occ. eigenvalues --  -14.48832 -14.48532 -14.48299 -14.47411 -14.46503
 Alpha  occ. eigenvalues --  -14.45876 -14.45800 -14.44736 -14.44701 -14.42520
 Alpha  occ. eigenvalues --  -14.41671 -14.40985 -14.40653 -14.40600 -14.40156
 Alpha  occ. eigenvalues --  -10.45045 -10.40817 -10.40446 -10.39745 -10.38362
 Alpha  occ. eigenvalues --  -10.37921 -10.37598 -10.37596 -10.36192 -10.35394
 Alpha  occ. eigenvalues --  -10.34582 -10.34284 -10.34043 -10.33685 -10.33092
 Alpha  occ. eigenvalues --  -10.33039 -10.33002 -10.32844 -10.30891 -10.30747
 Alpha  occ. eigenvalues --  -10.30528 -10.28224 -10.27776  -1.19053  -1.15561
 Alpha  occ. eigenvalues --   -1.12862  -1.12631  -1.10907  -1.10300  -1.09745
 Alpha  occ. eigenvalues --   -1.08974  -1.08158  -1.05309  -1.04894  -1.02062
 Alpha  occ. eigenvalues --   -1.01367  -1.00368  -0.99180  -0.98228  -0.97310
 Alpha  occ. eigenvalues --   -0.96602  -0.96319  -0.92585  -0.90783  -0.88017
 Alpha  occ. eigenvalues --   -0.86295  -0.83814  -0.83566  -0.83180  -0.82254
 Alpha  occ. eigenvalues --   -0.81978  -0.78571  -0.77444  -0.75310  -0.74299
 Alpha  occ. eigenvalues --   -0.73212  -0.72952  -0.72727  -0.70908  -0.70771
 Alpha  occ. eigenvalues --   -0.67311  -0.66926  -0.66172  -0.66126  -0.64716
 Alpha  occ. eigenvalues --   -0.64147  -0.63481  -0.62575  -0.62434  -0.61317
 Alpha  occ. eigenvalues --   -0.60924  -0.60592  -0.60456  -0.59691  -0.59321
 Alpha  occ. eigenvalues --   -0.59133  -0.57823  -0.56661  -0.56299  -0.55857
 Alpha  occ. eigenvalues --   -0.55736  -0.55686  -0.55419  -0.54556  -0.54174
 Alpha  occ. eigenvalues --   -0.53906  -0.53534  -0.53347  -0.53137  -0.52872
 Alpha  occ. eigenvalues --   -0.52629  -0.52017  -0.51465  -0.50461  -0.50194
 Alpha  occ. eigenvalues --   -0.49911  -0.49836  -0.49686  -0.49041  -0.48750
 Alpha  occ. eigenvalues --   -0.48522  -0.48067  -0.47947  -0.47341  -0.47033
 Alpha  occ. eigenvalues --   -0.46638  -0.45693  -0.45227  -0.44271  -0.43582
 Alpha  occ. eigenvalues --   -0.41234  -0.40901  -0.39072  -0.38057  -0.37970
 Alpha  occ. eigenvalues --   -0.37240  -0.36992  -0.36602  -0.35456  -0.35141
 Alpha  occ. eigenvalues --   -0.34854  -0.33504  -0.33316  -0.33136  -0.32778
 Alpha  occ. eigenvalues --   -0.32383  -0.32123  -0.31842  -0.31624  -0.30626
 Alpha  occ. eigenvalues --   -0.30383  -0.30241  -0.25648  -0.25036
 Alpha virt. eigenvalues --    0.02831   0.04138   0.06275   0.08243   0.09049
 Alpha virt. eigenvalues --    0.09422   0.10049   0.10173   0.11197   0.11722
 Alpha virt. eigenvalues --    0.12627   0.14169   0.14707   0.14905   0.15312

 Mulliken charges:
               1
     1  N   -0.313407
     2  C    0.182914
     3  C    0.050782
     4  N   -0.261600
     5  C    0.139632
     6  H    0.026190
     7  N   -0.295366
     8  C    0.134013
     9  H    0.012489
    10  N   -0.283057
    11  C    0.262529
    12  C    0.103253
    13  N   -0.061256
    14  H    0.109675
    15  H    0.080758
    16  H    0.022623
    17  H    0.030558
    18  H    0.028916
    19  N   -0.304593
    20  C    0.239604
    21  C    0.180592
    22  N   -0.098907
    23  H    0.110817
    24  H    0.112460
    25  N   -0.307038
    26  C    0.223551
    27  N   -0.142066
    28  H    0.116751
    29  C    0.191277
    30  O   -0.323966
    31  C   -0.018036
    32  N   -0.224099
    33  C    0.130552
    34  H    0.018994
    35  H    0.028899
    36  H    0.028035
    37  H    0.023484
    38  H    0.060237
    39  H    0.058902
    40  H    0.072935
    41  H    0.028609
    42  C   -0.116154
    43  O   -0.262685
    44  C    0.175822
    45  H    0.131993
    46  N   -0.126092
    47  O   -0.339978
    48  C    0.339283
    49  H    0.043917
    50  C    0.164950
    51  C    0.038657
    52  N   -0.281053
    53  H    0.035936
    54  H    0.036200
    55  H    0.031020
    56  H    0.119585
    57  H    0.116884
    58  N   -0.058526
    59  C    0.088797
    60  C    0.259112
    61  N   -0.281440
    62  H    0.045047
    63  C    0.169032
    64  N   -0.307140
    65  H    0.039663
    66  C    0.137423
    67  N   -0.261446
    68  C    0.016482
    69  C    0.180602
    70  N   -0.312531
 Sum of Mulliken charges =  -0.00000

 Dipole moment (field-independent basis, Debye):
    X=             -8.6331    Y=              5.9474    Z=             -2.2656  Tot=             10.7255
 Quadrupole moment (field-independent basis, Debye-Ang):
   XX=           -160.1544   YY=           -216.6020   ZZ=           -254.6546
   XY=              3.6761   XZ=             -8.6394   YZ=              9.1081

 Normal termination of Gaussian 16 at Wed Jan 24 12:12:06 2018.
