 Gaussian 16, Revision A.03,
 Gaussian 16:  EM64L-G16RevA.03 25-Dec-2016

 ---------------------------------------
 #p wb97xd/cc-pvdz sp scf=(maxcycles=20)
 ---------------------------------------

 ------------------
 Base pair stacking
 ------------------
 Symbolic Z-matrix:
 Charge =  0 Multiplicity = 1

                         Standard orientation:
 ---------------------------------------------------------------------
 Center     Atomic      Atomic             Coordinates (Angstroms)
 Number     Number       Type             X           Y           Z
 ---------------------------------------------------------------------
      1          7           0       -6.183044   -1.723425    0.759606
      2          6           0       -7.583181   -1.260916    0.820490
      3          6           0       -3.988914   -1.818656    0.878141
      4          7           0       -4.407512   -3.061961    0.426825
      5          6           0       -5.712636   -2.954832    0.373475
      6          1           0       -6.387587   -3.750449    0.056673
      7          7           0       -2.644990   -0.013509    1.584031
      8          6           0       -3.781797    0.672924    1.739123
      9          1           0       -3.662727    1.695458    2.094818
     10          7           0       -5.037694    0.287709    1.521844
     11          6           0       -5.072114   -0.982996    1.087632
     12          6           0       -2.713219   -1.289548    1.145685
     13          7           0       -1.579526   -1.976395    0.990239
     14          1           0       -1.582579   -2.923722    0.668087
     15          1           0       -0.689003   -1.567690    1.190371
     16          1           0       -8.099584   -1.839414    1.452042
     17          1           0       -7.608676   -0.314293    1.140449
     18          1           0       -7.994000   -1.314546   -0.089640
     19          7           0       -3.018742    2.980643   -1.632033
     20          6           0       -1.704312    2.593320   -1.530543
     21          6           0       -3.514097    4.364750   -1.492215
     22          7           0        1.635922    3.393243   -1.016015
     23          1           0        2.512211    2.913587   -0.980193
     24          1           0        1.654162    4.382934   -0.871496
     25          7           0       -0.652898    3.405572   -1.287976
     26          6           0        0.487427    2.739519   -1.247392
     27          7           0        0.592239    1.381905   -1.430110
     28          1           0        1.505564    0.957050   -1.381982
     29          6           0       -0.476125    0.526583   -1.680891
     30          8           0       -0.273190   -0.684647   -1.830814
     31          6           0       -1.707878    1.227648   -1.727374
     32          7           0       -2.998572    0.766879   -1.948010
     33          6           0       -3.740386    1.839092   -1.882519
     34          1           0       -4.823354    1.853654   -2.009945
     35          1           0       -4.161539    4.413682   -0.732457
     36          1           0       -2.744107    4.975495   -1.312291
     37          1           0       -3.969690    4.644393   -2.336643
     38          1           0        6.231543   -0.631814   -0.385310
     39          1           0        6.371160   -0.655792   -2.141607
     40          1           0        5.323766    0.526988   -1.357163
     41          1           0        3.919792   -4.728013   -1.397036
     42          6           0        3.743789   -3.652636   -1.425705
     43          8           0        1.387689   -3.857288   -1.610216
     44          6           0        2.403046   -3.165364   -1.538941
     45          1           0        1.360014   -1.407819   -1.645853
     46          7           0        2.291961   -1.789813   -1.566545
     47          8           0        3.115225    0.326338   -1.529992
     48          6           0        3.313179   -0.875512   -1.497847
     49          1           0        5.798401   -3.104836   -1.269848
     50          6           0        4.760667   -2.785579   -1.356704
     51          6           0        5.699694   -0.484393   -1.313474
     52          7           0        4.576558   -1.422730   -1.389942
     53          1           0        4.076328    3.704642    3.502765
     54          1           0        2.868618    3.848635    2.415196
     55          1           0        4.422911    3.941228    1.925634
     56          1           0        1.942586   -3.012249    1.179823
     57          1           0        3.557816   -2.646646    1.589070
     58          7           0        2.623422   -2.324700    1.432592
     59          6           0        2.300702   -1.035573    1.555771
     60          6           0        2.735342    1.261893    1.996767
     61          7           0        1.472513    1.665542    1.780545
     62          1           0       -0.344011    0.870251    1.262505
     63          6           0        0.700717    0.630360    1.455532
     64          7           0        1.022058   -0.661522    1.331632
     65          1           0        5.873049    1.535727    2.726102
     66          6           0        4.878304    1.181191    2.454605
     67          7           0        4.576269   -0.068526    2.200333
     68          6           0        3.220451   -0.031334    1.908578
     69          6           0        3.793403    3.500409    2.565616
     70          7           0        3.811861    2.040551    2.350016
 ---------------------------------------------------------------------

 SCF Done:  E(RwB97XD) =  -2048.74650957     A.U. after   15 cycles

 The electronic state is 1-A.
 Alpha  occ. eigenvalues --  -19.26050 -19.22478 -19.20706 -14.52652 -14.52031
 Alpha  occ. eigenvalues --  -14.48804 -14.48385 -14.47970 -14.47643 -14.47022
 Alpha  occ. eigenvalues --  -14.46843 -14.45113 -14.43699 -14.43679 -14.42125
 Alpha  occ. eigenvalues --  -14.41828 -14.41013 -14.40834 -14.40527 -14.39825
 Alpha  occ. eigenvalues --  -10.45665 -10.41313 -10.40503 -10.39362 -10.38296
 Alpha  occ. eigenvalues --  -10.38130 -10.37610 -10.36654 -10.35168 -10.35117
 Alpha  occ. eigenvalues --  -10.35022 -10.34393 -10.33694 -10.33658 -10.33293
 Alpha  occ. eigenvalues --  -10.32952 -10.32727 -10.32152 -10.31446 -10.30935
 Alpha  occ. eigenvalues --  -10.30691 -10.28149 -10.28109  -1.19617  -1.14733
 Alpha  occ. eigenvalues --   -1.13444  -1.13291  -1.10947  -1.10629  -1.09534
 Alpha  occ. eigenvalues --   -1.08737  -1.08642  -1.04601  -1.04291  -1.02696
 Alpha  occ. eigenvalues --   -1.00556  -1.00036  -0.99880  -0.98620  -0.96617
 Alpha  occ. eigenvalues --   -0.96615  -0.96224  -0.92260  -0.91337  -0.87151
 Alpha  occ. eigenvalues --   -0.85532  -0.84153  -0.83688  -0.83569  -0.82540
 Alpha  occ. eigenvalues --   -0.81966  -0.79129  -0.76541  -0.74687  -0.74278
 Alpha  occ. eigenvalues --   -0.73769  -0.73558  -0.72526  -0.70677  -0.69940
 Alpha  occ. eigenvalues --   -0.67480  -0.66733  -0.66320  -0.65928  -0.64622
 Alpha  occ. eigenvalues --   -0.63883  -0.63786  -0.62783  -0.62333  -0.61836
 Alpha  occ. eigenvalues --   -0.60170  -0.60007  -0.59980  -0.59701  -0.59225
 Alpha  occ. eigenvalues --   -0.59019  -0.58502  -0.56679  -0.56219  -0.56133
 Alpha  occ. eigenvalues --   -0.56053  -0.55124  -0.54869  -0.54612  -0.54476
 Alpha  occ. eigenvalues --   -0.53765  -0.53673  -0.53138  -0.53056  -0.53022
 Alpha  occ. eigenvalues --   -0.52502  -0.52325  -0.51445  -0.50371  -0.50278
 Alpha  occ. eigenvalues --   -0.49871  -0.49625  -0.49385  -0.49042  -0.48706
 Alpha  occ. eigenvalues --   -0.48607  -0.48422  -0.48340  -0.47786  -0.47496
 Alpha  occ. eigenvalues --   -0.46591  -0.45680  -0.44639  -0.44420  -0.44126
 Alpha  occ. eigenvalues --   -0.40743  -0.40253  -0.39596  -0.37452  -0.37340
 Alpha  occ. eigenvalues --   -0.37332  -0.36972  -0.36788  -0.36031  -0.34508
 Alpha  occ. eigenvalues --   -0.34024  -0.33748  -0.33545  -0.33117  -0.33061
 Alpha  occ. eigenvalues --   -0.32693  -0.32469  -0.32287  -0.31881  -0.30521
 Alpha  occ. eigenvalues --   -0.30053  -0.29486  -0.25685  -0.25161
 Alpha virt. eigenvalues --    0.02638   0.04526   0.07386   0.08386   0.08489
 Alpha virt. eigenvalues --    0.09134   0.09632   0.11002   0.11467   0.11785
 Alpha virt. eigenvalues --    0.12511   0.14425   0.14528   0.14725   0.15116

 Mulliken charges:
               1
     1  N   -0.312219
     2  C    0.181100
     3  C    0.044185
     4  N   -0.258896
     5  C    0.134038
     6  H    0.025176
     7  N   -0.294984
     8  C    0.137596
     9  H    0.007915
    10  N   -0.292993
    11  C    0.246626
    12  C    0.119629
    13  N   -0.053162
    14  H    0.111846
    15  H    0.087583
    16  H    0.024472
    17  H    0.032753
    18  H    0.025398
    19  N   -0.312420
    20  C    0.249246
    21  C    0.180849
    22  N   -0.114336
    23  H    0.113830
    24  H    0.115183
    25  N   -0.307470
    26  C    0.238117
    27  N   -0.140434
    28  H    0.116204
    29  C    0.174465
    30  O   -0.320330
    31  C    0.000031
    32  N   -0.226158
    33  C    0.131664
    34  H    0.026180
    35  H    0.029786
    36  H    0.028272
    37  H    0.024517
    38  H    0.064045
    39  H    0.058162
    40  H    0.072613
    41  H    0.030934
    42  C   -0.110129
    43  O   -0.265772
    44  C    0.148546
    45  H    0.134609
    46  N   -0.116287
    47  O   -0.344971
    48  C    0.344391
    49  H    0.049213
    50  C    0.164622
    51  C    0.040927
    52  N   -0.283982
    53  H    0.034278
    54  H    0.042144
    55  H    0.023970
    56  H    0.130041
    57  H    0.114919
    58  N   -0.061880
    59  C    0.077486
    60  C    0.239390
    61  N   -0.266499
    62  H    0.040236
    63  C    0.166449
    64  N   -0.302741
    65  H    0.034099
    66  C    0.137051
    67  N   -0.268759
    68  C    0.035481
    69  C    0.177515
    70  N   -0.313357
 Sum of Mulliken charges =  -0.00000

 Dipole moment (field-independent basis, Debye):
    X=              8.7419    Y=              5.8168    Z=              1.5654  Tot=             10.6164
 Quadrupole moment (field-independent basis, Debye-Ang):
   XX=           -154.7049   YY=           -215.9424   ZZ=           -251.8667
   XY=             -1.6556   XZ=              3.8063   YZ=             -5.1577

 Normal termination of Gaussian 16 at Wed Jan 24 11:37:28 2018.
