 Gaussian 16, Revision A.03,
 Gaussian 16:  EM64L-G16RevA.03 25-Dec-2016

 ---------------------------------------
 #p wb97xd/cc-pvdz sp scf=(maxcycles=20)
 ---------------------------------------

 ------------------
 Base pair stacking
 ------------------
 Symbolic Z-matrix:
 Charge =  0 Multiplicity = 1

                         Standard orientation:
 ---------------------------------------------------------------------
 Center     Atomic      Atomic             Coordinates (Angstroms)
 Number     Number       Type             X           Y           Z
 ---------------------------------------------------------------------
      1          7           0        4.576208   -2.114141   -1.763749
      2          6           0        5.970802   -1.732528   -2.059517
      3          6           0        2.393589   -2.076478   -1.495276
      4          7           0        2.804333   -3.357383   -1.155709
      5          6           0        4.102834   -3.328807   -1.331043
      6          1           0        4.770546   -4.173318   -1.158087
      7          7           0        1.065083   -0.171853   -1.908098
      8          6           0        2.198785    0.451924   -2.244552
      9          1           0        2.084953    1.491641   -2.548343
     10          7           0        3.446125   -0.013627   -2.262012
     11          6           0        3.474652   -1.298776   -1.872118
     12          6           0        1.127206   -1.464446   -1.520237
     13          7           0       -0.003395   -2.088822   -1.183988
     14          1           0       -0.004618   -3.045531   -0.890857
     15          1           0       -0.887247   -1.621837   -1.213610
     16          1           0        6.330892   -2.317496   -2.786375
     17          1           0        6.000413   -0.778269   -2.355538
     18          1           0        6.530054   -1.842360   -1.237827
     19          7           0        4.720427    2.771078    0.838265
     20          6           0        3.387777    2.470034    0.984806
     21          6           0        5.265218    4.110951    0.540528
     22          7           0        0.062606    3.472264    1.007701
     23          1           0       -0.833444    3.052223    1.148754
     24          1           0        0.078321    4.453726    0.814817
     25          7           0        2.360376    3.340652    0.882232
     26          6           0        1.192896    2.752575    1.074000
     27          7           0        1.041010    1.414403    1.345556
     28          1           0        0.109684    1.050972    1.477878
     29          6           0        2.083955    0.500061    1.455656
     30          8           0        1.838622   -0.686945    1.703818
     31          6           0        3.344395    1.117085    1.252116
     32          7           0        4.624062    0.579571    1.272978
     33          6           0        5.405508    1.595006    1.023076
     34          1           0        6.493012    1.541379    0.961994
     35          1           0        5.771851    4.082801   -0.320487
     36          1           0        4.513352    4.764291    0.462289
     37          1           0        5.877023    4.395234    1.277876
     38          1           0       -4.803728   -0.254422    1.393974
     39          1           0       -4.635809   -0.192821    3.146875
     40          1           0       -3.672949    0.880926    2.131334
     41          1           0       -2.598701   -4.450736    2.215791
     42          6           0       -2.356737   -3.389594    2.155323
     43          8           0       -0.021015   -3.745837    1.944092
     44          6           0       -0.990246   -2.990190    2.010388
     45          1           0        0.158112   -1.304678    1.841152
     46          7           0       -0.794413   -1.625481    1.943671
     47          8           0       -1.484060    0.538196    1.933701
     48          6           0       -1.755721   -0.647679    2.001391
     49          1           0       -4.370727   -2.710578    2.324385
     50          6           0       -3.316645   -2.459181    2.214571
     51          6           0       -4.110220   -0.103492    2.207813
     52          7           0       -3.048816   -1.111846    2.141576
     53          1           0       -5.636680    3.999137   -2.517661
     54          1           0       -4.250827    4.033506   -1.657245
     55          1           0       -5.686529    4.199510   -0.898781
     56          1           0       -3.563307   -2.909311   -0.774090
     57          1           0       -5.198490   -2.435493   -0.882546
     58          7           0       -4.232512   -2.174553   -0.885650
     59          6           0       -3.854613   -0.902973   -1.032107
     60          6           0       -4.211979    1.430182   -1.332733
     61          7           0       -2.907634    1.751292   -1.333034
     62          1           0       -1.083093    0.833145   -1.163641
     63          6           0       -2.158639    0.661828   -1.174996
     64          7           0       -2.535241   -0.612610   -1.028146
     65          1           0       -7.404859    1.912948   -1.489565
     66          6           0       -6.402685    1.491373   -1.406800
     67          7           0       -6.141313    0.217883   -1.240704
     68          6           0       -4.755816    0.165271   -1.192130
     69          6           0       -5.207991    3.745573   -1.650523
     70          7           0       -5.281696    2.282571   -1.471060
 ---------------------------------------------------------------------

 SCF Done:  E(RwB97XD) =  -2048.74851651     A.U. after   15 cycles

 The electronic state is 1-A.
 Alpha  occ. eigenvalues --  -19.25442 -19.21634 -19.20572 -14.52557 -14.52060
 Alpha  occ. eigenvalues --  -14.48939 -14.48911 -14.47943 -14.47373 -14.46822
 Alpha  occ. eigenvalues --  -14.46616 -14.45540 -14.44847 -14.44675 -14.42514
 Alpha  occ. eigenvalues --  -14.42057 -14.41109 -14.40580 -14.40564 -14.40181
 Alpha  occ. eigenvalues --  -10.45065 -10.41240 -10.40435 -10.39751 -10.38216
 Alpha  occ. eigenvalues --  -10.38116 -10.37704 -10.37447 -10.36157 -10.35306
 Alpha  occ. eigenvalues --  -10.34656 -10.34445 -10.33924 -10.33538 -10.33338
 Alpha  occ. eigenvalues --  -10.32963 -10.32775 -10.32754 -10.31082 -10.30928
 Alpha  occ. eigenvalues --  -10.30091 -10.28200 -10.28024  -1.19006  -1.15346
 Alpha  occ. eigenvalues --   -1.13194  -1.12643  -1.10679  -1.10593  -1.09784
 Alpha  occ. eigenvalues --   -1.08940  -1.08545  -1.05276  -1.04820  -1.02041
 Alpha  occ. eigenvalues --   -1.01145  -1.00284  -0.99709  -0.98577  -0.97288
 Alpha  occ. eigenvalues --   -0.96716  -0.96284  -0.92517  -0.90840  -0.87855
 Alpha  occ. eigenvalues --   -0.86037  -0.84226  -0.83302  -0.83200  -0.82616
 Alpha  occ. eigenvalues --   -0.81658  -0.78577  -0.77352  -0.75153  -0.74685
 Alpha  occ. eigenvalues --   -0.73621  -0.72978  -0.72543  -0.70776  -0.70602
 Alpha  occ. eigenvalues --   -0.67393  -0.67176  -0.66212  -0.65944  -0.64559
 Alpha  occ. eigenvalues --   -0.64369  -0.63643  -0.62620  -0.62396  -0.61783
 Alpha  occ. eigenvalues --   -0.60849  -0.60482  -0.60114  -0.59533  -0.59289
 Alpha  occ. eigenvalues --   -0.59162  -0.58328  -0.56753  -0.56245  -0.55755
 Alpha  occ. eigenvalues --   -0.55495  -0.55487  -0.55260  -0.54661  -0.54158
 Alpha  occ. eigenvalues --   -0.53852  -0.53570  -0.53500  -0.53020  -0.52997
 Alpha  occ. eigenvalues --   -0.52668  -0.52068  -0.51162  -0.50280  -0.50193
 Alpha  occ. eigenvalues --   -0.50060  -0.49687  -0.49513  -0.49161  -0.48794
 Alpha  occ. eigenvalues --   -0.48515  -0.48241  -0.48015  -0.47819  -0.47203
 Alpha  occ. eigenvalues --   -0.46460  -0.45658  -0.45391  -0.44453  -0.43602
 Alpha  occ. eigenvalues --   -0.40936  -0.40870  -0.39112  -0.38004  -0.37866
 Alpha  occ. eigenvalues --   -0.37369  -0.37317  -0.36600  -0.35484  -0.35142
 Alpha  occ. eigenvalues --   -0.34733  -0.34016  -0.33109  -0.33057  -0.32839
 Alpha  occ. eigenvalues --   -0.32607  -0.32567  -0.31918  -0.31754  -0.30427
 Alpha  occ. eigenvalues --   -0.30365  -0.30082  -0.25806  -0.25265
 Alpha virt. eigenvalues --    0.02996   0.04084   0.06566   0.08341   0.08914
 Alpha virt. eigenvalues --    0.09237   0.09752   0.10368   0.11289   0.11406
 Alpha virt. eigenvalues --    0.13485   0.14464   0.14670   0.14698   0.14996

 Mulliken charges:
               1
     1  N   -0.312151
     2  C    0.183812
     3  C    0.056346
     4  N   -0.256895
     5  C    0.143897
     6  H    0.026541
     7  N   -0.296719
     8  C    0.129708
     9  H    0.010721
    10  N   -0.282087
    11  C    0.259366
    12  C    0.093041
    13  N   -0.069399
    14  H    0.114176
    15  H    0.081935
    16  H    0.020491
    17  H    0.030794
    18  H    0.030601
    19  N   -0.310921
    20  C    0.253833
    21  C    0.180939
    22  N   -0.122305
    23  H    0.118683
    24  H    0.117335
    25  N   -0.312444
    26  C    0.247934
    27  N   -0.143681
    28  H    0.117819
    29  C    0.189625
    30  O   -0.321090
    31  C   -0.010450
    32  N   -0.231379
    33  C    0.126309
    34  H    0.022051
    35  H    0.028014
    36  H    0.029620
    37  H    0.024747
    38  H    0.062491
    39  H    0.058896
    40  H    0.075386
    41  H    0.027448
    42  C   -0.120241
    43  O   -0.259742
    44  C    0.168523
    45  H    0.134264
    46  N   -0.125129
    47  O   -0.349222
    48  C    0.353166
    49  H    0.041337
    50  C    0.164352
    51  C    0.035900
    52  N   -0.278842
    53  H    0.034450
    54  H    0.040436
    55  H    0.029946
    56  H    0.117708
    57  H    0.118182
    58  N   -0.062209
    59  C    0.082675
    60  C    0.252737
    61  N   -0.275159
    62  H    0.032386
    63  C    0.179651
    64  N   -0.314577
    65  H    0.039604
    66  C    0.140166
    67  N   -0.261852
    68  C    0.020526
    69  C    0.180522
    70  N   -0.312598
 Sum of Mulliken charges =  -0.00000

 Dipole moment (field-independent basis, Debye):
    X=             -8.4793    Y=              6.5092    Z=             -0.6175  Tot=             10.7075
 Quadrupole moment (field-independent basis, Debye-Ang):
   XX=           -166.2855   YY=           -214.7190   ZZ=           -250.7667
   XY=              5.3188   XZ=            -14.9989   YZ=              4.9477

 Normal termination of Gaussian 16 at Thu Jan 25 04:23:01 2018.
