 Gaussian 16, Revision A.03,
 Gaussian 16:  EM64L-G16RevA.03 25-Dec-2016

 ---------------------------------------
 #p wb97xd/cc-pvdz sp scf=(maxcycles=20)
 ---------------------------------------

 ------------------
 Base pair stacking
 ------------------
 Symbolic Z-matrix:
 Charge =  0 Multiplicity = 1

                         Standard orientation:
 ---------------------------------------------------------------------
 Center     Atomic      Atomic             Coordinates (Angstroms)
 Number     Number       Type             X           Y           Z
 ---------------------------------------------------------------------
      1          7           0        5.533817   -1.791306   -1.231407
      2          6           0        6.936230   -1.331701   -1.230168
      3          6           0        3.336285   -1.849976   -1.299969
      4          7           0        3.755212   -3.164409   -1.153367
      5          6           0        5.062382   -3.076455   -1.117924
      6          1           0        5.738172   -3.925272   -1.009529
      7          7           0        1.990731    0.072325   -1.539197
      8          6           0        3.129464    0.772220   -1.571107
      9          1           0        3.010474    1.848991   -1.683604
     10          7           0        4.387209    0.343716   -1.485317
     11          6           0        4.421363   -0.992269   -1.349587
     12          6           0        2.058746   -1.269894   -1.401696
     13          7           0        0.923139   -1.970277   -1.369633
     14          1           0        0.925948   -2.965832   -1.269257
     15          1           0        0.031339   -1.523974   -1.444811
     16          1           0        7.427744   -1.754761   -1.991493
     17          1           0        6.962013   -0.337418   -1.329452
     18          1           0        7.373208   -1.590406   -0.368705
     19          7           0        3.774112    2.771784    1.324533
     20          6           0        2.446231    2.421875    1.276025
     21          6           0        4.311792    4.120809    1.056693
     22          7           0       -0.874488    3.286624    0.740491
     23          1           0       -1.766409    2.835668    0.759325
     24          1           0       -0.862978    4.259977    0.509880
     25          7           0        1.417824    3.245029    0.977951
     26          6           0        0.255899    2.617045    1.012136
     27          7           0        0.110089    1.284896    1.314846
     28          1           0       -0.817253    0.888681    1.317136
     29          6           0        1.154177    0.419001    1.624664
     30          8           0        0.914527   -0.766932    1.883248
     31          6           0        2.408710    1.079282    1.591977
     32          7           0        3.687304    0.596028    1.833962
     33          6           0        4.462386    1.632648    1.664088
     34          1           0        5.547271    1.621559    1.774418
     35          1           0        4.947433    4.081230    0.286505
     36          1           0        3.559119    4.739267    0.834726
     37          1           0        4.790567    4.457499    1.866772
     38          1           0       -5.608737   -0.619967    0.530762
     39          1           0       -5.719101   -0.485757    2.284175
     40          1           0       -4.647309    0.587820    1.384142
     41          1           0       -3.414607   -4.688214    1.865572
     42          6           0       -3.203232   -3.621025    1.797187
     43          8           0       -0.852236   -3.888563    1.965646
     44          6           0       -1.845611   -3.171475    1.848236
     45          1           0       -0.744264   -1.447690    1.785612
     46          7           0       -1.689357   -1.803325    1.753341
     47          8           0       -2.443834    0.328240    1.542698
     48          6           0       -2.681308   -0.864415    1.619039
     49          1           0       -5.241282   -3.019564    1.622870
     50          6           0       -4.192386   -2.729322    1.666672
     51          6           0       -5.056633   -0.410192    1.434767
     52          7           0       -3.963483   -1.375804    1.577491
     53          1           0       -4.745725    4.149846   -2.361506
     54          1           0       -3.504967    4.041019   -1.307570
     55          1           0       -5.043073    4.026153   -0.761597
     56          1           0       -2.613530   -2.924882   -1.677797
     57          1           0       -4.236301   -2.471024   -1.943755
     58          7           0       -3.294419   -2.195775   -1.747976
     59          6           0       -2.962226   -0.913132   -1.587794
     60          6           0       -3.386030    1.426064   -1.486540
     61          7           0       -2.113257    1.766362   -1.224426
     62          1           0       -0.290500    0.868667   -0.955510
     63          6           0       -1.342897    0.681965   -1.164970
     64          7           0       -1.673725   -0.603522   -1.325121
     65          1           0       -6.540941    1.867789   -2.037473
     66          6           0       -5.542301    1.457835   -1.883852
     67          7           0       -5.245774    0.181947   -1.926962
     68          6           0       -3.881606    0.147882   -1.676678
     69          6           0       -4.437334    3.738749   -1.503657
     70          7           0       -4.464445    2.267925   -1.621756
 ---------------------------------------------------------------------

 SCF Done:  E(RwB97XD) =  -2048.74350235     A.U. after   15 cycles

 The electronic state is 1-A.
 Alpha  occ. eigenvalues --  -19.25501 -19.21709 -19.20335 -14.52768 -14.52164
 Alpha  occ. eigenvalues --  -14.48645 -14.48456 -14.48420 -14.47522 -14.46498
 Alpha  occ. eigenvalues --  -14.45749 -14.45690 -14.44523 -14.44413 -14.42397
 Alpha  occ. eigenvalues --  -14.41599 -14.41090 -14.40726 -14.40493 -14.40143
 Alpha  occ. eigenvalues --  -10.45149 -10.40715 -10.40253 -10.39836 -10.38276
 Alpha  occ. eigenvalues --  -10.37899 -10.37638 -10.37444 -10.35894 -10.35360
 Alpha  occ. eigenvalues --  -10.34632 -10.34354 -10.33946 -10.33780 -10.33067
 Alpha  occ. eigenvalues --  -10.32986 -10.32895 -10.32890 -10.30949 -10.30684
 Alpha  occ. eigenvalues --  -10.30675 -10.28277 -10.27703  -1.19150  -1.15472
 Alpha  occ. eigenvalues --   -1.12857  -1.12728  -1.11010  -1.10260  -1.09571
 Alpha  occ. eigenvalues --   -1.09045  -1.08126  -1.05147  -1.04880  -1.02161
 Alpha  occ. eigenvalues --   -1.01298  -1.00355  -0.99134  -0.98199  -0.97135
 Alpha  occ. eigenvalues --   -0.96673  -0.96260  -0.92575  -0.90835  -0.87913
 Alpha  occ. eigenvalues --   -0.86267  -0.83744  -0.83649  -0.83234  -0.82197
 Alpha  occ. eigenvalues --   -0.82068  -0.78639  -0.77312  -0.75192  -0.74236
 Alpha  occ. eigenvalues --   -0.73203  -0.73026  -0.72754  -0.70891  -0.70716
 Alpha  occ. eigenvalues --   -0.67181  -0.66896  -0.66236  -0.66155  -0.64616
 Alpha  occ. eigenvalues --   -0.64161  -0.63469  -0.62599  -0.62454  -0.61255
 Alpha  occ. eigenvalues --   -0.60860  -0.60493  -0.60407  -0.59643  -0.59341
 Alpha  occ. eigenvalues --   -0.59182  -0.57829  -0.56686  -0.56296  -0.55990
 Alpha  occ. eigenvalues --   -0.55755  -0.55694  -0.55387  -0.54553  -0.54264
 Alpha  occ. eigenvalues --   -0.53937  -0.53490  -0.53345  -0.53174  -0.52787
 Alpha  occ. eigenvalues --   -0.52589  -0.52048  -0.51546  -0.50536  -0.50038
 Alpha  occ. eigenvalues --   -0.49965  -0.49804  -0.49539  -0.49048  -0.48773
 Alpha  occ. eigenvalues --   -0.48517  -0.48047  -0.47897  -0.47264  -0.47060
 Alpha  occ. eigenvalues --   -0.46667  -0.45637  -0.45161  -0.44416  -0.43653
 Alpha  occ. eigenvalues --   -0.41172  -0.40894  -0.39193  -0.37994  -0.37894
 Alpha  occ. eigenvalues --   -0.37126  -0.36941  -0.36723  -0.35600  -0.34974
 Alpha  occ. eigenvalues --   -0.34664  -0.33448  -0.33339  -0.32875  -0.32819
 Alpha  occ. eigenvalues --   -0.32369  -0.32099  -0.31842  -0.31582  -0.30696
 Alpha  occ. eigenvalues --   -0.30340  -0.30200  -0.25710  -0.24790
 Alpha virt. eigenvalues --    0.02952   0.04004   0.06667   0.08127   0.08752
 Alpha virt. eigenvalues --    0.09493   0.10101   0.10213   0.11284   0.11828
 Alpha virt. eigenvalues --    0.12336   0.14062   0.14618   0.14935   0.15256

 Mulliken charges:
               1
     1  N   -0.313871
     2  C    0.182094
     3  C    0.049295
     4  N   -0.261243
     5  C    0.137875
     6  H    0.026113
     7  N   -0.295553
     8  C    0.138439
     9  H    0.011189
    10  N   -0.285571
    11  C    0.260881
    12  C    0.109021
    13  N   -0.058956
    14  H    0.109116
    15  H    0.081943
    16  H    0.023536
    17  H    0.030928
    18  H    0.028081
    19  N   -0.304003
    20  C    0.236309
    21  C    0.180535
    22  N   -0.086081
    23  H    0.110629
    24  H    0.111021
    25  N   -0.305236
    26  C    0.211878
    27  N   -0.147811
    28  H    0.124469
    29  C    0.185780
    30  O   -0.324081
    31  C   -0.011628
    32  N   -0.223259
    33  C    0.132485
    34  H    0.019040
    35  H    0.029214
    36  H    0.027600
    37  H    0.023460
    38  H    0.060434
    39  H    0.058820
    40  H    0.070884
    41  H    0.029162
    42  C   -0.114950
    43  O   -0.263145
    44  C    0.173364
    45  H    0.131983
    46  N   -0.124015
    47  O   -0.339602
    48  C    0.335843
    49  H    0.045150
    50  C    0.164617
    51  C    0.040163
    52  N   -0.283201
    53  H    0.036812
    54  H    0.034432
    55  H    0.030552
    56  H    0.120942
    57  H    0.116492
    58  N   -0.058773
    59  C    0.085256
    60  C    0.259489
    61  N   -0.285483
    62  H    0.054173
    63  C    0.155794
    64  N   -0.301551
    65  H    0.038558
    66  C    0.137133
    67  N   -0.263377
    68  C    0.024161
    69  C    0.179452
    70  N   -0.313208
 Sum of Mulliken charges =  -0.00000

 Dipole moment (field-independent basis, Debye):
    X=             -8.5656    Y=              5.8254    Z=             -2.5838  Tot=             10.6761
 Quadrupole moment (field-independent basis, Debye-Ang):
   XX=           -157.8867   YY=           -216.9528   ZZ=           -255.1196
   XY=              2.4700   XZ=             -4.7818   YZ=              9.2658

 Normal termination of Gaussian 16 at Wed Jan 24 11:26:14 2018.
