 Gaussian 16, Revision A.03,
 Gaussian 16:  EM64L-G16RevA.03 25-Dec-2016

 ---------------------------------------
 #p wb97xd/cc-pvdz sp scf=(maxcycles=20)
 ---------------------------------------

 ------------------
 Base pair stacking
 ------------------
 Symbolic Z-matrix:
 Charge =  0 Multiplicity = 1

                         Standard orientation:
 ---------------------------------------------------------------------
 Center     Atomic      Atomic             Coordinates (Angstroms)
 Number     Number       Type             X           Y           Z
 ---------------------------------------------------------------------
      1          7           0       -5.274122   -2.128605    1.320585
      2          6           0       -6.668347   -1.772249    1.647918
      3          6           0       -3.082691   -2.108148    1.134684
      4          7           0       -3.513910   -3.272005    0.514830
      5          6           0       -4.816910   -3.237753    0.651640
      6          1           0       -5.499610   -4.002573    0.280296
      7          7           0       -1.721025   -0.382110    1.988851
      8          6           0       -2.849795    0.193109    2.416132
      9          1           0       -2.720159    1.139214    2.939920
     10          7           0       -4.108724   -0.222930    2.294120
     11          6           0       -4.156349   -1.393076    1.636146
     12          6           0       -1.802486   -1.558822    1.330212
     13          7           0       -0.676834   -2.134580    0.902912
     14          1           0       -0.689746   -3.005816    0.410977
     15          1           0        0.217255   -1.714920    1.059854
     16          1           0       -7.070857   -2.486768    2.220301
     17          1           0       -6.683971   -0.903056    2.141261
     18          1           0       -7.198912   -1.684630    0.804820
     19          7           0       -4.012519    3.062415   -1.107827
     20          6           0       -2.684218    2.725030   -1.206998
     21          6           0       -4.531484    4.421528   -0.854503
     22          7           0        0.664776    3.642935   -1.147794
     23          1           0        1.553605    3.197678   -1.252524
     24          1           0        0.668427    4.628359   -0.975609
     25          7           0       -1.638368    3.571620   -1.090607
     26          6           0       -0.481107    2.950540   -1.234192
     27          7           0       -0.355486    1.603525   -1.473515
     28          1           0        0.569785    1.214149   -1.569582
     29          6           0       -1.417744    0.713462   -1.597006
     30          8           0       -1.195578   -0.484313   -1.813145
     31          6           0       -2.667520    1.366051   -1.445106
     32          7           0       -3.959349    0.860436   -1.494440
     33          6           0       -4.721669    1.900209   -1.289583
     34          1           0       -5.811540    1.875154   -1.261002
     35          1           0       -5.064545    4.424377   -0.009145
     36          1           0       -3.765807    5.057337   -0.766491
     37          1           0       -5.113154    4.705332   -1.616037
     38          1           0        5.443234   -0.211850   -1.307450
     39          1           0        5.330181   -0.183296   -3.065589
     40          1           0        4.364884    0.935565   -2.102414
     41          1           0        3.157077   -4.368115   -2.110878
     42          6           0        2.940723   -3.300196   -2.079624
     43          8           0        0.591297   -3.593250   -1.933320
     44          6           0        1.581174   -2.863703   -1.985111
     45          1           0        0.471891   -1.146731   -1.885904
     46          7           0        1.418532   -1.493403   -1.952405
     47          8           0        2.162913    0.652041   -1.965429
     48          6           0        2.405952   -0.541430   -2.000433
     49          1           0        4.975694   -2.675587   -2.200334
     50          6           0        3.925578   -2.395587   -2.128257
     51          6           0        4.778825   -0.060902   -2.145211
     52          7           0        3.690349   -1.040718   -2.091138
     53          1           0        5.060467    3.332612    3.690209
     54          1           0        3.709420    3.597251    2.814561
     55          1           0        5.176576    3.873162    2.154712
     56          1           0        2.873179   -2.968151    0.437253
     57          1           0        4.515013   -2.584096    0.696045
     58          7           0        3.556804   -2.297376    0.725097
     59          6           0        3.207249   -1.074611    1.129875
     60          6           0        3.614325    1.126619    1.936460
     61          7           0        2.319798    1.484126    1.965188
     62          1           0        0.479416    0.685757    1.545416
     63          6           0        1.548875    0.479724    1.553166
     64          7           0        1.897069   -0.745699    1.147352
     65          1           0        6.810618    1.456386    2.292951
     66          6           0        5.801523    1.096440    2.090214
     67          7           0        5.513172   -0.102376    1.645936
     68          6           0        4.129590   -0.096495    1.544014
     69          6           0        4.658249    3.285245    2.775888
     70          7           0        4.700131    1.892964    2.288226
 ---------------------------------------------------------------------

 SCF Done:  E(RwB97XD) =  -2048.74175302     A.U. after   15 cycles

 The electronic state is 1-A.
 Alpha  occ. eigenvalues --  -19.26010 -19.22505 -19.20724 -14.52686 -14.52263
 Alpha  occ. eigenvalues --  -14.48960 -14.48182 -14.48036 -14.47835 -14.47090
 Alpha  occ. eigenvalues --  -14.46877 -14.45366 -14.44223 -14.44126 -14.42194
 Alpha  occ. eigenvalues --  -14.41533 -14.41043 -14.40410 -14.40167 -14.39624
 Alpha  occ. eigenvalues --  -10.45674 -10.41428 -10.40566 -10.39860 -10.38356
 Alpha  occ. eigenvalues --  -10.38314 -10.37883 -10.37034 -10.35573 -10.35125
 Alpha  occ. eigenvalues --  -10.34701 -10.34508 -10.33674 -10.33481 -10.33152
 Alpha  occ. eigenvalues --  -10.32567 -10.32493 -10.32387 -10.31440 -10.31088
 Alpha  occ. eigenvalues --  -10.30221 -10.28267 -10.27654  -1.19599  -1.15024
 Alpha  occ. eigenvalues --   -1.13472  -1.13352  -1.10745  -1.10412  -1.09661
 Alpha  occ. eigenvalues --   -1.09168  -1.08727  -1.04777  -1.04288  -1.02725
 Alpha  occ. eigenvalues --   -1.00852  -0.99937  -0.99677  -0.98710  -0.96772
 Alpha  occ. eigenvalues --   -0.96763  -0.96048  -0.91966  -0.91489  -0.87460
 Alpha  occ. eigenvalues --   -0.85717  -0.84286  -0.83734  -0.83097  -0.82671
 Alpha  occ. eigenvalues --   -0.81513  -0.79244  -0.76933  -0.74801  -0.74688
 Alpha  occ. eigenvalues --   -0.73835  -0.73604  -0.72135  -0.70379  -0.70229
 Alpha  occ. eigenvalues --   -0.67572  -0.66853  -0.66710  -0.65523  -0.64713
 Alpha  occ. eigenvalues --   -0.64189  -0.63984  -0.62839  -0.61946  -0.61925
 Alpha  occ. eigenvalues --   -0.60555  -0.60189  -0.60063  -0.59752  -0.59307
 Alpha  occ. eigenvalues --   -0.59092  -0.58559  -0.56773  -0.56166  -0.55881
 Alpha  occ. eigenvalues --   -0.55535  -0.55127  -0.54790  -0.54602  -0.54107
 Alpha  occ. eigenvalues --   -0.53854  -0.53709  -0.53492  -0.53346  -0.53162
 Alpha  occ. eigenvalues --   -0.52656  -0.52573  -0.51021  -0.50383  -0.49974
 Alpha  occ. eigenvalues --   -0.49770  -0.49677  -0.49395  -0.49106  -0.49066
 Alpha  occ. eigenvalues --   -0.48675  -0.48499  -0.48141  -0.47874  -0.47508
 Alpha  occ. eigenvalues --   -0.46193  -0.45838  -0.45514  -0.44157  -0.43747
 Alpha  occ. eigenvalues --   -0.40556  -0.40352  -0.39590  -0.37481  -0.37461
 Alpha  occ. eigenvalues --   -0.37432  -0.37424  -0.36331  -0.36108  -0.34669
 Alpha  occ. eigenvalues --   -0.34277  -0.34068  -0.33611  -0.32849  -0.32736
 Alpha  occ. eigenvalues --   -0.32724  -0.32585  -0.32418  -0.32023  -0.30130
 Alpha  occ. eigenvalues --   -0.29822  -0.29695  -0.25678  -0.24943
 Alpha virt. eigenvalues --    0.02094   0.04406   0.07077   0.08273   0.08789
 Alpha virt. eigenvalues --    0.09140   0.09625   0.10623   0.11435   0.11778
 Alpha virt. eigenvalues --    0.13269   0.14391   0.14687   0.15035   0.15197

 Mulliken charges:
               1
     1  N   -0.312914
     2  C    0.181905
     3  C    0.049783
     4  N   -0.255729
     5  C    0.138444
     6  H    0.024265
     7  N   -0.301428
     8  C    0.135412
     9  H    0.008027
    10  N   -0.290806
    11  C    0.255953
    12  C    0.106792
    13  N   -0.059784
    14  H    0.114926
    15  H    0.082493
    16  H    0.022518
    17  H    0.031586
    18  H    0.025868
    19  N   -0.311578
    20  C    0.250746
    21  C    0.180698
    22  N   -0.122038
    23  H    0.115441
    24  H    0.117692
    25  N   -0.311524
    26  C    0.248124
    27  N   -0.152344
    28  H    0.121290
    29  C    0.199077
    30  O   -0.321021
    31  C   -0.015249
    32  N   -0.226216
    33  C    0.130736
    34  H    0.023301
    35  H    0.028970
    36  H    0.029214
    37  H    0.024886
    38  H    0.062158
    39  H    0.060081
    40  H    0.073921
    41  H    0.030234
    42  C   -0.131263
    43  O   -0.264761
    44  C    0.163976
    45  H    0.131587
    46  N   -0.115298
    47  O   -0.343933
    48  C    0.338126
    49  H    0.045891
    50  C    0.163418
    51  C    0.037804
    52  N   -0.272919
    53  H    0.033888
    54  H    0.042825
    55  H    0.027715
    56  H    0.123573
    57  H    0.112816
    58  N   -0.053233
    59  C    0.092851
    60  C    0.251590
    61  N   -0.274172
    62  H    0.038269
    63  C    0.174233
    64  N   -0.314722
    65  H    0.037453
    66  C    0.138697
    67  N   -0.271385
    68  C    0.025908
    69  C    0.179840
    70  N   -0.312684
 Sum of Mulliken charges =  -0.00000

 Dipole moment (field-independent basis, Debye):
    X=              8.8259    Y=              6.4556    Z=              0.3700  Tot=             10.9412
 Quadrupole moment (field-independent basis, Debye-Ang):
   XX=           -161.1879   YY=           -215.0922   ZZ=           -249.4191
   XY=             -3.4404   XZ=             -7.1455   YZ=             -0.2869

 Normal termination of Gaussian 16 at Wed Jan 24 21:50:06 2018.
