 Gaussian 16, Revision A.03,
 Gaussian 16:  EM64L-G16RevA.03 25-Dec-2016

 ---------------------------------------
 #p wb97xd/cc-pvdz sp scf=(maxcycles=20)
 ---------------------------------------

 ------------------
 Base pair stacking
 ------------------
 Symbolic Z-matrix:
 Charge =  0 Multiplicity = 1

                         Standard orientation:
 ---------------------------------------------------------------------
 Center     Atomic      Atomic             Coordinates (Angstroms)
 Number     Number       Type             X           Y           Z
 ---------------------------------------------------------------------
      1          7           0       -5.918132   -1.873668    0.900148
      2          6           0       -7.320382   -1.460634    1.102883
      3          6           0       -3.719547   -1.932441    0.891955
      4          7           0       -4.141301   -3.100401    0.273323
      5          6           0       -5.448988   -3.018252    0.303015
      6          1           0       -6.126819   -3.771271   -0.100031
      7          7           0       -2.369477   -0.226545    1.803108
      8          6           0       -3.507432    0.399440    2.120577
      9          1           0       -3.386242    1.356901    2.625393
     10          7           0       -4.766699    0.022047    1.909076
     11          6           0       -4.803503   -1.166236    1.283736
     12          6           0       -2.440182   -1.420271    1.174547
     13          7           0       -1.305353   -2.046680    0.856822
     14          1           0       -1.310141   -2.932241    0.391014
     15          1           0       -0.412196   -1.652360    1.073440
     16          1           0       -7.792788   -2.142679    1.661305
     17          1           0       -7.344202   -0.576122    1.567850
     18          1           0       -7.778316   -1.382255    0.217363
     19          7           0       -3.303544    3.122891   -1.466738
     20          6           0       -1.984536    2.738289   -1.448053
     21          6           0       -3.791985    4.505984   -1.295959
     22          7           0        1.379762    3.545125   -1.144338
     23          1           0        2.257562    3.067283   -1.163683
     24          1           0        1.405013    4.534858   -1.001167
     25          7           0       -0.921635    3.552714   -1.271966
     26          6           0        0.220357    2.889032   -1.303150
     27          7           0        0.316287    1.531615   -1.492202
     28          1           0        1.231691    1.108650   -1.501587
     29          6           0       -0.763965    0.674081   -1.675446
     30          8           0       -0.568354   -0.536734   -1.837930
     31          6           0       -1.997643    1.372609   -1.644396
     32          7           0       -3.298699    0.909158   -1.783533
     33          6           0       -4.037146    1.979843   -1.671485
     34          1           0       -5.126006    1.992170   -1.730617
     35          1           0       -4.390521    4.553613   -0.497019
     36          1           0       -3.013474    5.118328   -1.164713
     37          1           0       -4.300310    4.784650   -2.110067
     38          1           0        6.014219   -0.470424   -0.803948
     39          1           0        6.043268   -0.494188   -2.565541
     40          1           0        5.044794    0.686470   -1.716742
     41          1           0        3.651931   -4.571426   -1.668772
     42          6           0        3.472247   -3.496417   -1.686239
     43          8           0        1.109636   -3.705924   -1.722368
     44          6           0        2.126043   -3.011916   -1.714971
     45          1           0        1.074733   -1.256522   -1.755995
     46          7           0        2.010601   -1.636589   -1.735437
     47          8           0        2.830178    0.481248   -1.750494
     48          6           0        3.032236   -0.720191   -1.730948
     49          1           0        5.531462   -2.944369   -1.659724
     50          6           0        4.489673   -2.627257   -1.681184
     51          6           0        5.424803   -0.324137   -1.696841
     52          7           0        4.301022   -1.264785   -1.702677
     53          1           0        4.383141    3.311715    3.939721
     54          1           0        3.116855    3.593325    2.950129
     55          1           0        4.641046    3.798850    2.403620
     56          1           0        2.238302   -3.012919    0.704873
     57          1           0        3.866898   -2.675921    1.084606
     58          7           0        2.920350   -2.356539    1.027552
     59          6           0        2.583667   -1.110481    1.366918
     60          6           0        3.003675    1.100509    2.139461
     61          7           0        1.724668    1.501836    2.052746
     62          1           0       -0.103708    0.752471    1.508593
     63          6           0        0.953618    0.511145    1.609001
     64          7           0        1.288940   -0.737555    1.268558
     65          1           0        6.170980    1.334414    2.744101
     66          6           0        5.169068    1.002130    2.470799
     67          7           0        4.874330   -0.199932    2.039677
     68          6           0        3.504429   -0.151047    1.825813
     69          6           0        4.053925    3.248682    2.997582
     70          7           0        4.084671    1.840946    2.555632
 ---------------------------------------------------------------------

 SCF Done:  E(RwB97XD) =  -2048.74231296     A.U. after   15 cycles

 The electronic state is 1-A.
 Alpha  occ. eigenvalues --  -19.26197 -19.22885 -19.20791 -14.52827 -14.52019
 Alpha  occ. eigenvalues --  -14.48908 -14.48140 -14.48092 -14.47684 -14.47156
 Alpha  occ. eigenvalues --  -14.46947 -14.45152 -14.43792 -14.43768 -14.42218
 Alpha  occ. eigenvalues --  -14.41478 -14.40953 -14.40687 -14.40247 -14.39589
 Alpha  occ. eigenvalues --  -10.45822 -10.41449 -10.40800 -10.39422 -10.38394
 Alpha  occ. eigenvalues --  -10.38298 -10.37637 -10.36703 -10.35209 -10.35194
 Alpha  occ. eigenvalues --  -10.34721 -10.34485 -10.33535 -10.33404 -10.33386
 Alpha  occ. eigenvalues --  -10.32653 -10.32462 -10.32235 -10.31642 -10.31033
 Alpha  occ. eigenvalues --  -10.30468 -10.28245 -10.27800  -1.19771  -1.14753
 Alpha  occ. eigenvalues --   -1.13807  -1.13386  -1.10728  -1.10645  -1.09726
 Alpha  occ. eigenvalues --   -1.08816  -1.08763  -1.04406  -1.04312  -1.02902
 Alpha  occ. eigenvalues --   -1.00581  -0.99990  -0.99725  -0.98722  -0.96723
 Alpha  occ. eigenvalues --   -0.96437  -0.96183  -0.91983  -0.91565  -0.87171
 Alpha  occ. eigenvalues --   -0.85495  -0.84258  -0.83828  -0.83290  -0.82640
 Alpha  occ. eigenvalues --   -0.81694  -0.79350  -0.76595  -0.74794  -0.74330
 Alpha  occ. eigenvalues --   -0.73897  -0.73738  -0.72239  -0.70396  -0.70000
 Alpha  occ. eigenvalues --   -0.67597  -0.66917  -0.66399  -0.65630  -0.64804
 Alpha  occ. eigenvalues --   -0.64023  -0.63857  -0.62877  -0.62038  -0.61946
 Alpha  occ. eigenvalues --   -0.60340  -0.60070  -0.59881  -0.59830  -0.59190
 Alpha  occ. eigenvalues --   -0.58968  -0.58610  -0.56740  -0.56276  -0.55960
 Alpha  occ. eigenvalues --   -0.55800  -0.54962  -0.54764  -0.54717  -0.54363
 Alpha  occ. eigenvalues --   -0.53891  -0.53665  -0.53324  -0.53181  -0.53089
 Alpha  occ. eigenvalues --   -0.52660  -0.52355  -0.51194  -0.50430  -0.50100
 Alpha  occ. eigenvalues --   -0.49821  -0.49649  -0.49349  -0.49243  -0.48877
 Alpha  occ. eigenvalues --   -0.48560  -0.48495  -0.48187  -0.47849  -0.47611
 Alpha  occ. eigenvalues --   -0.46323  -0.45804  -0.44743  -0.44344  -0.44187
 Alpha  occ. eigenvalues --   -0.40433  -0.40272  -0.39735  -0.37465  -0.37431
 Alpha  occ. eigenvalues --   -0.37386  -0.37082  -0.36491  -0.36242  -0.34531
 Alpha  occ. eigenvalues --   -0.34152  -0.33945  -0.33768  -0.32971  -0.32847
 Alpha  occ. eigenvalues --   -0.32717  -0.32610  -0.32425  -0.31997  -0.30262
 Alpha  occ. eigenvalues --   -0.29805  -0.29521  -0.25731  -0.24908
 Alpha virt. eigenvalues --    0.02318   0.04400   0.07458   0.08124   0.08630
 Alpha virt. eigenvalues --    0.09132   0.09611   0.10948   0.11720   0.11965
 Alpha virt. eigenvalues --    0.12858   0.14403   0.14816   0.14979   0.15116

 Mulliken charges:
               1
     1  N   -0.312627
     2  C    0.181216
     3  C    0.047342
     4  N   -0.257585
     5  C    0.134321
     6  H    0.024170
     7  N   -0.298305
     8  C    0.137305
     9  H    0.007843
    10  N   -0.293159
    11  C    0.248447
    12  C    0.114765
    13  N   -0.052190
    14  H    0.114346
    15  H    0.085651
    16  H    0.023810
    17  H    0.032430
    18  H    0.024711
    19  N   -0.312124
    20  C    0.249749
    21  C    0.180749
    22  N   -0.120800
    23  H    0.114289
    24  H    0.116935
    25  N   -0.310695
    26  C    0.246066
    27  N   -0.148700
    28  H    0.119179
    29  C    0.189868
    30  O   -0.321339
    31  C   -0.009054
    32  N   -0.225670
    33  C    0.132243
    34  H    0.025462
    35  H    0.029568
    36  H    0.028732
    37  H    0.024808
    38  H    0.064333
    39  H    0.058868
    40  H    0.073313
    41  H    0.031128
    42  C   -0.112036
    43  O   -0.263559
    44  C    0.135338
    45  H    0.133900
    46  N   -0.107755
    47  O   -0.342801
    48  C    0.337690
    49  H    0.049475
    50  C    0.159927
    51  C    0.040171
    52  N   -0.276903
    53  H    0.033495
    54  H    0.043375
    55  H    0.025516
    56  H    0.129993
    57  H    0.115221
    58  N   -0.058604
    59  C    0.079473
    60  C    0.247020
    61  N   -0.270866
    62  H    0.039834
    63  C    0.167887
    64  N   -0.306895
    65  H    0.034980
    66  C    0.138052
    67  N   -0.271260
    68  C    0.032952
    69  C    0.179360
    70  N   -0.312379
 Sum of Mulliken charges =  -0.00000

 Dipole moment (field-independent basis, Debye):
    X=              8.9943    Y=              6.0625    Z=              0.8327  Tot=             10.8787
 Quadrupole moment (field-independent basis, Debye-Ang):
   XX=           -157.0084   YY=           -215.4303   ZZ=           -249.9399
   XY=             -2.8972   XZ=              0.6701   YZ=             -1.4762

 Normal termination of Gaussian 16 at Wed Jan 24 20:15:21 2018.
