 Gaussian 16, Revision A.03,
 Gaussian 16:  EM64L-G16RevA.03 25-Dec-2016

 ---------------------------------------
 #p wb97xd/cc-pvdz sp scf=(maxcycles=20)
 ---------------------------------------

 ------------------
 Base pair stacking
 ------------------
 Symbolic Z-matrix:
 Charge =  0 Multiplicity = 1

                         Standard orientation:
 ---------------------------------------------------------------------
 Center     Atomic      Atomic             Coordinates (Angstroms)
 Number     Number       Type             X           Y           Z
 ---------------------------------------------------------------------
      1          7           0        5.555896   -1.848443   -1.219847
      2          6           0        6.958860   -1.398848   -1.306837
      3          6           0        3.357252   -1.904610   -1.230841
      4          7           0        3.776897   -3.193113   -0.933555
      5          6           0        5.084709   -3.107706   -0.938833
      6          1           0        5.761169   -3.940036   -0.742423
      7          7           0        2.010284   -0.019786   -1.673610
      8          6           0        3.149332    0.665476   -1.817000
      9          1           0        3.029863    1.720872   -2.058068
     10          7           0        4.407884    0.244747   -1.707817
     11          6           0        4.442560   -1.064647   -1.409950
     12          6           0        2.078840   -1.335312   -1.373995
     13          7           0        0.942911   -2.021055   -1.230460
     14          1           0        0.946107   -2.996786   -1.008748
     15          1           0        0.050482   -1.583102   -1.339602
     16          1           0        7.431838   -1.914426   -2.021426
     17          1           0        6.984269   -0.424383   -1.527958
     18          1           0        7.415105   -1.552013   -0.430263
     19          7           0        3.739254    2.861874    1.351936
     20          6           0        2.411470    2.509013    1.328843
     21          6           0        4.265503    4.221384    1.116352
     22          7           0       -0.925423    3.379776    0.918141
     23          1           0       -1.815244    2.925182    0.946438
     24          1           0       -0.923071    4.360616    0.721497
     25          7           0        1.372818    3.338301    1.088988
     26          6           0        0.214005    2.705256    1.134062
     27          7           0        0.080419    1.362837    1.393989
     28          1           0       -0.845425    0.963391    1.408663
     29          6           0        1.135191    0.490478    1.643616
     30          8           0        0.906149   -0.704624    1.867233
     31          6           0        2.386521    1.156084    1.598549
     32          7           0        3.672767    0.669355    1.787179
     33          6           0        4.439942    1.714107    1.631791
     34          1           0        5.527550    1.703144    1.710904
     35          1           0        4.879099    4.211039    0.327560
     36          1           0        3.505187    4.844446    0.937564
     37          1           0        4.766223    4.531342    1.923834
     38          1           0       -5.653291   -0.534406    0.705985
     39          1           0       -5.714122   -0.461882    2.465443
     40          1           0       -4.671210    0.646369    1.573540
     41          1           0       -3.411257   -4.638710    1.834945
     42          6           0       -3.204762   -3.569023    1.797992
     43          8           0       -0.849225   -3.833667    1.890336
     44          6           0       -1.847440   -3.116562    1.826271
     45          1           0       -0.752921   -1.387628    1.792840
     46          7           0       -1.697601   -1.745369    1.774926
     47          8           0       -2.463440    0.389472    1.660453
     48          6           0       -2.695467   -0.805983    1.701713
     49          1           0       -5.248542   -2.969309    1.702616
     50          6           0       -4.199604   -2.676927    1.726825
     51          6           0       -5.076268   -0.354292    1.600782
     52          7           0       -3.976935   -1.320296    1.678606
     53          1           0       -4.735429    3.958124   -2.837169
     54          1           0       -3.470880    3.973477   -1.806268
     55          1           0       -4.995990    4.033020   -1.227851
     56          1           0       -2.601774   -2.989399   -1.338851
     57          1           0       -4.229362   -2.563867   -1.621629
     58          7           0       -3.282684   -2.271169   -1.482527
     59          6           0       -2.944383   -0.980163   -1.488554
     60          6           0       -3.361189    1.355787   -1.665583
     61          7           0       -2.082052    1.719594   -1.476149
     62          1           0       -0.255318    0.852998   -1.140496
     63          6           0       -1.312632    0.647024   -1.301532
     64          7           0       -1.649564   -0.646807   -1.295154
     65          1           0       -6.527124    1.741619   -2.194874
     66          6           0       -5.525997    1.348853   -2.014786
     67          7           0       -5.233025    0.075915   -1.907684
     68          6           0       -3.863516    0.066301   -1.686114
     69          6           0       -4.408113    3.653890   -1.942576
     70          7           0       -4.440802    2.179836   -1.878614
 ---------------------------------------------------------------------

 SCF Done:  E(RwB97XD) =  -2048.74909114     A.U. after   15 cycles

 The electronic state is 1-A.
 Alpha  occ. eigenvalues --  -19.25668 -19.21934 -19.20468 -14.52551 -14.52304
 Alpha  occ. eigenvalues --  -14.48637 -14.48459 -14.48277 -14.47673 -14.46739
 Alpha  occ. eigenvalues --  -14.46288 -14.45599 -14.44366 -14.44350 -14.42126
 Alpha  occ. eigenvalues --  -14.41833 -14.40918 -14.40694 -14.40575 -14.39998
 Alpha  occ. eigenvalues --  -10.45303 -10.41001 -10.40061 -10.40042 -10.38112
 Alpha  occ. eigenvalues --  -10.38064 -10.37802 -10.37266 -10.35755 -10.35164
 Alpha  occ. eigenvalues --  -10.34757 -10.34153 -10.34073 -10.33622 -10.33163
 Alpha  occ. eigenvalues --  -10.32917 -10.32763 -10.32751 -10.31107 -10.30822
 Alpha  occ. eigenvalues --  -10.30577 -10.28107 -10.27916  -1.19268  -1.15277
 Alpha  occ. eigenvalues --   -1.13032  -1.12935  -1.10860  -1.10430  -1.09399
 Alpha  occ. eigenvalues --   -1.09176  -1.08350  -1.04953  -1.04703  -1.02320
 Alpha  occ. eigenvalues --   -1.01101  -1.00154  -0.99460  -0.98380  -0.96956
 Alpha  occ. eigenvalues --   -0.96506  -0.96437  -0.92393  -0.90996  -0.87706
 Alpha  occ. eigenvalues --   -0.86032  -0.83935  -0.83514  -0.83357  -0.82362
 Alpha  occ. eigenvalues --   -0.81928  -0.78792  -0.77126  -0.74940  -0.74434
 Alpha  occ. eigenvalues --   -0.73436  -0.73194  -0.72578  -0.70720  -0.70516
 Alpha  occ. eigenvalues --   -0.67163  -0.66947  -0.66388  -0.65979  -0.64403
 Alpha  occ. eigenvalues --   -0.64311  -0.63629  -0.62544  -0.62407  -0.61520
 Alpha  occ. eigenvalues --   -0.60668  -0.60310  -0.60233  -0.59464  -0.59405
 Alpha  occ. eigenvalues --   -0.59267  -0.58093  -0.56575  -0.56269  -0.55909
 Alpha  occ. eigenvalues --   -0.55831  -0.55471  -0.55175  -0.54459  -0.54145
 Alpha  occ. eigenvalues --   -0.53914  -0.53512  -0.53429  -0.53127  -0.52839
 Alpha  occ. eigenvalues --   -0.52755  -0.52186  -0.51416  -0.50349  -0.50054
 Alpha  occ. eigenvalues --   -0.49969  -0.49757  -0.49401  -0.49143  -0.48703
 Alpha  occ. eigenvalues --   -0.48585  -0.48231  -0.48070  -0.47494  -0.47210
 Alpha  occ. eigenvalues --   -0.46577  -0.45656  -0.45220  -0.44413  -0.43758
 Alpha  occ. eigenvalues --   -0.40879  -0.40755  -0.39285  -0.37777  -0.37688
 Alpha  occ. eigenvalues --   -0.37128  -0.37060  -0.36749  -0.35770  -0.34867
 Alpha  occ. eigenvalues --   -0.34505  -0.33594  -0.33161  -0.33109  -0.33004
 Alpha  occ. eigenvalues --   -0.32536  -0.32273  -0.32023  -0.31735  -0.30551
 Alpha  occ. eigenvalues --   -0.30173  -0.30041  -0.25604  -0.25028
 Alpha virt. eigenvalues --    0.02848   0.04076   0.06942   0.08278   0.08595
 Alpha virt. eigenvalues --    0.09413   0.09954   0.10366   0.11381   0.11785
 Alpha virt. eigenvalues --    0.12432   0.14213   0.14649   0.14845   0.15320

 Mulliken charges:
               1
     1  N   -0.313387
     2  C    0.181821
     3  C    0.049644
     4  N   -0.259778
     5  C    0.137587
     6  H    0.025616
     7  N   -0.297012
     8  C    0.137172
     9  H    0.009453
    10  N   -0.288659
    11  C    0.258258
    12  C    0.110578
    13  N   -0.057901
    14  H    0.111257
    15  H    0.082257
    16  H    0.023481
    17  H    0.031323
    18  H    0.027112
    19  N   -0.309540
    20  C    0.247128
    21  C    0.180587
    22  N   -0.103178
    23  H    0.111526
    24  H    0.113576
    25  N   -0.308326
    26  C    0.229208
    27  N   -0.147689
    28  H    0.124666
    29  C    0.187163
    30  O   -0.322859
    31  C   -0.011801
    32  N   -0.225091
    33  C    0.132525
    34  H    0.021106
    35  H    0.029404
    36  H    0.028192
    37  H    0.023847
    38  H    0.060718
    39  H    0.059072
    40  H    0.071519
    41  H    0.029085
    42  C   -0.115991
    43  O   -0.264036
    44  C    0.167542
    45  H    0.132082
    46  N   -0.120542
    47  O   -0.341057
    48  C    0.335326
    49  H    0.045567
    50  C    0.164024
    51  C    0.038906
    52  N   -0.280830
    53  H    0.035668
    54  H    0.038481
    55  H    0.028560
    56  H    0.122903
    57  H    0.115507
    58  N   -0.057178
    59  C    0.083398
    60  C    0.252654
    61  N   -0.275806
    62  H    0.044836
    63  C    0.160093
    64  N   -0.303552
    65  H    0.037947
    66  C    0.138406
    67  N   -0.267224
    68  C    0.029317
    69  C    0.178724
    70  N   -0.313383
 Sum of Mulliken charges =  -0.00000

 Dipole moment (field-independent basis, Debye):
    X=             -8.6294    Y=              5.9586    Z=             -1.8820  Tot=             10.6543
 Quadrupole moment (field-independent basis, Debye-Ang):
   XX=           -158.2628   YY=           -215.8508   ZZ=           -253.7904
   XY=              2.7422   XZ=             -4.1425   YZ=              6.8106

 Normal termination of Gaussian 16 at Wed Jan 24 08:30:39 2018.
