 Gaussian 16, Revision A.03,
 Gaussian 16:  EM64L-G16RevA.03 25-Dec-2016

 ---------------------------------------
 #p wb97xd/cc-pvdz sp scf=(maxcycles=20)
 ---------------------------------------

 ------------------
 Base pair stacking
 ------------------
 Symbolic Z-matrix:
 Charge =  0 Multiplicity = 1

                         Standard orientation:
 ---------------------------------------------------------------------
 Center     Atomic      Atomic             Coordinates (Angstroms)
 Number     Number       Type             X           Y           Z
 ---------------------------------------------------------------------
      1          7           0        4.581043   -2.004729   -1.754527
      2          6           0        5.984644   -1.594223   -1.953029
      3          6           0        2.390718   -1.992675   -1.555435
      4          7           0        2.790103   -3.308154   -1.369069
      5          6           0        4.093709   -3.262765   -1.496482
      6          1           0        4.755403   -4.125207   -1.411018
      7          7           0        1.076419   -0.045445   -1.764890
      8          6           0        2.220595    0.611521   -1.981343
      9          1           0        2.116788    1.681991   -2.153312
     10          7           0        3.467885    0.146872   -2.017107
     11          6           0        3.483594   -1.177662   -1.793976
     12          6           0        1.125793   -1.377236   -1.543621
     13          7           0       -0.015274   -2.034777   -1.327349
     14          1           0       -0.026110   -3.021084   -1.159119
     15          1           0       -0.897707   -1.564193   -1.326101
     16          1           0        6.368709   -2.083020   -2.736457
     17          1           0        6.023952   -0.610090   -2.123498
     18          1           0        6.516340   -1.810453   -1.134163
     19          7           0        4.724241    2.701702    0.850398
     20          6           0        3.389849    2.393265    0.961360
     21          6           0        5.268129    4.037116    0.531699
     22          7           0        0.057987    3.366284    0.844324
     23          1           0       -0.838945    2.942618    0.967810
     24          1           0        0.072428    4.341828    0.623342
     25          7           0        2.359634    3.251414    0.799188
     26          6           0        1.191055    2.658861    0.969243
     27          7           0        1.040712    1.327864    1.274791
     28          1           0        0.108363    0.960208    1.386709
     29          6           0        2.086542    0.426367    1.446272
     30          8           0        1.842395   -0.755033    1.720901
     31          6           0        3.348196    1.048333    1.266689
     32          7           0        4.630641    0.522988    1.345834
     33          6           0        5.411984    1.537600    1.092323
     34          1           0        6.501315    1.491848    1.069003
     35          1           0        5.803496    3.988425   -0.310803
     36          1           0        4.514183    4.681218    0.409380
     37          1           0        5.852656    4.348123    1.280310
     38          1           0       -4.789068   -0.390494    1.177977
     39          1           0       -4.680395   -0.276455    2.932923
     40          1           0       -3.692570    0.775786    1.918843
     41          1           0       -2.579819   -4.541461    2.195465
     42          6           0       -2.344323   -3.480419    2.111935
     43          8           0       -0.000110   -3.821983    1.988978
     44          6           0       -0.976931   -3.073333    2.000816
     45          1           0        0.163150   -1.383365    1.820401
     46          7           0       -0.789717   -1.709454    1.900595
     47          8           0       -1.495658    0.446821    1.804190
     48          6           0       -1.760091   -0.738924    1.897612
     49          1           0       -4.368128   -2.814612    2.193981
     50          6           0       -3.312966   -2.557206    2.111916
     51          6           0       -4.124395   -0.209825    2.009632
     52          7           0       -3.053457   -1.210252    2.008329
     53          1           0       -5.601889    4.196894   -2.056504
     54          1           0       -4.245342    4.115324   -1.153598
     55          1           0       -5.705442    4.188987   -0.427808
     56          1           0       -3.586738   -2.886212   -1.143089
     57          1           0       -5.217473   -2.395660   -1.243858
     58          7           0       -4.251950   -2.140467   -1.181768
     59          6           0       -3.869546   -0.862169   -1.151960
     60          6           0       -4.216990    1.491738   -1.163452
     61          7           0       -2.913398    1.804856   -1.079774
     62          1           0       -1.095378    0.865066   -0.969178
     63          6           0       -2.169936    0.701043   -1.037739
     64          7           0       -2.551053   -0.580138   -1.067483
     65          1           0       -7.402971    2.003768   -1.362287
     66          6           0       -6.404043    1.570941   -1.301156
     67          7           0       -6.148184    0.285595   -1.290705
     68          6           0       -4.765053    0.221491   -1.203683
     69          6           0       -5.202176    3.832848   -1.215252
     70          7           0       -5.281630    2.359222   -1.226806
 ---------------------------------------------------------------------

 SCF Done:  E(RwB97XD) =  -2048.74961517     A.U. after   15 cycles

 The electronic state is 1-A.
 Alpha  occ. eigenvalues --  -19.25284 -19.21430 -19.20462 -14.52677 -14.51898
 Alpha  occ. eigenvalues --  -14.49071 -14.48813 -14.48121 -14.47241 -14.46642
 Alpha  occ. eigenvalues --  -14.46410 -14.45633 -14.44959 -14.44848 -14.42810
 Alpha  occ. eigenvalues --  -14.41942 -14.40994 -14.40814 -14.40740 -14.40371
 Alpha  occ. eigenvalues --  -10.44898 -10.41077 -10.40576 -10.39557 -10.38205
 Alpha  occ. eigenvalues --  -10.38081 -10.37571 -10.37483 -10.36345 -10.35532
 Alpha  occ. eigenvalues --  -10.34448 -10.34296 -10.34048 -10.33550 -10.33439
 Alpha  occ. eigenvalues --  -10.33049 -10.32962 -10.32899 -10.30990 -10.30762
 Alpha  occ. eigenvalues --  -10.30183 -10.28240 -10.28052  -1.18880  -1.15464
 Alpha  occ. eigenvalues --   -1.13054  -1.12448  -1.10784  -1.10546  -1.09917
 Alpha  occ. eigenvalues --   -1.08789  -1.08398  -1.05421  -1.05031  -1.01887
 Alpha  occ. eigenvalues --   -1.01258  -1.00513  -0.99527  -0.98439  -0.97435
 Alpha  occ. eigenvalues --   -0.96589  -0.96482  -0.92723  -0.90651  -0.87993
 Alpha  occ. eigenvalues --   -0.86167  -0.84094  -0.83480  -0.83051  -0.82497
 Alpha  occ. eigenvalues --   -0.81811  -0.78407  -0.77481  -0.75302  -0.74548
 Alpha  occ. eigenvalues --   -0.73454  -0.72820  -0.72748  -0.70927  -0.70778
 Alpha  occ. eigenvalues --   -0.67327  -0.67211  -0.66149  -0.66052  -0.64687
 Alpha  occ. eigenvalues --   -0.64238  -0.63503  -0.62611  -0.62489  -0.61624
 Alpha  occ. eigenvalues --   -0.60971  -0.60629  -0.60282  -0.59710  -0.59194
 Alpha  occ. eigenvalues --   -0.59057  -0.58140  -0.56707  -0.56412  -0.55680
 Alpha  occ. eigenvalues --   -0.55618  -0.55611  -0.55448  -0.54790  -0.54062
 Alpha  occ. eigenvalues --   -0.53925  -0.53523  -0.53365  -0.53130  -0.52863
 Alpha  occ. eigenvalues --   -0.52439  -0.51940  -0.51315  -0.50345  -0.50304
 Alpha  occ. eigenvalues --   -0.50041  -0.49825  -0.49614  -0.49035  -0.48713
 Alpha  occ. eigenvalues --   -0.48668  -0.48083  -0.47887  -0.47703  -0.47077
 Alpha  occ. eigenvalues --   -0.46628  -0.45657  -0.45338  -0.44467  -0.43490
 Alpha  occ. eigenvalues --   -0.41115  -0.41062  -0.38987  -0.38121  -0.38015
 Alpha  occ. eigenvalues --   -0.37302  -0.37198  -0.36738  -0.35355  -0.35236
 Alpha  occ. eigenvalues --   -0.34915  -0.33944  -0.33272  -0.33187  -0.32800
 Alpha  occ. eigenvalues --   -0.32451  -0.32447  -0.31802  -0.31500  -0.30555
 Alpha  occ. eigenvalues --   -0.30477  -0.30249  -0.26003  -0.25137
 Alpha virt. eigenvalues --    0.03203   0.03928   0.06436   0.08132   0.09039
 Alpha virt. eigenvalues --    0.09370   0.09852   0.10261   0.11042   0.11513
 Alpha virt. eigenvalues --    0.13370   0.14517   0.14605   0.14770   0.14904

 Mulliken charges:
               1
     1  N   -0.312138
     2  C    0.184382
     3  C    0.058563
     4  N   -0.260016
     5  C    0.144149
     6  H    0.027177
     7  N   -0.291773
     8  C    0.125407
     9  H    0.013586
    10  N   -0.277372
    11  C    0.259230
    12  C    0.089415
    13  N   -0.069030
    14  H    0.112502
    15  H    0.081310
    16  H    0.020367
    17  H    0.030637
    18  H    0.031576
    19  N   -0.309843
    20  C    0.252516
    21  C    0.181137
    22  N   -0.118774
    23  H    0.118174
    24  H    0.116414
    25  N   -0.310213
    26  C    0.239712
    27  N   -0.133254
    28  H    0.114468
    29  C    0.179431
    30  O   -0.321150
    31  C   -0.004739
    32  N   -0.231562
    33  C    0.124759
    34  H    0.021146
    35  H    0.027682
    36  H    0.029284
    37  H    0.024341
    38  H    0.064054
    39  H    0.058199
    40  H    0.076123
    41  H    0.027513
    42  C   -0.117928
    43  O   -0.260508
    44  C    0.172851
    45  H    0.134537
    46  N   -0.126986
    47  O   -0.346628
    48  C    0.353337
    49  H    0.041701
    50  C    0.163740
    51  C    0.034545
    52  N   -0.278964
    53  H    0.034747
    54  H    0.038707
    55  H    0.030795
    56  H    0.118519
    57  H    0.119345
    58  N   -0.062103
    59  C    0.075792
    60  C    0.251493
    61  N   -0.276603
    62  H    0.024496
    63  C    0.185642
    64  N   -0.312008
    65  H    0.040042
    66  C    0.139776
    67  N   -0.259119
    68  C    0.018839
    69  C    0.180989
    70  N   -0.312437
 Sum of Mulliken charges =  -0.00000

 Dipole moment (field-independent basis, Debye):
    X=             -8.5014    Y=              6.2976    Z=             -1.2850  Tot=             10.6576
 Quadrupole moment (field-independent basis, Debye-Ang):
   XX=           -166.0821   YY=           -215.4766   ZZ=           -252.2752
   XY=              6.0137   XZ=            -15.5862   YZ=              7.7856

 Normal termination of Gaussian 16 at Thu Jan 25 04:00:34 2018.
