 Gaussian 16, Revision A.03,
 Gaussian 16:  EM64L-G16RevA.03 25-Dec-2016

 ---------------------------------------
 #p wb97xd/cc-pvdz sp scf=(maxcycles=20)
 ---------------------------------------

 ------------------
 Base pair stacking
 ------------------
 Symbolic Z-matrix:
 Charge =  0 Multiplicity = 1

                         Standard orientation:
 ---------------------------------------------------------------------
 Center     Atomic      Atomic             Coordinates (Angstroms)
 Number     Number       Type             X           Y           Z
 ---------------------------------------------------------------------
      1          7           0        4.250845   -2.096206   -1.892226
      2          6           0        5.645860   -1.712120   -2.182813
      3          6           0        2.073125   -2.050552   -1.587680
      4          7           0        2.471829   -3.356761   -1.343556
      5          6           0        3.767875   -3.331984   -1.536810
      6          1           0        4.426818   -4.194494   -1.432866
      7          7           0        0.764009   -0.105918   -1.847571
      8          6           0        1.900776    0.525722   -2.157998
      9          1           0        1.796251    1.585237   -2.387674
     10          7           0        3.141443    0.047310   -2.226975
     11          6           0        3.158701   -1.261931   -1.926964
     12          6           0        0.814729   -1.422859   -1.550634
     13          7           0       -0.318956   -2.055124   -1.240505
     14          1           0       -0.328519   -3.029700   -1.013948
     15          1           0       -1.196886   -1.576470   -1.224073
     16          1           0        5.987392   -2.249865   -2.953756
     17          1           0        5.683719   -0.740130   -2.412874
     18          1           0        6.215677   -1.885222   -1.379480
     19          7           0        5.029402    2.678235    0.680844
     20          6           0        3.697338    2.387193    0.850962
     21          6           0        5.577901    4.011658    0.361719
     22          7           0        0.379298    3.410993    0.915791
     23          1           0       -0.517070    2.998096    1.074816
     24          1           0        0.398174    4.390435    0.713208
     25          7           0        2.673962    3.263387    0.755934
     26          6           0        1.505942    2.684706    0.971488
     27          7           0        1.349890    1.350204    1.258318
     28          1           0        0.418474    0.994055    1.408593
     29          6           0        2.388651    0.430256    1.361041
     30          8           0        2.139759   -0.752703    1.624464
     31          6           0        3.649628    1.037169    1.131987
     32          7           0        4.926053    0.491650    1.138181
     33          6           0        5.709871    1.499593    0.866356
     34          1           0        6.795941    1.438390    0.788920
     35          1           0        6.070862    3.972010   -0.506739
     36          1           0        4.829040    4.669045    0.288855
     37          1           0        6.202911    4.299043    1.086698
     38          1           0       -4.503763   -0.280418    1.413647
     39          1           0       -4.308158   -0.203117    3.163052
     40          1           0       -3.354515    0.854641    2.122334
     41          1           0       -2.312631   -4.482784    2.241679
     42          6           0       -2.064971   -3.423845    2.167195
     43          8           0        0.264887   -3.797124    1.923178
     44          6           0       -0.698413   -3.034660    1.997201
     45          1           0        0.457744   -1.358269    1.793846
     46          7           0       -0.495067   -1.671932    1.914245
     47          8           0       -1.171163    0.495944    1.894050
     48          6           0       -1.449189   -0.687452    1.977434
     49          1           0       -4.071765   -2.730278    2.360938
     50          6           0       -3.017959   -2.486744    2.232344
     51          6           0       -3.796709   -0.126170    2.215117
     52          7           0       -2.742839   -1.141928    2.142161
     53          1           0       -5.890199    4.178602   -2.063637
     54          1           0       -4.491458    4.136604   -1.224688
     55          1           0       -5.913479    4.267343   -0.434224
     56          1           0       -3.882983   -2.858489   -0.832404
     57          1           0       -5.513168   -2.358409   -0.882394
     58          7           0       -4.543964   -2.109681   -0.882635
     59          6           0       -4.151464   -0.835725   -0.947119
     60          6           0       -4.482304    1.516807   -1.080791
     61          7           0       -3.173965    1.821239   -1.079406
     62          1           0       -1.359448    0.871411   -1.002186
     63          6           0       -2.437214    0.714409   -1.008475
     64          7           0       -2.828441   -0.562432   -0.943818
     65          1           0       -7.670481    2.048147   -1.154041
     66          6           0       -6.672854    1.609674   -1.116186
     67          7           0       -6.425952    0.324665   -1.042252
     68          6           0       -5.040703    0.251931   -1.019104
     69          6           0       -5.452150    3.860581   -1.222824
     70          7           0       -5.542568    2.389685   -1.143362
 ---------------------------------------------------------------------

 SCF Done:  E(RwB97XD) =  -2048.74782396     A.U. after   15 cycles

 The electronic state is 1-A.
 Alpha  occ. eigenvalues --  -19.25264 -19.21347 -19.20595 -14.52587 -14.51792
 Alpha  occ. eigenvalues --  -14.49091 -14.48991 -14.48037 -14.47152 -14.46777
 Alpha  occ. eigenvalues --  -14.46596 -14.45535 -14.45010 -14.44833 -14.42911
 Alpha  occ. eigenvalues --  -14.42059 -14.41217 -14.40821 -14.40708 -14.40465
 Alpha  occ. eigenvalues --  -10.44829 -10.41221 -10.40576 -10.39461 -10.38216
 Alpha  occ. eigenvalues --  -10.38115 -10.37548 -10.37418 -10.36308 -10.35586
 Alpha  occ. eigenvalues --  -10.34453 -10.34377 -10.33942 -10.33621 -10.33464
 Alpha  occ. eigenvalues --  -10.33057 -10.32961 -10.32955 -10.31131 -10.30712
 Alpha  occ. eigenvalues --  -10.29987 -10.28249 -10.28221  -1.18798  -1.15396
 Alpha  occ. eigenvalues --   -1.13198  -1.12363  -1.10740  -1.10704  -1.09937
 Alpha  occ. eigenvalues --   -1.08705  -1.08528  -1.05421  -1.05094  -1.01804
 Alpha  occ. eigenvalues --   -1.01182  -1.00585  -0.99693  -0.98586  -0.97437
 Alpha  occ. eigenvalues --   -0.96759  -0.96410  -0.92790  -0.90581  -0.87951
 Alpha  occ. eigenvalues --   -0.86082  -0.84259  -0.83441  -0.82980  -0.82639
 Alpha  occ. eigenvalues --   -0.81709  -0.78333  -0.77456  -0.75267  -0.74697
 Alpha  occ. eigenvalues --   -0.73607  -0.72777  -0.72725  -0.70925  -0.70768
 Alpha  occ. eigenvalues --   -0.67391  -0.67275  -0.66155  -0.65993  -0.64643
 Alpha  occ. eigenvalues --   -0.64343  -0.63481  -0.62626  -0.62580  -0.61784
 Alpha  occ. eigenvalues --   -0.60933  -0.60592  -0.60110  -0.59694  -0.59102
 Alpha  occ. eigenvalues --   -0.59031  -0.58307  -0.56810  -0.56422  -0.55682
 Alpha  occ. eigenvalues --   -0.55622  -0.55486  -0.55411  -0.54909  -0.54103
 Alpha  occ. eigenvalues --   -0.53906  -0.53578  -0.53361  -0.53089  -0.52971
 Alpha  occ. eigenvalues --   -0.52331  -0.51862  -0.51233  -0.50371  -0.50242
 Alpha  occ. eigenvalues --   -0.50123  -0.49810  -0.49471  -0.49034  -0.48776
 Alpha  occ. eigenvalues --   -0.48667  -0.48073  -0.47901  -0.47716  -0.47123
 Alpha  occ. eigenvalues --   -0.46611  -0.45580  -0.45457  -0.44714  -0.43443
 Alpha  occ. eigenvalues --   -0.41139  -0.40989  -0.38982  -0.38142  -0.37954
 Alpha  occ. eigenvalues --   -0.37394  -0.37308  -0.36790  -0.35299  -0.35279
 Alpha  occ. eigenvalues --   -0.34866  -0.34047  -0.33278  -0.33180  -0.32944
 Alpha  occ. eigenvalues --   -0.32607  -0.32420  -0.31912  -0.31343  -0.30591
 Alpha  occ. eigenvalues --   -0.30490  -0.30280  -0.26075  -0.25270
 Alpha virt. eigenvalues --    0.03490   0.03718   0.06582   0.08137   0.08919
 Alpha virt. eigenvalues --    0.09218   0.09752   0.10315   0.11017   0.11460
 Alpha virt. eigenvalues --    0.13679   0.14386   0.14566   0.14756   0.14863

 Mulliken charges:
               1
     1  N   -0.311198
     2  C    0.184425
     3  C    0.062431
     4  N   -0.257746
     5  C    0.146630
     6  H    0.027934
     7  N   -0.293494
     8  C    0.124521
     9  H    0.012909
    10  N   -0.277615
    11  C    0.256780
    12  C    0.082593
    13  N   -0.070391
    14  H    0.113427
    15  H    0.082107
    16  H    0.019327
    17  H    0.030865
    18  H    0.033468
    19  N   -0.311305
    20  C    0.255115
    21  C    0.181237
    22  N   -0.122745
    23  H    0.121390
    24  H    0.117576
    25  N   -0.311923
    26  C    0.243303
    27  N   -0.139195
    28  H    0.118749
    29  C    0.181075
    30  O   -0.319812
    31  C   -0.003648
    32  N   -0.234016
    33  C    0.123804
    34  H    0.022470
    35  H    0.027323
    36  H    0.029945
    37  H    0.024961
    38  H    0.064076
    39  H    0.057702
    40  H    0.076782
    41  H    0.026935
    42  C   -0.118058
    43  O   -0.257083
    44  C    0.165487
    45  H    0.136200
    46  N   -0.124882
    47  O   -0.350645
    48  C    0.354558
    49  H    0.040842
    50  C    0.163314
    51  C    0.036519
    52  N   -0.278518
    53  H    0.034340
    54  H    0.040056
    55  H    0.030645
    56  H    0.117636
    57  H    0.120211
    58  N   -0.064359
    59  C    0.068037
    60  C    0.246668
    61  N   -0.272838
    62  H    0.028283
    63  C    0.178836
    64  N   -0.310503
    65  H    0.039925
    66  C    0.141795
    67  N   -0.259574
    68  C    0.027810
    69  C    0.180678
    70  N   -0.312154
 Sum of Mulliken charges =  -0.00000

 Dipole moment (field-independent basis, Debye):
    X=             -8.3838    Y=              6.5284    Z=             -0.6795  Tot=             10.6476
 Quadrupole moment (field-independent basis, Debye-Ang):
   XX=           -169.1798   YY=           -214.8220   ZZ=           -250.4115
   XY=              6.9124   XZ=            -18.0965   YZ=              6.4656

 Normal termination of Gaussian 16 at Wed Jan 24 10:14:02 2018.
