 Gaussian 16, Revision A.03,
 Gaussian 16:  EM64L-G16RevA.03 25-Dec-2016

 ---------------------------------------
 #p wb97xd/cc-pvdz sp scf=(maxcycles=20)
 ---------------------------------------

 ------------------
 Base pair stacking
 ------------------
 Symbolic Z-matrix:
 Charge =  0 Multiplicity = 1

                         Standard orientation:
 ---------------------------------------------------------------------
 Center     Atomic      Atomic             Coordinates (Angstroms)
 Number     Number       Type             X           Y           Z
 ---------------------------------------------------------------------
      1          7           0       -6.743538   -1.592479    0.317457
      2          6           0       -8.144615   -1.131016    0.362621
      3          6           0       -4.556318   -1.708332    0.517335
      4          7           0       -4.956809   -2.903088   -0.063091
      5          6           0       -6.258498   -2.785475   -0.160268
      6          1           0       -6.920348   -3.545579   -0.576378
      7          7           0       -3.241419    0.018267    1.440827
      8          6           0       -4.383127    0.692860    1.611159
      9          1           0       -4.278111    1.677924    2.063795
     10          7           0       -5.629233    0.335005    1.307723
     11          6           0       -5.646602   -0.890389    0.757684
     12          6           0       -3.292419   -1.211893    0.884790
     13          7           0       -2.153812   -1.886844    0.713950
     14          1           0       -2.144229   -2.800627    0.306377
     15          1           0       -1.272030   -1.502326    0.987382
     16          1           0       -8.687309   -1.762562    0.916537
     17          1           0       -8.182618   -0.217597    0.766765
     18          1           0       -8.517281   -1.099101   -0.564791
     19          7           0       -2.325207    3.037507   -1.812215
     20          6           0       -1.026248    2.621074   -1.646883
     21          6           0       -2.783059    4.440966   -1.774945
     22          7           0        2.320308    3.359076   -1.083226
     23          1           0        3.180622    2.858519   -0.990806
     24          1           0        2.363793    4.355098   -1.000889
     25          7           0        0.041494    3.417618   -1.424377
     26          6           0        1.159952    2.724093   -1.307485
     27          7           0        1.229600    1.355177   -1.401006
     28          1           0        2.128187    0.909046   -1.298649
     29          6           0        0.143883    0.515625   -1.629506
     30          8           0        0.314967   -0.707881   -1.696587
     31          6           0       -1.064725    1.246252   -1.757251
     32          7           0       -2.361747    0.808384   -1.987259
     33          6           0       -3.072986    1.902789   -2.011910
     34          1           0       -4.151006    1.939292   -2.172629
     35          1           0       -3.450048    4.556297   -1.039680
     36          1           0       -2.000708    5.040309   -1.610726
     37          1           0       -3.206021    4.678644   -2.648683
     38          1           0        6.774793   -0.743654   -0.061608
     39          1           0        6.963398   -0.883651   -1.807886
     40          1           0        5.929723    0.375486   -1.131524
     41          1           0        4.372207   -4.830270   -0.882421
     42          6           0        4.229051   -3.754454   -0.984116
     43          8           0        1.874106   -3.904890   -1.226395
     44          6           0        2.907111   -3.238321   -1.168268
     45          1           0        1.920106   -1.462882   -1.417183
     46          7           0        2.837685   -1.864788   -1.285869
     47          8           0        3.721992    0.225675   -1.357950
     48          6           0        3.883214   -0.976718   -1.244150
     49          1           0        6.293758   -3.255128   -0.801161
     50          6           0        5.268838   -2.913349   -0.939254
     51          6           0        6.274085   -0.641103   -1.012837
     52          7           0        5.126238   -1.550820   -1.063880
     53          1           0        3.397358    3.513745    3.968793
     54          1           0        2.236030    3.762402    2.850048
     55          1           0        3.809412    3.892264    2.435709
     56          1           0        1.356530   -2.952016    0.953079
     57          1           0        2.953640   -2.632945    1.460546
     58          7           0        2.026829   -2.293694    1.295784
     59          6           0        1.700328   -1.019795    1.523303
     60          6           0        2.118136    1.225534    2.190860
     61          7           0        0.865727    1.653157    1.960590
     62          1           0       -0.928335    0.917113    1.297126
     63          6           0        0.107262    0.655707    1.510331
     64          7           0        0.432423   -0.620861    1.281791
     65          1           0        5.223039    1.416845    3.071288
     66          6           0        4.240150    1.093286    2.727520
     67          7           0        3.947914   -0.126453    2.347379
     68          6           0        2.605436   -0.056390    2.004496
     69          6           0        3.153480    3.397566    3.005970
     70          7           0        3.179685    1.963552    2.658258
 ---------------------------------------------------------------------

 SCF Done:  E(RwB97XD) =  -2048.74015651     A.U. after   15 cycles

 The electronic state is 1-A.
 Alpha  occ. eigenvalues --  -19.26215 -19.22920 -19.20909 -14.52954 -14.51361
 Alpha  occ. eigenvalues --  -14.48968 -14.48561 -14.48282 -14.47285 -14.47279
 Alpha  occ. eigenvalues --  -14.46302 -14.44438 -14.42913 -14.42777 -14.42363
 Alpha  occ. eigenvalues --  -14.41735 -14.41210 -14.40987 -14.40611 -14.39828
 Alpha  occ. eigenvalues --  -10.45894 -10.41627 -10.40935 -10.38527 -10.38500
 Alpha  occ. eigenvalues --  -10.38404 -10.36979 -10.35916 -10.35525 -10.35063
 Alpha  occ. eigenvalues --  -10.34616 -10.34330 -10.33872 -10.33425 -10.33114
 Alpha  occ. eigenvalues --  -10.33066 -10.32798 -10.31717 -10.31429 -10.31044
 Alpha  occ. eigenvalues --  -10.30808 -10.28378 -10.28262  -1.19846  -1.14050
 Alpha  occ. eigenvalues --   -1.13938  -1.13525  -1.11128  -1.10819  -1.09835
 Alpha  occ. eigenvalues --   -1.08939  -1.07807  -1.04658  -1.03505  -1.02965
 Alpha  occ. eigenvalues --   -1.00230  -1.00080  -0.99823  -0.98833  -0.96790
 Alpha  occ. eigenvalues --   -0.96716  -0.95385  -0.92294  -0.91668  -0.86441
 Alpha  occ. eigenvalues --   -0.84857  -0.84358  -0.84047  -0.83713  -0.82709
 Alpha  occ. eigenvalues --   -0.82090  -0.79460  -0.75778  -0.74903  -0.74064
 Alpha  occ. eigenvalues --   -0.73878  -0.73465  -0.72612  -0.70771  -0.69162
 Alpha  occ. eigenvalues --   -0.67759  -0.67086  -0.66007  -0.65494  -0.64930
 Alpha  occ. eigenvalues --   -0.64107  -0.62999  -0.62982  -0.62374  -0.62115
 Alpha  occ. eigenvalues --   -0.60084  -0.60039  -0.59921  -0.59252  -0.58868
 Alpha  occ. eigenvalues --   -0.58729  -0.58336  -0.56818  -0.56353  -0.56245
 Alpha  occ. eigenvalues --   -0.56213  -0.55060  -0.54921  -0.54666  -0.54162
 Alpha  occ. eigenvalues --   -0.53998  -0.53775  -0.53256  -0.52854  -0.52694
 Alpha  occ. eigenvalues --   -0.52436  -0.51657  -0.51530  -0.50544  -0.50488
 Alpha  occ. eigenvalues --   -0.49953  -0.49932  -0.49369  -0.49205  -0.48992
 Alpha  occ. eigenvalues --   -0.48557  -0.48365  -0.47950  -0.47868  -0.47754
 Alpha  occ. eigenvalues --   -0.46694  -0.45622  -0.44812  -0.44671  -0.43259
 Alpha  occ. eigenvalues --   -0.40854  -0.39817  -0.39532  -0.37602  -0.37530
 Alpha  occ. eigenvalues --   -0.37137  -0.36905  -0.36311  -0.35599  -0.34657
 Alpha  occ. eigenvalues --   -0.34060  -0.33529  -0.33230  -0.33149  -0.32933
 Alpha  occ. eigenvalues --   -0.32819  -0.32708  -0.32531  -0.32047  -0.30666
 Alpha  occ. eigenvalues --   -0.30072  -0.28637  -0.25762  -0.25433
 Alpha virt. eigenvalues --    0.02256   0.05194   0.07471   0.08249   0.08520
 Alpha virt. eigenvalues --    0.09260   0.09424   0.11297   0.11604   0.12042
 Alpha virt. eigenvalues --    0.12653   0.14122   0.14691   0.14846   0.15500

 Mulliken charges:
               1
     1  N   -0.310954
     2  C    0.181001
     3  C    0.034130
     4  N   -0.257918
     5  C    0.132199
     6  H    0.025421
     7  N   -0.293897
     8  C    0.132877
     9  H    0.009327
    10  N   -0.291684
    11  C    0.239702
    12  C    0.124794
    13  N   -0.051846
    14  H    0.111194
    15  H    0.092237
    16  H    0.025111
    17  H    0.034169
    18  H    0.024866
    19  N   -0.312192
    20  C    0.248574
    21  C    0.181321
    22  N   -0.124995
    23  H    0.114821
    24  H    0.117203
    25  N   -0.306223
    26  C    0.243826
    27  N   -0.135767
    28  H    0.114078
    29  C    0.168885
    30  O   -0.320681
    31  C    0.000009
    32  N   -0.222777
    33  C    0.131421
    34  H    0.030133
    35  H    0.030139
    36  H    0.028396
    37  H    0.025117
    38  H    0.064674
    39  H    0.059559
    40  H    0.074467
    41  H    0.032672
    42  C   -0.106483
    43  O   -0.272976
    44  C    0.133953
    45  H    0.135814
    46  N   -0.114114
    47  O   -0.349543
    48  C    0.356922
    49  H    0.051627
    50  C    0.175305
    51  C    0.043113
    52  N   -0.290409
    53  H    0.031377
    54  H    0.044063
    55  H    0.019429
    56  H    0.129969
    57  H    0.109449
    58  N   -0.055598
    59  C    0.093683
    60  C    0.241222
    61  N   -0.266024
    62  H    0.044252
    63  C    0.159578
    64  N   -0.298006
    65  H    0.029656
    66  C    0.132046
    67  N   -0.270750
    68  C    0.021111
    69  C    0.180776
    70  N   -0.312834
 Sum of Mulliken charges =  -0.00000

 Dipole moment (field-independent basis, Debye):
    X=              9.0303    Y=              5.6155    Z=              1.0565  Tot=             10.6862
 Quadrupole moment (field-independent basis, Debye-Ang):
   XX=           -149.8856   YY=           -216.5035   ZZ=           -249.0078
   XY=             -0.7747   XZ=              9.8810   YZ=             -3.8355

 Normal termination of Gaussian 16 at Wed Jan 24 22:25:22 2018.
