 Gaussian 16, Revision A.03,
 Gaussian 16:  EM64L-G16RevA.03 25-Dec-2016

 ---------------------------------------
 #p wb97xd/cc-pvdz sp scf=(maxcycles=20)
 ---------------------------------------

 ------------------
 Base pair stacking
 ------------------
 Symbolic Z-matrix:
 Charge =  0 Multiplicity = 1

                         Standard orientation:
 ---------------------------------------------------------------------
 Center     Atomic      Atomic             Coordinates (Angstroms)
 Number     Number       Type             X           Y           Z
 ---------------------------------------------------------------------
      1          7           0       -6.085075   -1.644790    0.848436
      2          6           0       -7.471104   -1.172201    0.665113
      3          6           0       -3.903421   -1.720800    1.116602
      4          7           0       -4.338971   -3.037934    1.103728
      5          6           0       -5.635907   -2.939427    0.942681
      6          1           0       -6.319662   -3.786854    0.885227
      7          7           0       -2.538578    0.199762    1.224308
      8          6           0       -3.659155    0.911685    1.066022
      9          1           0       -3.525016    1.992416    1.049386
     10          7           0       -4.914666    0.491008    0.925868
     11          6           0       -4.968377   -0.850767    0.960279
     12          6           0       -2.626016   -1.148013    1.254787
     13          7           0       -1.508545   -1.860402    1.412706
     14          1           0       -1.526097   -2.860449    1.441092
     15          1           0       -0.616220   -1.419004    1.507968
     16          1           0       -8.035666   -1.486761    1.428330
     17          1           0       -7.481962   -0.173206    0.633302
     18          1           0       -7.838782   -1.535284   -0.191026
     19          7           0       -3.185657    2.703224   -1.508104
     20          6           0       -1.870308    2.339975   -1.347008
     21          6           0       -3.736973    4.049212   -1.253036
     22          7           0        1.392117    3.159201   -0.482609
     23          1           0        2.278966    2.700786   -0.431688
     24          1           0        1.365676    4.125873   -0.226582
     25          7           0       -0.868563    3.145150   -0.931984
     26          6           0        0.287387    2.507730   -0.876404
     27          7           0        0.451870    1.183162   -1.201933
     28          1           0        1.372821    0.778686   -1.129710
     29          6           0       -0.564680    0.335733   -1.631300
     30          8           0       -0.309896   -0.844765   -1.900091
     31          6           0       -1.812483    1.006313   -1.696023
     32          7           0       -3.066312    0.541637   -2.068724
     33          6           0       -3.846980    1.580228   -1.941930
     34          1           0       -4.917026    1.582112   -2.152319
     35          1           0       -4.441488    3.994227   -0.546315
     36          1           0       -3.004069    4.654395   -0.945032
     37          1           0       -4.136437    4.412476   -2.094034
     38          1           0        6.060853   -0.794857    0.053106
     39          1           0        6.334055   -0.613363   -1.678094
     40          1           0        5.190552    0.444753   -0.850944
     41          1           0        3.973166   -4.804492   -1.593400
     42          6           0        3.763373   -3.737711   -1.514658
     43          8           0        1.436390   -3.978977   -1.907180
     44          6           0        2.419302   -3.274521   -1.678211
     45          1           0        1.328225   -1.543106   -1.668874
     46          7           0        2.263911   -1.908130   -1.559474
     47          8           0        3.009598    0.209826   -1.219761
     48          6           0        3.245292   -0.982405   -1.307557
     49          1           0        5.780421   -3.159962   -1.135779
     50          6           0        4.742012   -2.859033   -1.268095
     51          6           0        5.596255   -0.555191   -0.891761
     52          7           0        4.514719   -1.506456   -1.162165
     53          1           0        4.196627    4.267247    2.104587
     54          1           0        3.048277    4.037529    0.968532
     55          1           0        4.626651    3.933144    0.566118
     56          1           0        1.965494   -2.809863    2.150109
     57          1           0        3.569777   -2.345089    2.497031
     58          7           0        2.654795   -2.086160    2.185626
     59          6           0        2.367649   -0.831258    1.833593
     60          6           0        2.853245    1.469635    1.470530
     61          7           0        1.615863    1.788461    1.056188
     62          1           0       -0.197767    0.885701    0.745764
     63          6           0        0.828204    0.714998    1.069016
     64          7           0        1.113934   -0.542725    1.421262
     65          1           0        5.959010    1.940746    2.235019
     66          6           0        4.967820    1.526496    2.048216
     67          7           0        4.638879    0.270731    2.228535
     68          6           0        3.300678    0.221038    1.865915
     69          6           0        3.953141    3.751979    1.282875
     70          7           0        3.935590    2.308738    1.590706
 ---------------------------------------------------------------------

 SCF Done:  E(RwB97XD) =  -2048.64774099     A.U. after   16 cycles

 The electronic state is 1-A.
 Alpha  occ. eigenvalues --  -19.25773 -19.21772 -19.20496 -14.52660 -14.52290
 Alpha  occ. eigenvalues --  -14.48743 -14.48469 -14.48115 -14.47709 -14.46469
 Alpha  occ. eigenvalues --  -14.45458 -14.45332 -14.43905 -14.42518 -14.42384
 Alpha  occ. eigenvalues --  -14.41770 -14.41433 -14.40945 -14.40459 -14.40245
 Alpha  occ. eigenvalues --  -10.45360 -10.40308 -10.39908 -10.39637 -10.37936
 Alpha  occ. eigenvalues --  -10.37925 -10.37662 -10.36960 -10.35532 -10.35311
 Alpha  occ. eigenvalues --  -10.34816 -10.34804 -10.34101 -10.34012 -10.33354
 Alpha  occ. eigenvalues --  -10.33101 -10.32998 -10.32223 -10.30998 -10.30961
 Alpha  occ. eigenvalues --  -10.30725 -10.28550 -10.27779  -1.19376  -1.15306
 Alpha  occ. eigenvalues --   -1.13246  -1.12821  -1.11334  -1.10409  -1.09379
 Alpha  occ. eigenvalues --   -1.09144  -1.08373  -1.05071  -1.04692  -1.02318
 Alpha  occ. eigenvalues --   -1.01187  -1.00570  -0.99794  -0.98424  -0.97021
 Alpha  occ. eigenvalues --   -0.96540  -0.96237  -0.92750  -0.90896  -0.87727
 Alpha  occ. eigenvalues --   -0.86343  -0.83954  -0.83868  -0.83360  -0.82348
 Alpha  occ. eigenvalues --   -0.82307  -0.78734  -0.77028  -0.75268  -0.74438
 Alpha  occ. eigenvalues --   -0.73380  -0.73182  -0.72992  -0.71144  -0.70589
 Alpha  occ. eigenvalues --   -0.67329  -0.66925  -0.66424  -0.66374  -0.64506
 Alpha  occ. eigenvalues --   -0.64275  -0.63582  -0.62963  -0.62833  -0.61640
 Alpha  occ. eigenvalues --   -0.60934  -0.60530  -0.60421  -0.59593  -0.59390
 Alpha  occ. eigenvalues --   -0.59353  -0.58672  -0.57142  -0.56466  -0.56306
 Alpha  occ. eigenvalues --   -0.56027  -0.55637  -0.55451  -0.55318  -0.54396
 Alpha  occ. eigenvalues --   -0.54051  -0.53429  -0.53195  -0.53013  -0.52716
 Alpha  occ. eigenvalues --   -0.52412  -0.52122  -0.51786  -0.50867  -0.50244
 Alpha  occ. eigenvalues --   -0.49958  -0.49524  -0.49256  -0.48966  -0.48857
 Alpha  occ. eigenvalues --   -0.48562  -0.48074  -0.47972  -0.47589  -0.47206
 Alpha  occ. eigenvalues --   -0.46884  -0.46222  -0.44962  -0.43910  -0.43749
 Alpha  occ. eigenvalues --   -0.41483  -0.41074  -0.39404  -0.38188  -0.37816
 Alpha  occ. eigenvalues --   -0.37267  -0.37040  -0.36682  -0.35943  -0.34721
 Alpha  occ. eigenvalues --   -0.34219  -0.33736  -0.33494  -0.32958  -0.32458
 Alpha  occ. eigenvalues --   -0.32248  -0.31794  -0.31622  -0.30905  -0.30510
 Alpha  occ. eigenvalues --   -0.29339  -0.29002  -0.25904  -0.23918
 Alpha virt. eigenvalues --    0.03235   0.04152   0.07061   0.07908   0.08451
 Alpha virt. eigenvalues --    0.09476   0.09950   0.10612   0.11188   0.11826
 Alpha virt. eigenvalues --    0.12530   0.13898   0.14266   0.14721   0.14839

 Mulliken charges:
               1
     1  N   -0.313789
     2  C    0.181491
     3  C    0.042976
     4  N   -0.261751
     5  C    0.135423
     6  H    0.026594
     7  N   -0.285586
     8  C    0.147805
     9  H    0.006462
    10  N   -0.291471
    11  C    0.253822
    12  C    0.118425
    13  N   -0.060459
    14  H    0.107111
    15  H    0.084205
    16  H    0.024745
    17  H    0.031664
    18  H    0.027688
    19  N   -0.300764
    20  C    0.227446
    21  C    0.179845
    22  N   -0.039019
    23  H    0.106933
    24  H    0.111743
    25  N   -0.293540
    26  C    0.193092
    27  N   -0.141345
    28  H    0.128273
    29  C    0.154898
    30  O   -0.320140
    31  C    0.020747
    32  N   -0.221367
    33  C    0.123599
    34  H    0.021018
    35  H    0.029958
    36  H    0.027086
    37  H    0.024310
    38  H    0.062531
    39  H    0.057340
    40  H    0.070050
    41  H    0.030849
    42  C   -0.111803
    43  O   -0.262765
    44  C    0.176387
    45  H    0.132292
    46  N   -0.128827
    47  O   -0.343948
    48  C    0.349644
    49  H    0.046867
    50  C    0.167368
    51  C    0.041498
    52  N   -0.290304
    53  H    0.041303
    54  H    0.007414
    55  H    0.035829
    56  H    0.120798
    57  H    0.116365
    58  N   -0.066627
    59  C    0.083856
    60  C    0.276530
    61  N   -0.334907
    62  H    0.038096
    63  C    0.184238
    64  N   -0.300756
    65  H    0.034652
    66  C    0.129369
    67  N   -0.260699
    68  C    0.026604
    69  C    0.182238
    70  N   -0.319612
 Sum of Mulliken charges =  -0.00000

 Dipole moment (field-independent basis, Debye):
    X=              8.0628    Y=              5.6377    Z=              3.4079  Tot=             10.4118
 Quadrupole moment (field-independent basis, Debye-Ang):
   XX=           -154.4661   YY=           -218.8172   ZZ=           -256.3984
   XY=             -0.4862   XZ=              1.9255   YZ=            -11.7792

 Normal termination of Gaussian 16 at Wed Jan 24 20:28:27 2018.
