 Gaussian 16, Revision A.03,
 Gaussian 16:  EM64L-G16RevA.03 25-Dec-2016

 ---------------------------------------
 #p wb97xd/cc-pvdz sp scf=(maxcycles=20)
 ---------------------------------------

 ------------------
 Base pair stacking
 ------------------
 Symbolic Z-matrix:
 Charge =  0 Multiplicity = 1

                         Standard orientation:
 ---------------------------------------------------------------------
 Center     Atomic      Atomic             Coordinates (Angstroms)
 Number     Number       Type             X           Y           Z
 ---------------------------------------------------------------------
      1          7           0       -6.136610   -1.680561    0.817860
      2          6           0       -7.530884   -1.200811    0.755952
      3          6           0       -3.947648   -1.774317    1.010186
      4          7           0       -4.373302   -3.074985    0.782547
      5          6           0       -5.675033   -2.966434    0.675798
      6          1           0       -6.353649   -3.799840    0.491771
      7          7           0       -2.595019    0.116036    1.410043
      8          6           0       -3.725080    0.830547    1.406831
      9          1           0       -3.599742    1.899655    1.572829
     10          7           0       -4.980833    0.424596    1.230193
     11          6           0       -5.023267   -0.903701    1.034611
     12          6           0       -2.671240   -1.217915    1.210468
     13          7           0       -1.544284   -1.932861    1.213320
     14          1           0       -1.553354   -2.923057    1.069636
     15          1           0       -0.653003   -1.503311    1.359091
     16          1           0       -8.070938   -1.648825    1.468547
     17          1           0       -7.550299   -0.211410    0.896838
     18          1           0       -7.920152   -1.415950   -0.139692
     19          7           0       -3.103484    2.826061   -1.589059
     20          6           0       -1.787553    2.453912   -1.455351
     21          6           0       -3.627472    4.193527   -1.398910
     22          7           0        1.516040    3.276630   -0.768930
     23          1           0        2.398349    2.809049   -0.722803
     24          1           0        1.511744    4.257761   -0.573761
     25          7           0       -0.760380    3.268393   -1.130394
     26          6           0        0.388734    2.618424   -1.078509
     27          7           0        0.523748    1.273720   -1.325602
     28          1           0        1.441634    0.860770   -1.262946
     29          6           0       -0.519317    0.416396   -1.661605
     30          8           0       -0.290042   -0.782336   -1.864663
     31          6           0       -1.760136    1.100265   -1.721227
     32          7           0       -3.033234    0.632013   -2.015934
     33          6           0       -3.795245    1.688131   -1.925561
     34          1           0       -4.872549    1.692891   -2.094888
     35          1           0       -4.304646    4.193578   -0.663905
     36          1           0       -2.875588    4.805764   -1.157849
     37          1           0       -4.054663    4.509290   -2.245446
     38          1           0        6.151844   -0.705737   -0.161711
     39          1           0        6.359890   -0.637322   -1.910050
     40          1           0        5.262791    0.487659   -1.108702
     41          1           0        3.951436   -4.778940   -1.470841
     42          6           0        3.758319   -3.706284   -1.451848
     43          8           0        1.414997   -3.936701   -1.739720
     44          6           0        2.414856   -3.234117   -1.593246
     45          1           0        1.346866   -1.489334   -1.652057
     46          7           0        2.281433   -1.860800   -1.555382
     47          8           0        3.066372    0.262852   -1.378875
     48          6           0        3.283440   -0.935941   -1.399951
     49          1           0        5.795674   -3.136280   -1.187095
     50          6           0        4.756797   -2.828675   -1.298680
     51          6           0        5.653969   -0.518857   -1.101531
     52          7           0        4.550850   -1.468850   -1.269986
     53          1           0        4.131323    4.055405    2.795713
     54          1           0        2.952701    4.010007    1.668368
     55          1           0        4.519646    3.995989    1.211697
     56          1           0        1.956613   -2.951533    1.682627
     57          1           0        3.566582   -2.533320    2.061077
     58          7           0        2.641097   -2.236157    1.823603
     59          6           0        2.334389   -0.943108    1.700633
     60          6           0        2.791768    1.391824    1.726023
     61          7           0        1.540630    1.761645    1.406166
     62          1           0       -0.274188    0.903121    0.993898
     63          6           0        0.761896    0.692205    1.255245
     64          7           0        1.067206   -0.603667    1.377980
     65          1           0        5.914462    1.763241    2.476367
     66          6           0        4.921534    1.374934    2.247796
     67          7           0        4.607504    0.102852    2.218095
     68          6           0        3.259892    0.099532    1.888461
     69          6           0        3.868350    3.685993    1.904435
     70          7           0        3.870661    2.211216    1.959657
 ---------------------------------------------------------------------

 SCF Done:  E(RwB97XD) =  -2048.73533032     A.U. after   15 cycles

 The electronic state is 1-A.
 Alpha  occ. eigenvalues --  -19.25864 -19.22020 -19.20579 -14.52410 -14.52304
 Alpha  occ. eigenvalues --  -14.48667 -14.48593 -14.47968 -14.47818 -14.46778
 Alpha  occ. eigenvalues --  -14.46268 -14.45294 -14.43859 -14.43507 -14.42218
 Alpha  occ. eigenvalues --  -14.41969 -14.41251 -14.40783 -14.40668 -14.40082
 Alpha  occ. eigenvalues --  -10.45464 -10.40955 -10.40127 -10.39559 -10.38121
 Alpha  occ. eigenvalues --  -10.37838 -10.37782 -10.36823 -10.35320 -10.35317
 Alpha  occ. eigenvalues --  -10.34919 -10.34228 -10.34132 -10.33927 -10.33187
 Alpha  occ. eigenvalues --  -10.33161 -10.32972 -10.32250 -10.31169 -10.30847
 Alpha  occ. eigenvalues --  -10.30826 -10.28367 -10.27986  -1.19431  -1.14964
 Alpha  occ. eigenvalues --   -1.13163  -1.13034  -1.11170  -1.10499  -1.09293
 Alpha  occ. eigenvalues --   -1.08959  -1.08420  -1.04870  -1.04494  -1.02454
 Alpha  occ. eigenvalues --   -1.00821  -1.00338  -0.99599  -0.98480  -0.96853
 Alpha  occ. eigenvalues --   -0.96493  -0.96408  -0.92540  -0.91054  -0.87402
 Alpha  occ. eigenvalues --   -0.85876  -0.83987  -0.83788  -0.83471  -0.82406
 Alpha  occ. eigenvalues --   -0.82184  -0.78869  -0.76767  -0.74606  -0.74482
 Alpha  occ. eigenvalues --   -0.73553  -0.73316  -0.72789  -0.70934  -0.70201
 Alpha  occ. eigenvalues --   -0.67264  -0.66594  -0.66487  -0.66199  -0.64401
 Alpha  occ. eigenvalues --   -0.64090  -0.63692  -0.62707  -0.62612  -0.61607
 Alpha  occ. eigenvalues --   -0.60448  -0.60264  -0.60083  -0.59486  -0.59332
 Alpha  occ. eigenvalues --   -0.59264  -0.58215  -0.56769  -0.56407  -0.56212
 Alpha  occ. eigenvalues --   -0.55958  -0.55462  -0.55250  -0.54787  -0.54313
 Alpha  occ. eigenvalues --   -0.53909  -0.53582  -0.53129  -0.52978  -0.52872
 Alpha  occ. eigenvalues --   -0.52466  -0.52268  -0.51649  -0.50613  -0.50097
 Alpha  occ. eigenvalues --   -0.50090  -0.49487  -0.49392  -0.48866  -0.48758
 Alpha  occ. eigenvalues --   -0.48682  -0.48294  -0.48155  -0.47752  -0.47321
 Alpha  occ. eigenvalues --   -0.46794  -0.45697  -0.44852  -0.44314  -0.43896
 Alpha  occ. eigenvalues --   -0.41011  -0.40619  -0.39428  -0.37696  -0.37548
 Alpha  occ. eigenvalues --   -0.37191  -0.37045  -0.36797  -0.35919  -0.34722
 Alpha  occ. eigenvalues --   -0.34166  -0.33484  -0.33355  -0.33173  -0.32613
 Alpha  occ. eigenvalues --   -0.32542  -0.32330  -0.31975  -0.31750  -0.30732
 Alpha  occ. eigenvalues --   -0.30297  -0.29499  -0.25835  -0.24999
 Alpha virt. eigenvalues --    0.03030   0.04346   0.07346   0.08120   0.08493
 Alpha virt. eigenvalues --    0.09360   0.09676   0.10799   0.11235   0.11676
 Alpha virt. eigenvalues --    0.12482   0.14083   0.14447   0.14599   0.15084

 Mulliken charges:
               1
     1  N   -0.312820
     2  C    0.181222
     3  C    0.043869
     4  N   -0.260352
     5  C    0.135087
     6  H    0.026095
     7  N   -0.290436
     8  C    0.139099
     9  H    0.007993
    10  N   -0.291986
    11  C    0.250287
    12  C    0.119850
    13  N   -0.056775
    14  H    0.109468
    15  H    0.085493
    16  H    0.024685
    17  H    0.032308
    18  H    0.026616
    19  N   -0.309576
    20  C    0.244687
    21  C    0.180514
    22  N   -0.086520
    23  H    0.111828
    24  H    0.113326
    25  N   -0.301509
    26  C    0.214182
    27  N   -0.134657
    28  H    0.120008
    29  C    0.163643
    30  O   -0.319907
    31  C    0.008700
    32  N   -0.225159
    33  C    0.129243
    34  H    0.024313
    35  H    0.029699
    36  H    0.027719
    37  H    0.024164
    38  H    0.062762
    39  H    0.057794
    40  H    0.071598
    41  H    0.030570
    42  C   -0.111958
    43  O   -0.264551
    44  C    0.167514
    45  H    0.133394
    46  N   -0.124812
    47  O   -0.344602
    48  C    0.345567
    49  H    0.047698
    50  C    0.166413
    51  C    0.040379
    52  N   -0.287111
    53  H    0.037502
    54  H    0.033247
    55  H    0.027528
    56  H    0.125399
    57  H    0.115659
    58  N   -0.064252
    59  C    0.080929
    60  C    0.236222
    61  N   -0.272852
    62  H    0.037536
    63  C    0.168428
    64  N   -0.300473
    65  H    0.034648
    66  C    0.135659
    67  N   -0.266220
    68  C    0.037228
    69  C    0.173088
    70  N   -0.314337
 Sum of Mulliken charges =  -0.00000

 Dipole moment (field-independent basis, Debye):
    X=              8.3141    Y=              5.6956    Z=              2.4918  Tot=             10.3814
 Quadrupole moment (field-independent basis, Debye-Ang):
   XX=           -154.5817   YY=           -217.0081   ZZ=           -254.3973
   XY=             -1.0268   XZ=              3.0055   YZ=             -8.8868

 Normal termination of Gaussian 16 at Thu Jan 25 01:31:58 2018.
