 Gaussian 16, Revision A.03,
 Gaussian 16:  EM64L-G16RevA.03 25-Dec-2016

 ---------------------------------------
 #p wb97xd/cc-pvdz sp scf=(maxcycles=20)
 ---------------------------------------

 ------------------
 Base pair stacking
 ------------------
 Symbolic Z-matrix:
 Charge =  0 Multiplicity = 1

                         Standard orientation:
 ---------------------------------------------------------------------
 Center     Atomic      Atomic             Coordinates (Angstroms)
 Number     Number       Type             X           Y           Z
 ---------------------------------------------------------------------
      1          7           0       -6.484729   -1.665113    0.497266
      2          6           0       -7.887019   -1.214127    0.587953
      3          6           0       -4.292430   -1.770471    0.638757
      4          7           0       -4.700295   -2.955379    0.043470
      5          6           0       -6.004750   -2.844485   -0.017942
      6          1           0       -6.672349   -3.600068   -0.433086
      7          7           0       -2.964968   -0.054948    1.564899
      8          6           0       -4.106063    0.608223    1.778605
      9          1           0       -3.995554    1.584203    2.249254
     10          7           0       -5.357310    0.248490    1.499521
     11          6           0       -5.381218   -0.965118    0.924178
     12          6           0       -3.022610   -1.273418    0.984316
     13          7           0       -1.884615   -1.936955    0.770172
     14          1           0       -1.879860   -2.841854    0.343155
     15          1           0       -0.998509   -1.552381    1.029132
     16          1           0       -8.411409   -1.860844    1.141981
     17          1           0       -7.920273   -0.309700    1.012258
     18          1           0       -8.283531   -1.165157   -0.328763
     19          7           0       -2.634388    3.080986   -1.730205
     20          6           0       -1.329068    2.669891   -1.606947
     21          6           0       -3.099786    4.480241   -1.651437
     22          7           0        2.026216    3.418290   -1.113293
     23          1           0        2.891691    2.921682   -1.053514
     24          1           0        2.065650    4.412612   -1.010945
     25          7           0       -0.260916    3.468713   -1.394871
     26          6           0        0.864441    2.780403   -1.321325
     27          7           0        0.940115    1.414264   -1.445672
     28          1           0        1.843759    0.972115   -1.375780
     29          6           0       -0.145911    0.572436   -1.664191
     30          8           0        0.030955   -0.648205   -1.761612
     31          6           0       -1.361877    1.297476   -1.745500
     32          7           0       -2.661645    0.855858   -1.951599
     33          6           0       -3.380034    1.945737   -1.934832
     34          1           0       -4.462014    1.978376   -2.067173
     35          1           0       -3.748404    4.575556   -0.897098
     36          1           0       -2.317194    5.081228   -1.494518
     37          1           0       -3.546489    4.733450   -2.508848
     38          1           0        6.530688   -0.675075   -0.293108
     39          1           0        6.675290   -0.776937   -2.046209
     40          1           0        5.651550    0.460682   -1.317091
     41          1           0        4.133108   -4.759507   -1.139048
     42          6           0        3.980751   -3.682772   -1.214173
     43          8           0        1.621332   -3.843872   -1.399422
     44          6           0        2.651355   -3.171757   -1.353512
     45          1           0        1.647358   -1.398130   -1.539376
     46          7           0        2.570468   -1.796544   -1.440079
     47          8           0        3.439708    0.300853   -1.490238
     48          6           0        3.611222   -0.902552   -1.406179
     49          1           0        6.046353   -3.173563   -1.073372
     50          6           0        5.016129   -2.835848   -1.177970
     51          6           0        6.005122   -0.555846   -1.228858
     52          7           0        4.861980   -1.471970   -1.269927
     53          1           0        3.714775    3.430924    3.996400
     54          1           0        2.523612    3.695320    2.913190
     55          1           0        4.085026    3.844456    2.461696
     56          1           0        1.637213   -2.983342    0.896964
     57          1           0        3.244814   -2.664330    1.370187
     58          7           0        2.312006   -2.327909    1.236374
     59          6           0        1.983584   -1.061326    1.499182
     60          6           0        2.404518    1.172188    2.203441
     61          7           0        1.143990    1.596154    2.014344
     62          1           0       -0.661923    0.862239    1.381371
     63          6           0        0.380396    0.603353    1.562480
     64          7           0        0.707461   -0.665897    1.298631
     65          1           0        5.529744    1.365729    3.008244
     66          6           0        4.540365    1.042910    2.682864
     67          7           0        4.246018   -0.170484    2.284448
     68          6           0        2.894781   -0.102219    1.977495
     69          6           0        3.446993    3.333444    3.037863
     70          7           0        3.473121    1.907292    2.659188
 ---------------------------------------------------------------------

 SCF Done:  E(RwB97XD) =  -2048.74017433     A.U. after   15 cycles

 The electronic state is 1-A.
 Alpha  occ. eigenvalues --  -19.26245 -19.22951 -19.20873 -14.52961 -14.51612
 Alpha  occ. eigenvalues --  -14.48932 -14.48399 -14.48163 -14.47233 -14.47146
 Alpha  occ. eigenvalues --  -14.46693 -14.44704 -14.43239 -14.43153 -14.42305
 Alpha  occ. eigenvalues --  -14.41630 -14.41027 -14.40957 -14.40469 -14.39712
 Alpha  occ. eigenvalues --  -10.45891 -10.41553 -10.40945 -10.38756 -10.38515
 Alpha  occ. eigenvalues --  -10.38474 -10.37226 -10.36205 -10.35430 -10.34923
 Alpha  occ. eigenvalues --  -10.34671 -10.34563 -10.33698 -10.33396 -10.33257
 Alpha  occ. eigenvalues --  -10.32943 -10.32666 -10.31739 -10.31717 -10.31030
 Alpha  occ. eigenvalues --  -10.30696 -10.28319 -10.28086  -1.19855  -1.14309
 Alpha  occ. eigenvalues --   -1.13959  -1.13469  -1.10957  -1.10774  -1.09840
 Alpha  occ. eigenvalues --   -1.08865  -1.08172  -1.04521  -1.03813  -1.02962
 Alpha  occ. eigenvalues --   -1.00138  -1.00099  -0.99938  -0.98787  -0.96752
 Alpha  occ. eigenvalues --   -0.96568  -0.95727  -0.92163  -0.91683  -0.86713
 Alpha  occ. eigenvalues --   -0.85103  -0.84311  -0.83993  -0.83561  -0.82673
 Alpha  occ. eigenvalues --   -0.81946  -0.79461  -0.76078  -0.74856  -0.74001
 Alpha  occ. eigenvalues --   -0.73849  -0.73775  -0.72467  -0.70626  -0.69470
 Alpha  occ. eigenvalues --   -0.67695  -0.67055  -0.65864  -0.65793  -0.64903
 Alpha  occ. eigenvalues --   -0.64068  -0.63317  -0.62955  -0.62252  -0.62043
 Alpha  occ. eigenvalues --   -0.60157  -0.60004  -0.59850  -0.59582  -0.58945
 Alpha  occ. eigenvalues --   -0.58739  -0.58591  -0.56777  -0.56344  -0.56136
 Alpha  occ. eigenvalues --   -0.56075  -0.54959  -0.54901  -0.54722  -0.54353
 Alpha  occ. eigenvalues --   -0.53960  -0.53764  -0.53228  -0.52902  -0.52802
 Alpha  occ. eigenvalues --   -0.52705  -0.51917  -0.51412  -0.50506  -0.50344
 Alpha  occ. eigenvalues --   -0.49935  -0.49810  -0.49342  -0.49142  -0.49084
 Alpha  occ. eigenvalues --   -0.48530  -0.48363  -0.48083  -0.47851  -0.47712
 Alpha  occ. eigenvalues --   -0.46555  -0.45713  -0.44676  -0.44625  -0.43611
 Alpha  occ. eigenvalues --   -0.40692  -0.39839  -0.39784  -0.37534  -0.37487
 Alpha  occ. eigenvalues --   -0.37312  -0.36755  -0.36567  -0.35746  -0.34493
 Alpha  occ. eigenvalues --   -0.34061  -0.33863  -0.33288  -0.33124  -0.32982
 Alpha  occ. eigenvalues --   -0.32804  -0.32720  -0.32533  -0.31998  -0.30502
 Alpha  occ. eigenvalues --   -0.29963  -0.28963  -0.25729  -0.25247
 Alpha virt. eigenvalues --    0.02201   0.04967   0.07317   0.08409   0.08622
 Alpha virt. eigenvalues --    0.09058   0.09500   0.11348   0.11571   0.11957
 Alpha virt. eigenvalues --    0.12647   0.14240   0.14780   0.14923   0.15328

 Mulliken charges:
               1
     1  N   -0.311404
     2  C    0.181015
     3  C    0.039220
     4  N   -0.257967
     5  C    0.132497
     6  H    0.024886
     7  N   -0.295806
     8  C    0.134916
     9  H    0.008645
    10  N   -0.292794
    11  C    0.241287
    12  C    0.122228
    13  N   -0.050934
    14  H    0.112317
    15  H    0.092297
    16  H    0.024727
    17  H    0.033576
    18  H    0.024677
    19  N   -0.312451
    20  C    0.249776
    21  C    0.181081
    22  N   -0.123608
    23  H    0.114421
    24  H    0.116917
    25  N   -0.308112
    26  C    0.245505
    27  N   -0.140265
    28  H    0.113434
    29  C    0.174738
    30  O   -0.320755
    31  C   -0.000981
    32  N   -0.224383
    33  C    0.131260
    34  H    0.028693
    35  H    0.029937
    36  H    0.028457
    37  H    0.024996
    38  H    0.065606
    39  H    0.059001
    40  H    0.074140
    41  H    0.032421
    42  C   -0.105989
    43  O   -0.268647
    44  C    0.126756
    45  H    0.136002
    46  N   -0.107546
    47  O   -0.347402
    48  C    0.351269
    49  H    0.051514
    50  C    0.170298
    51  C    0.042434
    52  N   -0.286146
    53  H    0.032327
    54  H    0.043912
    55  H    0.021913
    56  H    0.129334
    57  H    0.111126
    58  N   -0.059716
    59  C    0.086222
    60  C    0.239947
    61  N   -0.266678
    62  H    0.041208
    63  C    0.166597
    64  N   -0.301062
    65  H    0.031581
    66  C    0.134643
    67  N   -0.269712
    68  C    0.025736
    69  C    0.179914
    70  N   -0.313047
 Sum of Mulliken charges =  -0.00000

 Dipole moment (field-independent basis, Debye):
    X=              9.0642    Y=              5.7551    Z=              1.0150  Tot=             10.7848
 Quadrupole moment (field-independent basis, Debye-Ang):
   XX=           -152.3335   YY=           -216.1375   ZZ=           -249.4717
   XY=             -1.7455   XZ=              7.0798   YZ=             -3.0306

 Normal termination of Gaussian 16 at Wed Jan 24 21:39:04 2018.
