 Gaussian 16, Revision A.03,
 Gaussian 16:  EM64L-G16RevA.03 25-Dec-2016

 ---------------------------------------
 #p wb97xd/cc-pvdz sp scf=(maxcycles=20)
 ---------------------------------------

 ------------------
 Base pair stacking
 ------------------
 Symbolic Z-matrix:
 Charge =  0 Multiplicity = 1

                         Standard orientation:
 ---------------------------------------------------------------------
 Center     Atomic      Atomic             Coordinates (Angstroms)
 Number     Number       Type             X           Y           Z
 ---------------------------------------------------------------------
      1          7           0       -6.691501   -1.580565    0.419094
      2          6           0       -8.079174   -1.090113    0.310316
      3          6           0       -4.514219   -1.694938    0.708354
      4          7           0       -4.935001   -2.983998    0.415120
      5          6           0       -6.229898   -2.863502    0.252591
      6          1           0       -6.903198   -3.685543    0.007948
      7          7           0       -3.172634    0.171462    1.237157
      8          6           0       -4.297983    0.892771    1.207515
      9          1           0       -4.175427    1.954518    1.417134
     10          7           0       -5.546134    0.501292    0.958971
     11          6           0       -5.585723   -0.818949    0.714367
     12          6           0       -3.245812   -1.154079    0.986822
     13          7           0       -2.123564   -1.875793    1.015947
     14          1           0       -2.130637   -2.860201    0.836766
     15          1           0       -1.237956   -1.457328    1.217765
     16          1           0       -8.653639   -1.559666    0.980896
     17          1           0       -8.100428   -0.106231    0.485375
     18          1           0       -8.427684   -1.270912   -0.609385
     19          7           0       -2.452150    2.833468   -1.754960
     20          6           0       -1.149584    2.446658   -1.550567
     21          6           0       -2.959483    4.215899   -1.644609
     22          7           0        2.136759    3.245746   -0.761158
     23          1           0        3.008072    2.766693   -0.658413
     24          1           0        2.141608    4.234257   -0.607735
     25          7           0       -0.122586    3.257971   -1.217266
     26          6           0        1.011824    2.592769   -1.089888
     27          7           0        1.133321    1.236772   -1.274378
     28          1           0        2.040462    0.812463   -1.155920
     29          6           0        0.090159    0.382442   -1.617579
     30          8           0        0.306558   -0.827327   -1.760284
     31          6           0       -1.134962    1.082632   -1.757948
     32          7           0       -2.402817    0.622359   -2.085942
     33          6           0       -3.149278    1.693257   -2.072107
     34          1           0       -4.218414    1.707765   -2.286596
     35          1           0       -3.666333    4.258021   -0.939351
     36          1           0       -2.207573    4.825940   -1.398115
     37          1           0       -3.345741    4.501911   -2.520859
     38          1           0        6.672976   -0.779674    0.207030
     39          1           0        6.954217   -0.789275   -1.532356
     40          1           0        5.844856    0.386056   -0.825768
     41          1           0        4.457411   -4.869857   -1.021072
     42          6           0        4.282521   -3.794471   -1.055292
     43          8           0        1.949407   -3.999982   -1.431409
     44          6           0        2.954533   -3.307634   -1.272713
     45          1           0        1.920644   -1.550333   -1.449590
     46          7           0        2.843753   -1.932022   -1.298221
     47          8           0        3.657870    0.184591   -1.178274
     48          6           0        3.854553   -1.017280   -1.139839
     49          1           0        6.316890   -3.245874   -0.729378
     50          6           0        5.289054   -2.926974   -0.897333
     51          6           0        6.217687   -0.625267   -0.759896
     52          7           0        5.105971   -1.564079   -0.934467
     53          1           0        3.500976    4.016598    3.070223
     54          1           0        2.375455    4.018631    1.889006
     55          1           0        3.961729    4.010879    1.504631
     56          1           0        1.347128   -2.932601    1.609032
     57          1           0        2.939840   -2.538253    2.075768
     58          7           0        2.027711   -2.227020    1.806756
     59          6           0        1.733082   -0.928504    1.716041
     60          6           0        2.199756    1.401116    1.845729
     61          7           0        0.966463    1.789958    1.482107
     62          1           0       -0.831401    0.958081    0.956487
     63          6           0        0.190518    0.731494    1.257486
     64          7           0        0.483746   -0.569832    1.347799
     65          1           0        5.286189    1.725944    2.751589
     66          6           0        4.303052    1.352267    2.463907
     67          7           0        3.984771    0.084054    2.374431
     68          6           0        2.653806    0.100946    1.983295
     69          6           0        3.277699    3.680661    2.155191
     70          7           0        3.270541    2.204877    2.157804
 ---------------------------------------------------------------------

 SCF Done:  E(RwB97XD) =  -2048.73664492     A.U. after   15 cycles

 The electronic state is 1-A.
 Alpha  occ. eigenvalues --  -19.25979 -19.22237 -19.20701 -14.52563 -14.51823
 Alpha  occ. eigenvalues --  -14.48832 -14.48801 -14.48004 -14.47234 -14.46984
 Alpha  occ. eigenvalues --  -14.46837 -14.44793 -14.43263 -14.43005 -14.42235
 Alpha  occ. eigenvalues --  -14.42116 -14.41500 -14.40972 -14.40794 -14.40187
 Alpha  occ. eigenvalues --  -10.45614 -10.41342 -10.40335 -10.38981 -10.38292
 Alpha  occ. eigenvalues --  -10.38003 -10.37372 -10.36274 -10.35453 -10.35262
 Alpha  occ. eigenvalues --  -10.34674 -10.34425 -10.34160 -10.33658 -10.33428
 Alpha  occ. eigenvalues --  -10.33242 -10.33157 -10.31825 -10.31294 -10.31011
 Alpha  occ. eigenvalues --  -10.30907 -10.28596 -10.28188  -1.19554  -1.14492
 Alpha  occ. eigenvalues --   -1.13327  -1.13235  -1.11414  -1.10632  -1.09453
 Alpha  occ. eigenvalues --   -1.08741  -1.08294  -1.05018  -1.03869  -1.02651
 Alpha  occ. eigenvalues --   -1.00481  -1.00400  -0.99942  -0.98599  -0.97029
 Alpha  occ. eigenvalues --   -0.96601  -0.95860  -0.92672  -0.91222  -0.86912
 Alpha  occ. eigenvalues --   -0.85391  -0.84180  -0.84000  -0.83722  -0.82554
 Alpha  occ. eigenvalues --   -0.82372  -0.79034  -0.76242  -0.74730  -0.73940
 Alpha  occ. eigenvalues --   -0.73829  -0.73506  -0.72956  -0.71115  -0.69654
 Alpha  occ. eigenvalues --   -0.67548  -0.66694  -0.66361  -0.65997  -0.64582
 Alpha  occ. eigenvalues --   -0.63870  -0.63518  -0.62810  -0.62735  -0.61987
 Alpha  occ. eigenvalues --   -0.60309  -0.59891  -0.59800  -0.59641  -0.59321
 Alpha  occ. eigenvalues --   -0.58833  -0.58578  -0.56836  -0.56572  -0.56436
 Alpha  occ. eigenvalues --   -0.56083  -0.55463  -0.55153  -0.54617  -0.54472
 Alpha  occ. eigenvalues --   -0.53757  -0.53541  -0.53070  -0.53016  -0.52610
 Alpha  occ. eigenvalues --   -0.52471  -0.52066  -0.51806  -0.50791  -0.50249
 Alpha  occ. eigenvalues --   -0.50243  -0.49558  -0.49326  -0.48952  -0.48746
 Alpha  occ. eigenvalues --   -0.48698  -0.48357  -0.48150  -0.48001  -0.47495
 Alpha  occ. eigenvalues --   -0.47012  -0.45678  -0.45103  -0.44197  -0.43338
 Alpha  occ. eigenvalues --   -0.41221  -0.39880  -0.39538  -0.37551  -0.37308
 Alpha  occ. eigenvalues --   -0.37239  -0.36985  -0.36703  -0.35814  -0.34361
 Alpha  occ. eigenvalues --   -0.33881  -0.33575  -0.33473  -0.33378  -0.33101
 Alpha  occ. eigenvalues --   -0.32742  -0.32447  -0.32138  -0.31873  -0.30936
 Alpha  occ. eigenvalues --   -0.30414  -0.29011  -0.25830  -0.25513
 Alpha virt. eigenvalues --    0.02849   0.04720   0.07535   0.07844   0.08563
 Alpha virt. eigenvalues --    0.09280   0.09466   0.10910   0.11420   0.11923
 Alpha virt. eigenvalues --    0.12661   0.13979   0.14449   0.14709   0.14828

 Mulliken charges:
               1
     1  N   -0.311528
     2  C    0.180984
     3  C    0.035867
     4  N   -0.259364
     5  C    0.133954
     6  H    0.026681
     7  N   -0.291141
     8  C    0.132369
     9  H    0.008722
    10  N   -0.290730
    11  C    0.243454
    12  C    0.125434
    13  N   -0.055427
    14  H    0.109141
    15  H    0.089120
    16  H    0.025438
    17  H    0.034009
    18  H    0.026219
    19  N   -0.311161
    20  C    0.237795
    21  C    0.181150
    22  N   -0.107758
    23  H    0.115457
    24  H    0.114896
    25  N   -0.292500
    26  C    0.216729
    27  N   -0.119237
    28  H    0.115068
    29  C    0.144390
    30  O   -0.316745
    31  C    0.012581
    32  N   -0.222434
    33  C    0.128802
    34  H    0.029504
    35  H    0.029429
    36  H    0.027898
    37  H    0.024712
    38  H    0.063234
    39  H    0.058418
    40  H    0.072835
    41  H    0.031443
    42  C   -0.114080
    43  O   -0.267508
    44  C    0.166329
    45  H    0.135675
    46  N   -0.130248
    47  O   -0.348650
    48  C    0.358066
    49  H    0.048795
    50  C    0.172235
    51  C    0.043099
    52  N   -0.292477
    53  H    0.035751
    54  H    0.042902
    55  H    0.015976
    56  H    0.126713
    57  H    0.113766
    58  N   -0.064570
    59  C    0.094997
    60  C    0.220781
    61  N   -0.257670
    62  H    0.055685
    63  C    0.155739
    64  N   -0.298425
    65  H    0.031112
    66  C    0.132966
    67  N   -0.267406
    68  C    0.034512
    69  C    0.168722
    70  N   -0.310493
 Sum of Mulliken charges =  -0.00000

 Dipole moment (field-independent basis, Debye):
    X=              8.2465    Y=              5.4848    Z=              2.4122  Tot=             10.1934
 Quadrupole moment (field-independent basis, Debye-Ang):
   XX=           -150.3579   YY=           -217.6784   ZZ=           -252.5533
   XY=              0.9630   XZ=              9.5417   YZ=             -8.6323

 Normal termination of Gaussian 16 at Wed Jan 24 09:17:35 2018.
