 Gaussian 16, Revision A.03,
 Gaussian 16:  EM64L-G16RevA.03 25-Dec-2016

 ---------------------------------------
 #p wb97xd/cc-pvdz sp scf=(maxcycles=20)
 ---------------------------------------

 ------------------
 Base pair stacking
 ------------------
 Symbolic Z-matrix:
 Charge =  0 Multiplicity = 1

                         Standard orientation:
 ---------------------------------------------------------------------
 Center     Atomic      Atomic             Coordinates (Angstroms)
 Number     Number       Type             X           Y           Z
 ---------------------------------------------------------------------
      1          7           0        4.244226   -2.157825   -1.899019
      2          6           0        5.632812   -1.791546   -2.239118
      3          6           0        2.072273   -2.095317   -1.558379
      4          7           0        2.478462   -3.382601   -1.237982
      5          6           0        3.770731   -3.368731   -1.456029
      6          1           0        4.433513   -4.221949   -1.308806
      7          7           0        0.754004   -0.173064   -1.919013
      8          6           0        1.883444    0.438656   -2.290128
      9          1           0        1.772234    1.481051   -2.585599
     10          7           0        3.123808   -0.041675   -2.350781
     11          6           0        3.149628   -1.328858   -1.967468
     12          6           0        0.813253   -1.468084   -1.538877
     13          7           0       -0.313105   -2.080448   -1.168072
     14          1           0       -0.316226   -3.038418   -0.879101
     15          1           0       -1.191739   -1.602801   -1.166487
     16          1           0        5.961609   -2.377423   -2.979944
     17          1           0        5.664179   -0.836352   -2.531927
     18          1           0        6.217511   -1.911847   -1.436837
     19          7           0        5.030523    2.707798    0.668849
     20          6           0        3.699890    2.422028    0.858086
     21          6           0        5.581358    4.042423    0.358910
     22          7           0        0.389654    3.463813    0.995128
     23          1           0       -0.506266    3.053866    1.163963
     24          1           0        0.410869    4.445899    0.805982
     25          7           0        2.680271    3.305329    0.793208
     26          6           0        1.512727    2.730368    1.020985
     27          7           0        1.353711    1.392869    1.291775
     28          1           0        0.422932    1.039987    1.453279
     29          6           0        2.388583    0.465628    1.363475
     30          8           0        2.137235   -0.719485    1.614600
     31          6           0        3.648990    1.068475    1.120972
     32          7           0        4.922051    0.515614    1.097249
     33          6           0        5.707050    1.522780    0.825936
     34          1           0        6.791219    1.456442    0.728718
     35          1           0        6.058920    4.012196   -0.518484
     36          1           0        4.835280    4.705057    0.308339
     37          1           0        6.220561    4.315966    1.076822
     38          1           0       -4.506006   -0.206186    1.526350
     39          1           0       -4.279588   -0.154691    3.272985
     40          1           0       -3.337853    0.912149    2.230708
     41          1           0       -2.325986   -4.432306    2.257094
     42          6           0       -2.073329   -3.373863    2.193139
     43          8           0        0.249669   -3.757019    1.903313
     44          6           0       -0.707634   -2.990156    2.004793
     45          1           0        0.454830   -1.317728    1.804808
     46          7           0       -0.497614   -1.627591    1.937398
     47          8           0       -1.160986    0.544198    1.959374
     48          6           0       -1.444591   -0.638645    2.031003
     49          1           0       -4.072280   -2.671612    2.431555
     50          6           0       -3.019430   -2.432327    2.288025
     51          6           0       -3.784238   -0.067316    2.317446
     52          7           0       -2.737876   -1.087967    2.211901
     53          1           0       -5.913278    4.080489   -2.289077
     54          1           0       -4.499463    4.094327   -1.474811
     55          1           0       -5.907235    4.273976   -0.668603
     56          1           0       -3.867225   -2.860221   -0.644170
     57          1           0       -5.499242   -2.366387   -0.696509
     58          7           0       -4.530800   -2.117013   -0.730446
     59          6           0       -4.142585   -0.849378   -0.883949
     60          6           0       -4.481423    1.489255   -1.162749
     61          7           0       -3.174010    1.794750   -1.204816
     62          1           0       -1.356125    0.854083   -1.099708
     63          6           0       -2.433445    0.695684   -1.076224
     64          7           0       -2.820382   -0.574816   -0.922384
     65          1           0       -7.671675    2.010870   -1.211899
     66          6           0       -6.672479    1.576966   -1.164091
     67          7           0       -6.421193    0.299690   -1.012103
     68          6           0       -5.035586    0.230298   -1.009582
     69          6           0       -5.459297    3.817827   -1.437663
     70          7           0       -5.544732    2.354998   -1.262037
 ---------------------------------------------------------------------

 SCF Done:  E(RwB97XD) =  -2048.74688675     A.U. after   15 cycles

 The electronic state is 1-A.
 Alpha  occ. eigenvalues --  -19.25343 -19.21455 -19.20649 -14.52529 -14.51888
 Alpha  occ. eigenvalues --  -14.49047 -14.49026 -14.47939 -14.47225 -14.46864
 Alpha  occ. eigenvalues --  -14.46679 -14.45486 -14.44956 -14.44743 -14.42766
 Alpha  occ. eigenvalues --  -14.42116 -14.41263 -14.40713 -14.40576 -14.40358
 Alpha  occ. eigenvalues --  -10.44916 -10.41297 -10.40511 -10.39560 -10.38282
 Alpha  occ. eigenvalues --  -10.38070 -10.37536 -10.37481 -10.36226 -10.35468
 Alpha  occ. eigenvalues --  -10.34525 -10.34504 -10.33884 -10.33666 -10.33347
 Alpha  occ. eigenvalues --  -10.33005 -10.32871 -10.32852 -10.31171 -10.30812
 Alpha  occ. eigenvalues --  -10.29944 -10.28290 -10.28132  -1.18873  -1.15337
 Alpha  occ. eigenvalues --   -1.13265  -1.12468  -1.10779  -1.10619  -1.09868
 Alpha  occ. eigenvalues --   -1.08793  -1.08599  -1.05351  -1.04981  -1.01889
 Alpha  occ. eigenvalues --   -1.01127  -1.00466  -0.99773  -0.98652  -0.97365
 Alpha  occ. eigenvalues --   -0.96817  -0.96303  -0.92680  -0.90688  -0.87883
 Alpha  occ. eigenvalues --   -0.86020  -0.84320  -0.83342  -0.83067  -0.82696
 Alpha  occ. eigenvalues --   -0.81631  -0.78428  -0.77394  -0.75198  -0.74762
 Alpha  occ. eigenvalues --   -0.73683  -0.72839  -0.72642  -0.70840  -0.70684
 Alpha  occ. eigenvalues --   -0.67461  -0.67217  -0.66101  -0.66030  -0.64584
 Alpha  occ. eigenvalues --   -0.64406  -0.63562  -0.62651  -0.62517  -0.61855
 Alpha  occ. eigenvalues --   -0.60875  -0.60519  -0.60027  -0.59606  -0.59166
 Alpha  occ. eigenvalues --   -0.59078  -0.58388  -0.56844  -0.56324  -0.55715
 Alpha  occ. eigenvalues --   -0.55561  -0.55417  -0.55335  -0.54837  -0.54166
 Alpha  occ. eigenvalues --   -0.53855  -0.53603  -0.53447  -0.53037  -0.53028
 Alpha  occ. eigenvalues --   -0.52463  -0.51938  -0.51152  -0.50339  -0.50217
 Alpha  occ. eigenvalues --   -0.50095  -0.49734  -0.49467  -0.49091  -0.48827
 Alpha  occ. eigenvalues --   -0.48573  -0.48153  -0.47961  -0.47785  -0.47188
 Alpha  occ. eigenvalues --   -0.46517  -0.45602  -0.45446  -0.44670  -0.43523
 Alpha  occ. eigenvalues --   -0.41028  -0.40918  -0.39048  -0.38092  -0.37886
 Alpha  occ. eigenvalues --   -0.37452  -0.37367  -0.36681  -0.35364  -0.35220
 Alpha  occ. eigenvalues --   -0.34781  -0.34095  -0.33163  -0.33089  -0.32980
 Alpha  occ. eigenvalues --   -0.32650  -0.32502  -0.31972  -0.31473  -0.30530
 Alpha  occ. eigenvalues --   -0.30423  -0.30180  -0.25987  -0.25309
 Alpha virt. eigenvalues --    0.03368   0.03808   0.06646   0.08241   0.08857
 Alpha virt. eigenvalues --    0.09157   0.09695   0.10368   0.11153   0.11417
 Alpha virt. eigenvalues --    0.13712   0.14331   0.14515   0.14830   0.14967

 Mulliken charges:
               1
     1  N   -0.311400
     2  C    0.184212
     3  C    0.060569
     4  N   -0.255719
     5  C    0.146357
     6  H    0.027562
     7  N   -0.295842
     8  C    0.127259
     9  H    0.011489
    10  N   -0.280059
    11  C    0.257252
    12  C    0.084525
    13  N   -0.070306
    14  H    0.114043
    15  H    0.082055
    16  H    0.019396
    17  H    0.030802
    18  H    0.032961
    19  N   -0.311371
    20  C    0.254668
    21  C    0.181110
    22  N   -0.123526
    23  H    0.120541
    24  H    0.117938
    25  N   -0.312654
    26  C    0.247330
    27  N   -0.143837
    28  H    0.119805
    29  C    0.186784
    30  O   -0.319886
    31  C   -0.007507
    32  N   -0.233719
    33  C    0.124590
    34  H    0.022841
    35  H    0.027541
    36  H    0.030064
    37  H    0.025129
    38  H    0.063253
    39  H    0.057981
    40  H    0.076264
    41  H    0.026952
    42  C   -0.118167
    43  O   -0.255680
    44  C    0.161537
    45  H    0.136206
    46  N   -0.123457
    47  O   -0.351650
    48  C    0.354692
    49  H    0.040603
    50  C    0.163064
    51  C    0.037358
    52  N   -0.278537
    53  H    0.034212
    54  H    0.040738
    55  H    0.030288
    56  H    0.117194
    57  H    0.119775
    58  N   -0.064745
    59  C    0.072985
    60  C    0.247983
    61  N   -0.272810
    62  H    0.031555
    63  C    0.177976
    64  N   -0.312664
    65  H    0.039689
    66  C    0.141898
    67  N   -0.260479
    68  C    0.026738
    69  C    0.180506
    70  N   -0.312258
 Sum of Mulliken charges =  -0.00000

 Dipole moment (field-independent basis, Debye):
    X=             -8.3401    Y=              6.6301    Z=             -0.3327  Tot=             10.6596
 Quadrupole moment (field-independent basis, Debye-Ang):
   XX=           -169.2893   YY=           -214.4953   ZZ=           -249.6091
   XY=              6.4606   XZ=            -17.8064   YZ=              5.0340

 Normal termination of Gaussian 16 at Thu Jan 25 05:07:47 2018.
