 Gaussian 16, Revision A.03,
 Gaussian 16:  EM64L-G16RevA.03 25-Dec-2016

 ---------------------------------------
 #p wb97xd/cc-pvdz sp scf=(maxcycles=20)
 ---------------------------------------

 ------------------
 Base pair stacking
 ------------------
 Symbolic Z-matrix:
 Charge =  0 Multiplicity = 1

                         Standard orientation:
 ---------------------------------------------------------------------
 Center     Atomic      Atomic             Coordinates (Angstroms)
 Number     Number       Type             X           Y           Z
 ---------------------------------------------------------------------
      1          7           0        5.213228   -1.791559   -1.405692
      2          6           0        6.618834   -1.343539   -1.366368
      3          6           0        3.014790   -1.828780   -1.458382
      4          7           0        3.425670   -3.153865   -1.466208
      5          6           0        4.733707   -3.078403   -1.434150
      6          1           0        5.404400   -3.938102   -1.429631
      7          7           0        1.680828    0.116333   -1.464237
      8          6           0        2.824183    0.808433   -1.427909
      9          1           0        2.711838    1.891711   -1.416205
     10          7           0        4.079587    0.365370   -1.403981
     11          6           0        4.105454   -0.977562   -1.421191
     12          6           0        1.740535   -1.233203   -1.480735
     13          7           0        0.600301   -1.925816   -1.516998
     14          1           0        0.596941   -2.926334   -1.530353
     15          1           0       -0.288953   -1.468499   -1.532045
     16          1           0        7.100223   -1.680313   -2.175707
     17          1           0        6.650786   -0.344589   -1.352351
     18          1           0        7.061948   -1.701083   -0.544292
     19          7           0        4.114323    2.678299    1.139723
     20          6           0        2.783174    2.338537    1.113805
     21          6           0        4.662217    4.009332    0.809748
     22          7           0       -0.532880    3.208636    0.558421
     23          1           0       -1.428578    2.766980    0.601903
     24          1           0       -0.514186    4.170731    0.285022
     25          7           0        1.760311    3.156955    0.785202
     26          6           0        0.593162    2.541548    0.853278
     27          7           0        0.437461    1.225402    1.215247
     28          1           0       -0.493288    0.838017    1.239975
     29          6           0        1.475699    0.364661    1.557371
     30          8           0        1.227188   -0.806523    1.869310
     31          6           0        2.735741    1.011564    1.488876
     32          7           0        4.011435    0.527973    1.745114
     33          6           0        4.794558    1.549105    1.525517
     34          1           0        5.879927    1.533142    1.630422
     35          1           0        5.293062    3.930144    0.038668
     36          1           0        3.913720    4.624141    0.564741
     37          1           0        5.148567    4.377080    1.601611
     38          1           0       -5.302210   -0.660720    0.546578
     39          1           0       -5.401326   -0.448385    2.292924
     40          1           0       -4.325376    0.574809    1.340684
     41          1           0       -3.136067   -4.685732    2.047818
     42          6           0       -2.915781   -3.624546    1.931293
     43          8           0       -0.566283   -3.905498    2.098806
     44          6           0       -1.554015   -3.185389    1.955188
     45          1           0       -0.438018   -1.475999    1.810675
     46          7           0       -1.386358   -1.824213    1.799194
     47          8           0       -2.123384    0.302700    1.498745
     48          6           0       -2.370825   -0.883263    1.628902
     49          1           0       -4.949469   -3.013065    1.741509
     50          6           0       -3.897841   -2.730611    1.766857
     51          6           0       -4.743105   -0.416283    1.437479
     52          7           0       -3.657629   -1.384445    1.616815
     53          1           0       -5.033704    4.301470   -1.750455
     54          1           0       -3.784005    4.066106   -0.728221
     55          1           0       -5.317030    3.998598   -0.172034
     56          1           0       -2.945806   -2.817867   -1.896007
     57          1           0       -4.567695   -2.326942   -2.092383
     58          7           0       -3.622094   -2.081411   -1.876092
     59          6           0       -3.279271   -0.827304   -1.574644
     60          6           0       -3.685407    1.487766   -1.204163
     61          7           0       -2.407857    1.788380   -0.917909
     62          1           0       -0.589139    0.854967   -0.771001
     63          6           0       -1.644736    0.699619   -0.989717
     64          7           0       -1.986218   -0.557329   -1.291471
     65          1           0       -6.842079    2.008248   -1.669641
     66          6           0       -5.845004    1.577477   -1.573597
     67          7           0       -5.558000    0.312985   -1.764295
     68          6           0       -4.191845    0.242466   -1.533225
     69          6           0       -4.720293    3.793715   -0.947986
     70          7           0       -4.759000    2.346022   -1.232060
 ---------------------------------------------------------------------

 SCF Done:  E(RwB97XD) =  -2048.73747281     A.U. after   15 cycles

 The electronic state is 1-A.
 Alpha  occ. eigenvalues --  -19.25263 -19.21511 -19.20245 -14.53037 -14.52052
 Alpha  occ. eigenvalues --  -14.49045 -14.48380 -14.48363 -14.47368 -14.46272
 Alpha  occ. eigenvalues --  -14.45949 -14.45164 -14.44856 -14.44838 -14.42716
 Alpha  occ. eigenvalues --  -14.41463 -14.41089 -14.40603 -14.40416 -14.40137
 Alpha  occ. eigenvalues --  -10.44962 -10.40655 -10.40567 -10.39644 -10.38523
 Alpha  occ. eigenvalues --  -10.37798 -10.37794 -10.37499 -10.36455 -10.35498
 Alpha  occ. eigenvalues --  -10.34511 -10.34493 -10.33865 -10.33765 -10.33167
 Alpha  occ. eigenvalues --  -10.33056 -10.32959 -10.32783 -10.30817 -10.30632
 Alpha  occ. eigenvalues --  -10.30569 -10.28286 -10.27578  -1.19076  -1.15759
 Alpha  occ. eigenvalues --   -1.12734  -1.12547  -1.10974  -1.10172  -1.09949
 Alpha  occ. eigenvalues --   -1.08947  -1.07964  -1.05544  -1.04977  -1.02009
 Alpha  occ. eigenvalues --   -1.01554  -1.00475  -0.98866  -0.98096  -0.97509
 Alpha  occ. eigenvalues --   -0.96696  -0.96175  -0.92660  -0.90718  -0.88250
 Alpha  occ. eigenvalues --   -0.86501  -0.83752  -0.83543  -0.83154  -0.82148
 Alpha  occ. eigenvalues --   -0.82020  -0.78517  -0.77649  -0.75623  -0.74158
 Alpha  occ. eigenvalues --   -0.73027  -0.72874  -0.72827  -0.71110  -0.70881
 Alpha  occ. eigenvalues --   -0.67585  -0.66707  -0.66244  -0.66083  -0.64954
 Alpha  occ. eigenvalues --   -0.64079  -0.63411  -0.62682  -0.62495  -0.61163
 Alpha  occ. eigenvalues --   -0.60963  -0.60786  -0.60668  -0.59875  -0.59361
 Alpha  occ. eigenvalues --   -0.59077  -0.57633  -0.56898  -0.56222  -0.55899
 Alpha  occ. eigenvalues --   -0.55863  -0.55788  -0.55565  -0.54671  -0.54432
 Alpha  occ. eigenvalues --   -0.53786  -0.53683  -0.53246  -0.53201  -0.52858
 Alpha  occ. eigenvalues --   -0.52510  -0.51965  -0.51522  -0.50676  -0.50201
 Alpha  occ. eigenvalues --   -0.49942  -0.49864  -0.49668  -0.48956  -0.48868
 Alpha  occ. eigenvalues --   -0.48408  -0.48039  -0.47890  -0.47174  -0.46947
 Alpha  occ. eigenvalues --   -0.46669  -0.45633  -0.45033  -0.44131  -0.43536
 Alpha  occ. eigenvalues --   -0.41532  -0.40888  -0.39066  -0.38275  -0.38155
 Alpha  occ. eigenvalues --   -0.37559  -0.36862  -0.36315  -0.35372  -0.35263
 Alpha  occ. eigenvalues --   -0.34980  -0.33549  -0.33373  -0.32893  -0.32683
 Alpha  occ. eigenvalues --   -0.32261  -0.31921  -0.31743  -0.31508  -0.30653
 Alpha  occ. eigenvalues --   -0.30469  -0.30275  -0.25764  -0.24753
 Alpha virt. eigenvalues --    0.02813   0.04059   0.05965   0.08219   0.09023
 Alpha virt. eigenvalues --    0.09420   0.10010   0.10329   0.11165   0.11789
 Alpha virt. eigenvalues --    0.12617   0.14029   0.14628   0.15038   0.15344

 Mulliken charges:
               1
     1  N   -0.314057
     2  C    0.183440
     3  C    0.049259
     4  N   -0.263380
     5  C    0.138888
     6  H    0.026104
     7  N   -0.293169
     8  C    0.135343
     9  H    0.014924
    10  N   -0.280920
    11  C    0.264561
    12  C    0.100282
    13  N   -0.062200
    14  H    0.107355
    15  H    0.079690
    16  H    0.022470
    17  H    0.029951
    18  H    0.029533
    19  N   -0.296464
    20  C    0.217726
    21  C    0.180667
    22  N   -0.091188
    23  H    0.108104
    24  H    0.109292
    25  N   -0.301345
    26  C    0.215158
    27  N   -0.137865
    28  H    0.114564
    29  C    0.189141
    30  O   -0.324093
    31  C   -0.017003
    32  N   -0.220967
    33  C    0.130423
    34  H    0.017348
    35  H    0.028497
    36  H    0.027570
    37  H    0.023310
    38  H    0.060573
    39  H    0.057916
    40  H    0.073359
    41  H    0.029171
    42  C   -0.114382
    43  O   -0.261766
    44  C    0.178835
    45  H    0.132155
    46  N   -0.127883
    47  O   -0.337880
    48  C    0.340281
    49  H    0.044140
    50  C    0.165332
    51  C    0.041578
    52  N   -0.282707
    53  H    0.036437
    54  H    0.034831
    55  H    0.032759
    56  H    0.119784
    57  H    0.118251
    58  N   -0.060001
    59  C    0.089485
    60  C    0.263447
    61  N   -0.291005
    62  H    0.050097
    63  C    0.172910
    64  N   -0.304192
    65  H    0.040127
    66  C    0.135769
    67  N   -0.256856
    68  C    0.008157
    69  C    0.181569
    70  N   -0.311241
 Sum of Mulliken charges =  -0.00000

 Dipole moment (field-independent basis, Debye):
    X=             -8.7274    Y=              5.7912    Z=             -2.8804  Tot=             10.8629
 Quadrupole moment (field-independent basis, Debye-Ang):
   XX=           -159.8090   YY=           -218.1184   ZZ=           -255.6072
   XY=              3.8842   XZ=             -9.0429   YZ=             11.3512

 Normal termination of Gaussian 16 at Wed Jan 24 21:27:55 2018.
