 Gaussian 16, Revision A.03,
 Gaussian 16:  EM64L-G16RevA.03 25-Dec-2016

 ---------------------------------------
 #p wb97xd/cc-pvdz sp scf=(maxcycles=20)
 ---------------------------------------

 ------------------
 Base pair stacking
 ------------------
 Symbolic Z-matrix:
 Charge =  0 Multiplicity = 1

                         Standard orientation:
 ---------------------------------------------------------------------
 Center     Atomic      Atomic             Coordinates (Angstroms)
 Number     Number       Type             X           Y           Z
 ---------------------------------------------------------------------
      1          7           0       -5.605350   -2.000719    1.111882
      2          6           0       -7.004899   -1.614648    1.376910
      3          6           0       -3.408144   -2.022869    1.016542
      4          7           0       -3.835374   -3.186537    0.393595
      5          6           0       -5.142012   -3.126623    0.475962
      6          1           0       -5.823173   -3.883533    0.086031
      7          7           0       -2.050437   -0.311202    1.905250
      8          6           0       -3.184781    0.290120    2.278446
      9          1           0       -3.058987    1.240370    2.795595
     10          7           0       -4.445258   -0.104313    2.109529
     11          6           0       -4.487829   -1.281796    1.464438
     12          6           0       -2.126929   -1.494633    1.258170
     13          7           0       -0.995714   -2.096418    0.884831
     14          1           0       -1.004812   -2.973559    0.403417
     15          1           0       -0.101081   -1.691234    1.073505
     16          1           0       -7.444017   -2.314204    1.940792
     17          1           0       -7.024396   -0.739006    1.858572
     18          1           0       -7.498583   -1.528220    0.511580
     19          7           0       -3.656534    3.107025   -1.294408
     20          6           0       -2.331876    2.744080   -1.334430
     21          6           0       -4.159764    4.478588   -1.079314
     22          7           0        1.028551    3.601099   -1.147929
     23          1           0        1.912381    3.138287   -1.210380
     24          1           0        1.043713    4.588426   -0.987742
     25          7           0       -1.275929    3.572775   -1.185192
     26          6           0       -0.125652    2.928771   -1.273224
     27          7           0       -0.015730    1.576694   -1.490740
     28          1           0        0.905201    1.169202   -1.543710
     29          6           0       -1.088607    0.704742   -1.647229
     30          8           0       -0.880369   -0.499601   -1.839407
     31          6           0       -2.331043    1.382055   -1.555103
     32          7           0       -3.629053    0.899625   -1.651665
     33          6           0       -4.379401    1.955768   -1.491190
     34          1           0       -5.469814    1.951078   -1.507408
     35          1           0       -4.726995    4.502145   -0.256826
     36          1           0       -3.386492    5.101343   -0.967450
     37          1           0       -4.704155    4.763144   -1.867655
     38          1           0        5.735992   -0.342434   -1.062897
     39          1           0        5.695906   -0.334549   -2.824425
     40          1           0        4.713074    0.814189   -1.915680
     41          1           0        3.406825   -4.466111   -1.909582
     42          6           0        3.209559   -3.394086   -1.900299
     43          8           0        0.850987   -3.642083   -1.847733
     44          6           0        1.855747   -2.931545   -1.867418
     45          1           0        0.775892   -1.193377   -1.835069
     46          7           0        1.717767   -1.558174   -1.858139
     47          8           0        2.502386    0.572898   -1.866457
     48          6           0        2.724098   -0.625184   -1.876856
     49          1           0        5.259190   -2.808521   -1.944321
     50          6           0        4.212456   -2.508400   -1.919151
     51          6           0        5.109568   -0.190171   -1.929198
     52          7           0        4.001504   -1.149076   -1.908279
     53          1           0        4.724178    3.300207    3.840337
     54          1           0        3.415533    3.578239    2.906407
     55          1           0        4.913529    3.818638    2.304502
     56          1           0        2.554092   -3.000916    0.576574
     57          1           0        4.190845   -2.643725    0.898375
     58          7           0        3.237831   -2.339126    0.884278
     59          6           0        2.895056   -1.105021    1.259344
     60          6           0        3.310046    1.098617    2.055245
     61          7           0        2.022406    1.480149    2.026052
     62          1           0        0.186117    0.710309    1.540257
     63          6           0        1.250285    0.484814    1.594740
     64          7           0        1.591690   -0.751938    1.218605
     65          1           0        6.494632    1.374286    2.539599
     66          6           0        5.488111    1.030316    2.299692
     67          7           0        5.195719   -0.168654    1.858482
     68          6           0        3.817854   -0.138717    1.699345
     69          6           0        4.359096    3.248408    2.910812
     70          7           0        4.394734    1.849403    2.442272
 ---------------------------------------------------------------------

 SCF Done:  E(RwB97XD) =  -2048.74179736     A.U. after   15 cycles

 The electronic state is 1-A.
 Alpha  occ. eigenvalues --  -19.26116 -19.22724 -19.20756 -14.52755 -14.52156
 Alpha  occ. eigenvalues --  -14.48922 -14.48150 -14.48002 -14.47957 -14.47121
 Alpha  occ. eigenvalues --  -14.46895 -14.45287 -14.44010 -14.43949 -14.42194
 Alpha  occ. eigenvalues --  -14.41466 -14.40984 -14.40541 -14.40189 -14.39586
 Alpha  occ. eigenvalues --  -10.45759 -10.41428 -10.40697 -10.39660 -10.38367
 Alpha  occ. eigenvalues --  -10.38264 -10.37779 -10.36882 -10.35390 -10.35138
 Alpha  occ. eigenvalues --  -10.34682 -10.34479 -10.33615 -10.33430 -10.33260
 Alpha  occ. eigenvalues --  -10.32557 -10.32417 -10.32406 -10.31555 -10.31052
 Alpha  occ. eigenvalues --  -10.30349 -10.28242 -10.27708  -1.19699  -1.14905
 Alpha  occ. eigenvalues --   -1.13655  -1.13362  -1.10726  -1.10518  -1.09684
 Alpha  occ. eigenvalues --   -1.09022  -1.08737  -1.04605  -1.04281  -1.02847
 Alpha  occ. eigenvalues --   -1.00740  -0.99951  -0.99674  -0.98707  -0.96732
 Alpha  occ. eigenvalues --   -0.96597  -0.96125  -0.91951  -0.91525  -0.87329
 Alpha  occ. eigenvalues --   -0.85620  -0.84259  -0.83779  -0.83184  -0.82645
 Alpha  occ. eigenvalues --   -0.81595  -0.79307  -0.76782  -0.74787  -0.74523
 Alpha  occ. eigenvalues --   -0.73859  -0.73686  -0.72169  -0.70339  -0.70168
 Alpha  occ. eigenvalues --   -0.67574  -0.66896  -0.66577  -0.65557  -0.64764
 Alpha  occ. eigenvalues --   -0.64080  -0.63967  -0.62851  -0.61969  -0.61927
 Alpha  occ. eigenvalues --   -0.60433  -0.60157  -0.59970  -0.59804  -0.59261
 Alpha  occ. eigenvalues --   -0.59044  -0.58571  -0.56746  -0.56225  -0.55906
 Alpha  occ. eigenvalues --   -0.55667  -0.55046  -0.54758  -0.54654  -0.54203
 Alpha  occ. eigenvalues --   -0.53869  -0.53643  -0.53481  -0.53238  -0.53162
 Alpha  occ. eigenvalues --   -0.52616  -0.52522  -0.51101  -0.50401  -0.50018
 Alpha  occ. eigenvalues --   -0.49773  -0.49660  -0.49388  -0.49179  -0.48884
 Alpha  occ. eigenvalues --   -0.48694  -0.48508  -0.48158  -0.47848  -0.47563
 Alpha  occ. eigenvalues --   -0.46245  -0.45833  -0.45253  -0.44223  -0.43922
 Alpha  occ. eigenvalues --   -0.40436  -0.40357  -0.39670  -0.37453  -0.37431
 Alpha  occ. eigenvalues --   -0.37391  -0.37299  -0.36397  -0.36229  -0.34586
 Alpha  occ. eigenvalues --   -0.34212  -0.33965  -0.33758  -0.32875  -0.32786
 Alpha  occ. eigenvalues --   -0.32734  -0.32606  -0.32392  -0.32012  -0.30185
 Alpha  occ. eigenvalues --   -0.29772  -0.29637  -0.25709  -0.24874
 Alpha virt. eigenvalues --    0.02254   0.04294   0.07436   0.07992   0.08679
 Alpha virt. eigenvalues --    0.09196   0.09633   0.10752   0.11743   0.11769
 Alpha virt. eigenvalues --    0.13058   0.14407   0.14795   0.14917   0.15102

 Mulliken charges:
               1
     1  N   -0.312980
     2  C    0.181478
     3  C    0.048766
     4  N   -0.256830
     5  C    0.136168
     6  H    0.024107
     7  N   -0.300108
     8  C    0.136776
     9  H    0.007829
    10  N   -0.292255
    11  C    0.252727
    12  C    0.111164
    13  N   -0.055165
    14  H    0.114937
    15  H    0.082710
    16  H    0.023231
    17  H    0.031968
    18  H    0.025100
    19  N   -0.311866
    20  C    0.250047
    21  C    0.180704
    22  N   -0.121198
    23  H    0.114617
    24  H    0.117270
    25  N   -0.311151
    26  C    0.247049
    27  N   -0.151496
    28  H    0.121366
    29  C    0.195262
    30  O   -0.321190
    31  C   -0.012730
    32  N   -0.225656
    33  C    0.131926
    34  H    0.024126
    35  H    0.029290
    36  H    0.028953
    37  H    0.024800
    38  H    0.063044
    39  H    0.059476
    40  H    0.073392
    41  H    0.030568
    42  C   -0.121207
    43  O   -0.264109
    44  C    0.148312
    45  H    0.132061
    46  N   -0.109969
    47  O   -0.342497
    48  C    0.335371
    49  H    0.047345
    50  C    0.160593
    51  C    0.038998
    52  N   -0.273770
    53  H    0.033744
    54  H    0.043071
    55  H    0.026731
    56  H    0.128678
    57  H    0.113987
    58  N   -0.053875
    59  C    0.084442
    60  C    0.249642
    61  N   -0.273178
    62  H    0.039553
    63  C    0.169950
    64  N   -0.309654
    65  H    0.036326
    66  C    0.138510
    67  N   -0.272049
    68  C    0.029688
    69  C    0.179573
    70  N   -0.312493
 Sum of Mulliken charges =  -0.00000

 Dipole moment (field-independent basis, Debye):
    X=              8.9259    Y=              6.2381    Z=              0.6334  Tot=             10.9081
 Quadrupole moment (field-independent basis, Debye-Ang):
   XX=           -159.0470   YY=           -215.2086   ZZ=           -249.8804
   XY=             -3.2453   XZ=             -3.1450   YZ=             -0.7943

 Normal termination of Gaussian 16 at Wed Jan 24 21:02:40 2018.
