 Gaussian 16, Revision A.03,
 Gaussian 16:  EM64L-G16RevA.03 25-Dec-2016

 ---------------------------------------
 #p wb97xd/cc-pvdz sp scf=(maxcycles=20)
 ---------------------------------------

 ------------------
 Base pair stacking
 ------------------
 Symbolic Z-matrix:
 Charge =  0 Multiplicity = 1

                         Standard orientation:
 ---------------------------------------------------------------------
 Center     Atomic      Atomic             Coordinates (Angstroms)
 Number     Number       Type             X           Y           Z
 ---------------------------------------------------------------------
      1          7           0       -5.861953   -1.767884    1.010690
      2          6           0       -7.262289   -1.303050    1.041913
      3          6           0       -3.665917   -1.846603    1.103112
      4          7           0       -4.088060   -3.133456    0.802239
      5          6           0       -5.394201   -3.034528    0.758603
      6          1           0       -6.071819   -3.861646    0.544958
      7          7           0       -2.316113    0.028329    1.578110
      8          6           0       -3.452307    0.726613    1.673275
      9          1           0       -3.330531    1.782958    1.909030
     10          7           0       -4.710410    0.317868    1.521647
     11          6           0       -4.748068   -0.993838    1.234554
     12          6           0       -2.387634   -1.289188    1.288075
     13          7           0       -1.254567   -1.987925    1.192653
     14          1           0       -1.260010   -2.965617    0.979802
     15          1           0       -0.362134   -1.558184    1.330608
     16          1           0       -7.766655   -1.806971    1.743238
     17          1           0       -7.285425   -0.326325    1.253134
     18          1           0       -7.687662   -1.459750    0.150559
     19          7           0       -3.404298    2.875466   -1.493447
     20          6           0       -2.082092    2.509182   -1.418307
     21          6           0       -3.924337    4.242489   -1.289690
     22          7           0        1.246558    3.349327   -0.892944
     23          1           0        2.131928    2.885340   -0.884359
     24          1           0        1.247431    4.331949   -0.705393
     25          7           0       -1.044175    3.329944   -1.147888
     26          6           0        0.108698    2.684581   -1.144555
     27          7           0        0.237447    1.338468   -1.387244
     28          1           0        1.158901    0.929380   -1.364219
     29          6           0       -0.816689    0.474721   -1.667633
     30          8           0       -0.592327   -0.724742   -1.871858
     31          6           0       -2.061671    1.153574   -1.674675
     32          7           0       -3.345224    0.678375   -1.906114
     33          6           0       -4.106420    1.732397   -1.788519
     34          1           0       -5.190455    1.731897   -1.907511
     35          1           0       -4.566554    4.245902   -0.523957
     36          1           0       -3.164510    4.859348   -1.088675
     37          1           0       -4.391747    4.549967   -2.117825
     38          1           0        5.921510   -0.611204   -0.471537
     39          1           0        6.047662   -0.555894   -2.228147
     40          1           0        4.984567    0.571403   -1.385289
     41          1           0        3.678865   -4.702637   -1.645117
     42          6           0        3.482543   -3.630581   -1.625460
     43          8           0        1.129300   -3.871790   -1.802051
     44          6           0        2.132078   -3.164438   -1.707768
     45          1           0        1.055536   -1.424067   -1.730275
     46          7           0        1.995061   -1.791350   -1.674369
     47          8           0        2.778864    0.336478   -1.551082
     48          6           0        2.999511   -0.861652   -1.572969
     49          1           0        5.527722   -3.051089   -1.460343
     50          6           0        4.483542   -2.748154   -1.525789
     51          6           0        5.379667   -0.433594   -1.388560
     52          7           0        4.273719   -1.388905   -1.498060
     53          1           0        4.424305    3.947287    2.953181
     54          1           0        3.198680    3.965956    1.876335
     55          1           0        4.744551    4.004335    1.353935
     56          1           0        2.273239   -2.991688    1.440194
     57          1           0        3.893794   -2.580297    1.778834
     58          7           0        2.956030   -2.279181    1.602340
     59          6           0        2.631493   -0.984769    1.584240
     60          6           0        3.066364    1.348326    1.755372
     61          7           0        1.798990    1.723497    1.515702
     62          1           0       -0.023312    0.872650    1.120883
     63          6           0        1.025121    0.657325    1.322584
     64          7           0        1.348279   -0.639920    1.340307
     65          1           0        6.214662    1.706477    2.397329
     66          6           0        5.216706    1.322372    2.184072
     67          7           0        4.914318    0.051567    2.077766
     68          6           0        3.553840    0.053992    1.806034
     69          6           0        4.126821    3.638024    2.049931
     70          7           0        4.146141    2.163174    2.000541
 ---------------------------------------------------------------------

 SCF Done:  E(RwB97XD) =  -2048.74629415     A.U. after   15 cycles

 The electronic state is 1-A.
 Alpha  occ. eigenvalues --  -19.25802 -19.22045 -19.20524 -14.52402 -14.52393
 Alpha  occ. eigenvalues --  -14.48646 -14.48397 -14.48227 -14.47779 -14.46785
 Alpha  occ. eigenvalues --  -14.46343 -14.45450 -14.44124 -14.44034 -14.42084
 Alpha  occ. eigenvalues --  -14.41888 -14.41039 -14.40679 -14.40625 -14.39990
 Alpha  occ. eigenvalues --  -10.45417 -10.41007 -10.40140 -10.39810 -10.38097
 Alpha  occ. eigenvalues --  -10.37941 -10.37850 -10.37043 -10.35523 -10.35175
 Alpha  occ. eigenvalues --  -10.34842 -10.34175 -10.34035 -10.33729 -10.33161
 Alpha  occ. eigenvalues --  -10.33000 -10.32814 -10.32517 -10.31182 -10.30820
 Alpha  occ. eigenvalues --  -10.30693 -10.28181 -10.27940  -1.19380  -1.15103
 Alpha  occ. eigenvalues --   -1.13090  -1.13043  -1.10971  -1.10459  -1.09270
 Alpha  occ. eigenvalues --   -1.09163  -1.08395  -1.04760  -1.04692  -1.02425
 Alpha  occ. eigenvalues --   -1.00941  -1.00178  -0.99531  -0.98424  -0.96782
 Alpha  occ. eigenvalues --   -0.96539  -0.96453  -0.92406  -0.91060  -0.87532
 Alpha  occ. eigenvalues --   -0.85915  -0.83955  -0.83608  -0.83433  -0.82379
 Alpha  occ. eigenvalues --   -0.82015  -0.78864  -0.76933  -0.74742  -0.74454
 Alpha  occ. eigenvalues --   -0.73502  -0.73288  -0.72628  -0.70768  -0.70341
 Alpha  occ. eigenvalues --   -0.67213  -0.66750  -0.66470  -0.66032  -0.64381
 Alpha  occ. eigenvalues --   -0.64215  -0.63668  -0.62611  -0.62452  -0.61560
 Alpha  occ. eigenvalues --   -0.60522  -0.60229  -0.60139  -0.59477  -0.59352
 Alpha  occ. eigenvalues --   -0.59281  -0.58170  -0.56615  -0.56302  -0.56037
 Alpha  occ. eigenvalues --   -0.55911  -0.55394  -0.55150  -0.54551  -0.54267
 Alpha  occ. eigenvalues --   -0.53875  -0.53557  -0.53290  -0.53085  -0.52849
 Alpha  occ. eigenvalues --   -0.52627  -0.52250  -0.51496  -0.50431  -0.50074
 Alpha  occ. eigenvalues --   -0.49958  -0.49656  -0.49396  -0.48985  -0.48759
 Alpha  occ. eigenvalues --   -0.48602  -0.48273  -0.48145  -0.47572  -0.47277
 Alpha  occ. eigenvalues --   -0.46643  -0.45631  -0.44912  -0.44562  -0.43874
 Alpha  occ. eigenvalues --   -0.40837  -0.40689  -0.39382  -0.37696  -0.37575
 Alpha  occ. eigenvalues --   -0.37159  -0.36980  -0.36854  -0.35892  -0.34769
 Alpha  occ. eigenvalues --   -0.34304  -0.33522  -0.33229  -0.33179  -0.32960
 Alpha  occ. eigenvalues --   -0.32564  -0.32297  -0.32028  -0.31745  -0.30605
 Alpha  occ. eigenvalues --   -0.30180  -0.29849  -0.25707  -0.24958
 Alpha virt. eigenvalues --    0.02967   0.04106   0.07259   0.08225   0.08415
 Alpha virt. eigenvalues --    0.09403   0.09857   0.10579   0.11354   0.11782
 Alpha virt. eigenvalues --    0.12364   0.14153   0.14595   0.14724   0.15240

 Mulliken charges:
               1
     1  N   -0.313223
     2  C    0.181399
     3  C    0.047971
     4  N   -0.259859
     5  C    0.135877
     6  H    0.025631
     7  N   -0.293892
     8  C    0.138904
     9  H    0.008433
    10  N   -0.290790
    11  C    0.253630
    12  C    0.115295
    13  N   -0.056797
    14  H    0.110723
    15  H    0.083779
    16  H    0.024122
    17  H    0.031823
    18  H    0.026537
    19  N   -0.310057
    20  C    0.245943
    21  C    0.180574
    22  N   -0.098485
    23  H    0.111771
    24  H    0.113144
    25  N   -0.306752
    26  C    0.226313
    27  N   -0.145008
    28  H    0.124368
    29  C    0.178218
    30  O   -0.321932
    31  C   -0.002707
    32  N   -0.225696
    33  C    0.132447
    34  H    0.022644
    35  H    0.029656
    36  H    0.027979
    37  H    0.023957
    38  H    0.061938
    39  H    0.058354
    40  H    0.071263
    41  H    0.029847
    42  C   -0.112296
    43  O   -0.264410
    44  C    0.163189
    45  H    0.132980
    46  N   -0.120564
    47  O   -0.342380
    48  C    0.338462
    49  H    0.047099
    50  C    0.163650
    51  C    0.039492
    52  N   -0.283212
    53  H    0.036069
    54  H    0.037929
    55  H    0.027332
    56  H    0.125849
    57  H    0.115895
    58  N   -0.060012
    59  C    0.078337
    60  C    0.246639
    61  N   -0.273195
    62  H    0.041405
    63  C    0.160663
    64  N   -0.300524
    65  H    0.036368
    66  C    0.137798
    67  N   -0.268072
    68  C    0.035096
    69  C    0.176932
    70  N   -0.313864
 Sum of Mulliken charges =  -0.00000

 Dipole moment (field-independent basis, Debye):
    X=              8.5541    Y=              5.8345    Z=              2.0789  Tot=             10.5610
 Quadrupole moment (field-independent basis, Debye-Ang):
   XX=           -156.3887   YY=           -216.1762   ZZ=           -253.8550
   XY=             -1.9723   XZ=             -0.2767   YZ=             -7.2457

 Normal termination of Gaussian 16 at Wed Jan 24 08:07:37 2018.
