 Gaussian 16, Revision A.03,
 Gaussian 16:  EM64L-G16RevA.03 25-Dec-2016

 ---------------------------------------
 #p wb97xd/cc-pvdz sp scf=(maxcycles=20)
 ---------------------------------------

 ------------------
 Base pair stacking
 ------------------
 Symbolic Z-matrix:
 Charge =  0 Multiplicity = 1

                         Standard orientation:
 ---------------------------------------------------------------------
 Center     Atomic      Atomic             Coordinates (Angstroms)
 Number     Number       Type             X           Y           Z
 ---------------------------------------------------------------------
      1          7           0       -7.225001   -1.506767    0.040865
      2          6           0       -8.619555   -1.027378   -0.017677
      3          6           0       -5.050097   -1.627959    0.344853
      4          7           0       -5.444060   -2.867293   -0.138440
      5          6           0       -6.738599   -2.744671   -0.302244
      6          1           0       -7.393921   -3.532953   -0.673877
      7          7           0       -3.748921    0.162713    1.159319
      8          6           0       -4.886355    0.863101    1.216617
      9          1           0       -4.785409    1.885020    1.579601
     10          7           0       -6.123942    0.492411    0.894360
     11          6           0       -6.136910   -0.778878    0.460669
     12          6           0       -3.795292   -1.113504    0.718655
     13          7           0       -2.660937   -1.814263    0.660753
     14          1           0       -2.648214   -2.762283    0.340892
     15          1           0       -1.785642   -1.415741    0.934952
     16          1           0       -9.194540   -1.598068    0.568742
     17          1           0       -8.660542   -0.079719    0.297565
     18          1           0       -8.952494   -1.078356   -0.959242
     19          7           0       -1.784728    2.892460   -1.868434
     20          6           0       -0.494109    2.484320   -1.632273
     21          6           0       -2.248565    4.294412   -1.877697
     22          7           0        2.818093    3.245742   -0.917234
     23          1           0        3.674480    2.750425   -0.774046
     24          1           0        2.854133    4.243179   -0.849869
     25          7           0        0.558683    3.288983   -1.371098
     26          6           0        1.672344    2.602207   -1.187473
     27          7           0        1.751102    1.232216   -1.254082
     28          1           0        2.645035    0.791643   -1.100021
     29          6           0        0.680786    0.384379   -1.521392
     30          8           0        0.859072   -0.839355   -1.559086
     31          6           0       -0.522498    1.107685   -1.720922
     32          7           0       -1.805126    0.660560   -2.006993
     33          6           0       -2.517964    1.751410   -2.085303
     34          1           0       -3.586853    1.780675   -2.299489
     35          1           0       -2.951372    4.419357   -1.178222
     36          1           0       -1.477274    4.899721   -1.685403
     37          1           0       -2.628751    4.515542   -2.775122
     38          1           0        7.230547   -0.820468    0.392269
     39          1           0        7.505452   -0.989121   -1.339961
     40          1           0        6.435489    0.276910   -0.736894
     41          1           0        4.885048   -4.930380   -0.475961
     42          6           0        4.743476   -3.857039   -0.602932
     43          8           0        2.403850   -4.021406   -0.958228
     44          6           0        3.430487   -3.349639   -0.860704
     45          1           0        2.451013   -1.582803   -1.188167
     46          7           0        3.362348   -1.978583   -1.005003
     47          8           0        4.242116    0.114050   -1.069123
     48          6           0        4.401566   -1.085556   -0.927024
     49          1           0        6.794974   -3.346062   -0.327097
     50          6           0        5.776959   -3.010957   -0.521282
     51          6           0        6.776994   -0.736085   -0.584065
     52          7           0        5.636107   -1.651331   -0.676016
     53          1           0        2.830552    3.804910    3.634678
     54          1           0        1.721051    3.960639    2.448555
     55          1           0        3.312215    4.033386    2.092196
     56          1           0        0.819663   -2.891728    1.149355
     57          1           0        2.398780   -2.544477    1.693326
     58          7           0        1.484961   -2.211755    1.457829
     59          6           0        1.168650   -0.918557    1.551350
     60          6           0        1.592269    1.374637    2.024165
     61          7           0        0.357264    1.792838    1.701223
     62          1           0       -1.418422    1.018063    1.032433
     63          6           0       -0.396770    0.766159    1.313561
     64          7           0       -0.081798   -0.529787    1.219215
     65          1           0        4.660090    1.612708    3.016105
     66          6           0        3.687653    1.269432    2.661891
     67          7           0        3.393069    0.022789    2.384805
     68          6           0        2.067362    0.075489    1.979276
     69          6           0        2.625497    3.601740    2.677248
     70          7           0        2.644404    2.141234    2.466135
 ---------------------------------------------------------------------

 SCF Done:  E(RwB97XD) =  -2048.74482921     A.U. after   15 cycles

 The electronic state is 1-A.
 Alpha  occ. eigenvalues --  -19.26147 -19.22653 -19.21044 -14.52804 -14.50931
 Alpha  occ. eigenvalues --  -14.49040 -14.48923 -14.48320 -14.47612 -14.47443
 Alpha  occ. eigenvalues --  -14.45978 -14.43985 -14.42506 -14.42375 -14.42255
 Alpha  occ. eigenvalues --  -14.42108 -14.41613 -14.41039 -14.40981 -14.40207
 Alpha  occ. eigenvalues --  -10.45837 -10.41770 -10.40701 -10.38671 -10.38218
 Alpha  occ. eigenvalues --  -10.37946 -10.36513 -10.35588 -10.35465 -10.35447
 Alpha  occ. eigenvalues --  -10.34664 -10.34262 -10.33928 -10.33516 -10.33511
 Alpha  occ. eigenvalues --  -10.33163 -10.32727 -10.31494 -10.31060 -10.31057
 Alpha  occ. eigenvalues --  -10.30896 -10.28687 -10.28476  -1.19749  -1.13768
 Alpha  occ. eigenvalues --   -1.13637  -1.13503  -1.11512  -1.10918  -1.09698
 Alpha  occ. eigenvalues --   -1.09136  -1.07279  -1.05053  -1.03024  -1.02808
 Alpha  occ. eigenvalues --   -1.00477  -1.00462  -0.99358  -0.98939  -0.97084
 Alpha  occ. eigenvalues --   -0.96867  -0.94880  -0.92682  -0.91452  -0.86004
 Alpha  occ. eigenvalues --   -0.84475  -0.84410  -0.84069  -0.84019  -0.82772
 Alpha  occ. eigenvalues --   -0.82433  -0.79284  -0.75288  -0.75000  -0.74206
 Alpha  occ. eigenvalues --   -0.73791  -0.73007  -0.72972  -0.71151  -0.68660
 Alpha  occ. eigenvalues --   -0.67904  -0.66956  -0.66379  -0.65029  -0.64841
 Alpha  occ. eigenvalues --   -0.64123  -0.63073  -0.62820  -0.62400  -0.62297
 Alpha  occ. eigenvalues --   -0.60234  -0.59911  -0.59891  -0.59068  -0.58823
 Alpha  occ. eigenvalues --   -0.58565  -0.57954  -0.56871  -0.56536  -0.56518
 Alpha  occ. eigenvalues --   -0.56322  -0.55401  -0.54793  -0.54605  -0.54024
 Alpha  occ. eigenvalues --   -0.53785  -0.53671  -0.53295  -0.52804  -0.52315
 Alpha  occ. eigenvalues --   -0.52045  -0.51769  -0.51213  -0.50849  -0.50545
 Alpha  occ. eigenvalues --   -0.50262  -0.49831  -0.49283  -0.49173  -0.48969
 Alpha  occ. eigenvalues --   -0.48600  -0.48463  -0.48041  -0.47831  -0.47484
 Alpha  occ. eigenvalues --   -0.47046  -0.45258  -0.45181  -0.44450  -0.43049
 Alpha  occ. eigenvalues --   -0.41259  -0.39765  -0.39132  -0.37739  -0.37628
 Alpha  occ. eigenvalues --   -0.37279  -0.36562  -0.35861  -0.35768  -0.35069
 Alpha  occ. eigenvalues --   -0.33787  -0.33651  -0.33613  -0.33128  -0.32954
 Alpha  occ. eigenvalues --   -0.32510  -0.32376  -0.32230  -0.32134  -0.31081
 Alpha  occ. eigenvalues --   -0.30403  -0.28179  -0.25898  -0.25802
 Alpha virt. eigenvalues --    0.02608   0.05688   0.07884   0.08025   0.08508
 Alpha virt. eigenvalues --    0.09170   0.09391   0.10908   0.11554   0.12375
 Alpha virt. eigenvalues --    0.12778   0.13918   0.14356   0.14794   0.15690

 Mulliken charges:
               1
     1  N   -0.310628
     2  C    0.180983
     3  C    0.028268
     4  N   -0.258372
     5  C    0.132891
     6  H    0.026812
     7  N   -0.290565
     8  C    0.130030
     9  H    0.010707
    10  N   -0.289112
    11  C    0.240201
    12  C    0.120983
    13  N   -0.051966
    14  H    0.108661
    15  H    0.090007
    16  H    0.025836
    17  H    0.035239
    18  H    0.025626
    19  N   -0.309925
    20  C    0.255035
    21  C    0.182234
    22  N   -0.120480
    23  H    0.115821
    24  H    0.118432
    25  N   -0.298566
    26  C    0.226376
    27  N   -0.127122
    28  H    0.119800
    29  C    0.169649
    30  O   -0.322944
    31  C   -0.016851
    32  N   -0.218356
    33  C    0.131034
    34  H    0.031684
    35  H    0.030780
    36  H    0.027931
    37  H    0.025160
    38  H    0.062188
    39  H    0.060646
    40  H    0.074181
    41  H    0.033010
    42  C   -0.108199
    43  O   -0.273135
    44  C    0.157153
    45  H    0.136041
    46  N   -0.133876
    47  O   -0.351959
    48  C    0.366736
    49  H    0.050106
    50  C    0.176564
    51  C    0.042544
    52  N   -0.297372
    53  H    0.030256
    54  H    0.044539
    55  H    0.008723
    56  H    0.125798
    57  H    0.113958
    58  N   -0.049432
    59  C    0.096890
    60  C    0.237778
    61  N   -0.263961
    62  H    0.038157
    63  C    0.160978
    64  N   -0.298006
    65  H    0.025865
    66  C    0.126772
    67  N   -0.267793
    68  C    0.024533
    69  C    0.182121
    70  N   -0.307095
 Sum of Mulliken charges =  -0.00000

 Dipole moment (field-independent basis, Debye):
    X=              8.6605    Y=              5.4115    Z=              1.3604  Tot=             10.3023
 Quadrupole moment (field-independent basis, Debye-Ang):
   XX=           -145.1785   YY=           -217.4825   ZZ=           -248.7093
   XY=              2.6716   XZ=             14.3764   YZ=             -6.1156

 Normal termination of Gaussian 16 at Wed Jan 24 19:16:42 2018.
