 Gaussian 16, Revision A.03,
 Gaussian 16:  EM64L-G16RevA.03 25-Dec-2016

 ---------------------------------------
 #p wb97xd/cc-pvdz sp scf=(maxcycles=20)
 ---------------------------------------

 ------------------
 Base pair stacking
 ------------------
 Symbolic Z-matrix:
 Charge =  0 Multiplicity = 1

                         Standard orientation:
 ---------------------------------------------------------------------
 Center     Atomic      Atomic             Coordinates (Angstroms)
 Number     Number       Type             X           Y           Z
 ---------------------------------------------------------------------
      1          7           0        4.577672   -2.251740   -1.733852
      2          6           0        5.960512   -1.917789   -2.126568
      3          6           0        2.404940   -2.173428   -1.401503
      4          7           0        2.830867   -3.393886   -0.897708
      5          6           0        4.122809   -3.392222   -1.118100
      6          1           0        4.798633   -4.204629   -0.849436
      7          7           0        1.057269   -0.344669   -2.035809
      8          6           0        2.177221    0.223598   -2.494459
      9          1           0        2.050014    1.209957   -2.938507
     10          7           0        3.424855   -0.241440   -2.486981
     11          6           0        3.470445   -1.458436   -1.920170
     12          6           0        1.136403   -1.569362   -1.471058
     13          7           0        0.019541   -2.138260   -1.012637
     14          1           0        0.031134   -3.043803   -0.587089
     15          1           0       -0.866344   -1.678970   -1.078896
     16          1           0        6.298443   -2.600326   -2.774748
     17          1           0        5.977203   -1.015124   -2.555568
     18          1           0        6.546837   -1.910890   -1.316526
     19          7           0        4.709219    2.857492    0.785217
     20          6           0        3.379389    2.565766    0.970975
     21          6           0        5.256298    4.197209    0.491002
     22          7           0        0.066217    3.596510    1.119916
     23          1           0       -0.828554    3.182079    1.283846
     24          1           0        0.084666    4.580798    0.942294
     25          7           0        2.357283    3.446881    0.916367
     26          6           0        1.191357    2.865987    1.137274
     27          7           0        1.036107    1.524960    1.392340
     28          1           0        0.106322    1.167577    1.549613
     29          6           0        2.073583    0.599871    1.453257
     30          8           0        1.825573   -0.588812    1.690447
     31          6           0        3.332305    1.209079    1.217967
     32          7           0        4.606930    0.660140    1.187874
     33          6           0        5.389086    1.672627    0.928465
     34          1           0        6.473444    1.610503    0.830568
     35          1           0        5.733989    4.178638   -0.386639
     36          1           0        4.508353    4.858280    0.448136
     37          1           0        5.894681    4.464123    1.212132
     38          1           0       -4.819082   -0.093290    1.607614
     39          1           0       -4.592916   -0.061644    3.354750
     40          1           0       -3.654137    1.020007    2.325145
     41          1           0       -2.627156   -4.321512    2.288955
     42          6           0       -2.377489   -3.261683    2.237441
     43          8           0       -0.053405   -3.634838    1.943349
     44          6           0       -1.012876   -2.871937    2.053734
     45          1           0        0.144855   -1.193989    1.873473
     46          7           0       -0.806700   -1.508080    2.002337
     47          8           0       -1.476218    0.661416    2.049707
     48          6           0       -1.756479   -0.522979    2.107441
     49          1           0       -4.378435   -2.567929    2.483894
     50          6           0       -3.326264   -2.323998    2.343274
     51          6           0       -4.097759    0.038331    2.400349
     52          7           0       -3.048504   -0.978051    2.282935
     53          1           0       -5.674708    3.707121   -3.008312
     54          1           0       -4.261440    3.861133   -2.207661
     55          1           0       -5.671970    4.134871   -1.433368
     56          1           0       -3.522227   -2.887530   -0.373355
     57          1           0       -5.161655   -2.431598   -0.493772
     58          7           0       -4.197166   -2.175066   -0.565688
     59          6           0       -3.828506   -0.937571   -0.903152
     60          6           0       -4.203300    1.329974   -1.519197
     61          7           0       -2.900743    1.646004   -1.608042
     62          1           0       -1.068590    0.758602   -1.370663
     63          6           0       -2.143356    0.588880   -1.322129
     64          7           0       -2.510688   -0.651386   -0.983916
     65          1           0       -7.401204    1.790042   -1.637311
     66          6           0       -6.395453    1.383060   -1.528813
     67          7           0       -6.124538    0.145583   -1.192759
     68          6           0       -4.738026    0.098477   -1.183002
     69          6           0       -5.216903    3.578366   -2.128633
     70          7           0       -5.279817    2.155647   -1.741447
 ---------------------------------------------------------------------

 SCF Done:  E(RwB97XD) =  -2048.74560012     A.U. after   15 cycles

 The electronic state is 1-A.
 Alpha  occ. eigenvalues --  -19.25648 -19.21915 -19.20693 -14.52429 -14.52302
 Alpha  occ. eigenvalues --  -14.49052 -14.48726 -14.47754 -14.47577 -14.46995
 Alpha  occ. eigenvalues --  -14.46811 -14.45437 -14.44721 -14.44505 -14.42189
 Alpha  occ. eigenvalues --  -14.42133 -14.41204 -14.40354 -14.40331 -14.39942
 Alpha  occ. eigenvalues --  -10.45290 -10.41400 -10.40286 -10.40029 -10.38346
 Alpha  occ. eigenvalues --  -10.38013 -10.38011 -10.37312 -10.35980 -10.35038
 Alpha  occ. eigenvalues --  -10.34889 -10.34574 -10.33789 -10.33627 -10.33111
 Alpha  occ. eigenvalues --  -10.32851 -10.32567 -10.32558 -10.31168 -10.31135
 Alpha  occ. eigenvalues --  -10.29991 -10.28329 -10.27787  -1.19209  -1.15220
 Alpha  occ. eigenvalues --   -1.13337  -1.12930  -1.10800  -1.10389  -1.09679
 Alpha  occ. eigenvalues --   -1.09148  -1.08696  -1.05138  -1.04574  -1.02267
 Alpha  occ. eigenvalues --   -1.01025  -1.00016  -0.99887  -0.98715  -0.97145
 Alpha  occ. eigenvalues --   -0.96836  -0.96066  -0.92273  -0.91110  -0.87717
 Alpha  occ. eigenvalues --   -0.85900  -0.84349  -0.83416  -0.83105  -0.82729
 Alpha  occ. eigenvalues --   -0.81485  -0.78824  -0.77222  -0.75011  -0.74820
 Alpha  occ. eigenvalues --   -0.73785  -0.73211  -0.72311  -0.70634  -0.70396
 Alpha  occ. eigenvalues --   -0.67549  -0.67054  -0.66442  -0.65715  -0.64554
 Alpha  occ. eigenvalues --   -0.64404  -0.63830  -0.62771  -0.62154  -0.61936
 Alpha  occ. eigenvalues --   -0.60749  -0.60342  -0.59988  -0.59520  -0.59329
 Alpha  occ. eigenvalues --   -0.59236  -0.58509  -0.56844  -0.56032  -0.55931
 Alpha  occ. eigenvalues --   -0.55359  -0.55328  -0.55056  -0.54568  -0.54297
 Alpha  occ. eigenvalues --   -0.53767  -0.53707  -0.53608  -0.53149  -0.52910
 Alpha  occ. eigenvalues --   -0.52883  -0.52275  -0.50993  -0.50339  -0.50089
 Alpha  occ. eigenvalues --   -0.49915  -0.49567  -0.49452  -0.49277  -0.48925
 Alpha  occ. eigenvalues --   -0.48452  -0.48301  -0.48171  -0.47942  -0.47355
 Alpha  occ. eigenvalues --   -0.46268  -0.45719  -0.45432  -0.44346  -0.43703
 Alpha  occ. eigenvalues --   -0.40779  -0.40628  -0.39295  -0.37864  -0.37717
 Alpha  occ. eigenvalues --   -0.37491  -0.37449  -0.36395  -0.35699  -0.35008
 Alpha  occ. eigenvalues --   -0.34562  -0.34154  -0.33190  -0.32862  -0.32778
 Alpha  occ. eigenvalues --   -0.32730  -0.32625  -0.32078  -0.32031  -0.30271
 Alpha  occ. eigenvalues --   -0.30191  -0.29868  -0.25761  -0.25193
 Alpha virt. eigenvalues --    0.02674   0.04260   0.06720   0.08481   0.08785
 Alpha virt. eigenvalues --    0.09097   0.09626   0.10485   0.11281   0.11561
 Alpha virt. eigenvalues --    0.13594   0.14340   0.14510   0.14979   0.15202

 Mulliken charges:
               1
     1  N   -0.312320
     2  C    0.183284
     3  C    0.054386
     4  N   -0.253499
     5  C    0.143268
     6  H    0.025673
     7  N   -0.300412
     8  C    0.132111
     9  H    0.009200
    10  N   -0.285616
    11  C    0.258519
    12  C    0.095636
    13  N   -0.069753
    14  H    0.114460
    15  H    0.082849
    16  H    0.020626
    17  H    0.030913
    18  H    0.029435
    19  N   -0.311282
    20  C    0.252714
    21  C    0.180823
    22  N   -0.123485
    23  H    0.118083
    24  H    0.118137
    25  N   -0.312393
    26  C    0.250085
    27  N   -0.149350
    28  H    0.120143
    29  C    0.196205
    30  O   -0.320430
    31  C   -0.013182
    32  N   -0.230547
    33  C    0.127085
    34  H    0.022922
    35  H    0.028225
    36  H    0.029817
    37  H    0.025125
    38  H    0.061475
    39  H    0.059427
    40  H    0.075065
    41  H    0.028184
    42  C   -0.124194
    43  O   -0.259974
    44  C    0.166472
    45  H    0.134013
    46  N   -0.123570
    47  O   -0.350329
    48  C    0.352945
    49  H    0.041679
    50  C    0.165241
    51  C    0.037455
    52  N   -0.278341
    53  H    0.034084
    54  H    0.041962
    55  H    0.029309
    56  H    0.116360
    57  H    0.116849
    58  N   -0.062040
    59  C    0.089612
    60  C    0.252473
    61  N   -0.273474
    62  H    0.035997
    63  C    0.178215
    64  N   -0.317422
    65  H    0.039059
    66  C    0.140377
    67  N   -0.264580
    68  C    0.022688
    69  C    0.180195
    70  N   -0.312666
 Sum of Mulliken charges =  -0.00000

 Dipole moment (field-independent basis, Debye):
    X=             -8.4654    Y=              6.7409    Z=             -0.0006  Tot=             10.8214
 Quadrupole moment (field-independent basis, Debye-Ang):
   XX=           -166.4583   YY=           -214.5530   ZZ=           -248.7440
   XY=              4.4894   XZ=            -14.4396   YZ=              1.7622

 Normal termination of Gaussian 16 at Wed Jan 24 18:42:30 2018.
