 Gaussian 16, Revision A.03,
 Gaussian 16:  EM64L-G16RevA.03 25-Dec-2016

 ---------------------------------------
 #p wb97xd/cc-pvdz sp scf=(maxcycles=20)
 ---------------------------------------

 ------------------
 Base pair stacking
 ------------------
 Symbolic Z-matrix:
 Charge =  0 Multiplicity = 1

                         Standard orientation:
 ---------------------------------------------------------------------
 Center     Atomic      Atomic             Coordinates (Angstroms)
 Number     Number       Type             X           Y           Z
 ---------------------------------------------------------------------
      1          7           0        4.905639   -1.872595   -1.580807
      2          6           0        6.314331   -1.436073   -1.636100
      3          6           0        2.707033   -1.892548   -1.525779
      4          7           0        3.108624   -3.219445   -1.472923
      5          6           0        4.417127   -3.154314   -1.508204
      6          1           0        5.081780   -4.018365   -1.483700
      7          7           0        1.386742    0.060964   -1.585653
      8          6           0        2.534897    0.743368   -1.646153
      9          1           0        2.430133    1.826385   -1.694780
     10          7           0        3.787142    0.290931   -1.655576
     11          6           0        3.803612   -1.050769   -1.592547
     12          6           0        1.437005   -1.287600   -1.523129
     13          7           0        0.291973   -1.970546   -1.462676
     14          1           0        0.281604   -2.969974   -1.415173
     15          1           0       -0.594042   -1.506738   -1.462799
     16          1           0        6.753839   -1.825447   -2.445665
     17          1           0        6.353267   -0.438428   -1.684226
     18          1           0        6.794414   -1.747524   -0.816036
     19          7           0        4.418041    2.681155    1.000752
     20          6           0        3.083860    2.354251    1.034793
     21          6           0        4.962438    4.012928    0.668056
     22          7           0       -0.246585    3.265116    0.660391
     23          1           0       -1.143490    2.831027    0.740286
     24          1           0       -0.231669    4.231891    0.403792
     25          7           0        2.054366    3.188038    0.772154
     26          6           0        0.885810    2.582294    0.886950
     27          7           0        0.734835    1.261167    1.232411
     28          1           0       -0.197432    0.882019    1.296298
     29          6           0        1.779929    0.384687    1.507035
     30          8           0        1.535262   -0.789728    1.809754
     31          6           0        3.041554    1.021058    1.387777
     32          7           0        4.323380    0.521035    1.571641
     33          6           0        5.105016    1.538765    1.331907
     34          1           0        6.194019    1.510820    1.382532
     35          1           0        5.553560    3.942196   -0.134679
     36          1           0        4.209036    4.639065    0.471609
     37          1           0        5.491051    4.361444    1.441310
     38          1           0       -5.049716   -0.559080    0.815441
     39          1           0       -5.060220   -0.378195    2.568101
     40          1           0       -4.022328    0.652458    1.582252
     41          1           0       -2.853003   -4.631051    2.134564
     42          6           0       -2.627973   -3.569966    2.026394
     43          8           0       -0.276051   -3.875693    2.072041
     44          6           0       -1.262308   -3.143942    1.990611
     45          1           0       -0.137520   -1.442569    1.821756
     46          7           0       -1.088753   -1.781723    1.851050
     47          8           0       -1.818091    0.357109    1.625932
     48          6           0       -2.070822   -0.828716    1.746816
     49          1           0       -4.662243   -2.936302    1.948804
     50          6           0       -3.607834   -2.664092    1.927030
     51          6           0       -4.444806   -0.336349    1.681774
     52          7           0       -3.361688   -1.317666    1.789546
     53          1           0       -5.307035    4.283327   -1.803097
     54          1           0       -4.010862    4.098409   -0.829525
     55          1           0       -5.515588    4.078748   -0.197456
     56          1           0       -3.273913   -2.850899   -1.616601
     57          1           0       -4.900254   -2.357679   -1.764462
     58          7           0       -3.943755   -2.108334   -1.609002
     59          6           0       -3.578791   -0.841579   -1.400910
     60          6           0       -3.951795    1.495266   -1.152440
     61          7           0       -2.660023    1.800730   -0.946458
     62          1           0       -0.842287    0.861036   -0.830527
     63          6           0       -1.908203    0.702592   -0.988598
     64          7           0       -2.271855   -0.567030   -1.196890
     65          1           0       -7.123923    2.016008   -1.496857
     66          6           0       -6.126128    1.582582   -1.422763
     67          7           0       -5.856732    0.306292   -1.549968
     68          6           0       -4.481478    0.237160   -1.380751
     69          6           0       -4.958403    3.821966   -0.987263
     70          7           0       -5.020002    2.360213   -1.180852
 ---------------------------------------------------------------------

 SCF Done:  E(RwB97XD) =  -2048.74685007     A.U. after   15 cycles

 The electronic state is 1-A.
 Alpha  occ. eigenvalues --  -19.25226 -19.21449 -19.20308 -14.52863 -14.51974
 Alpha  occ. eigenvalues --  -14.49087 -14.48582 -14.48269 -14.47287 -14.46426
 Alpha  occ. eigenvalues --  -14.45935 -14.45800 -14.44949 -14.44903 -14.42821
 Alpha  occ. eigenvalues --  -14.41735 -14.40999 -14.40688 -14.40664 -14.40287
 Alpha  occ. eigenvalues --  -10.44906 -10.40837 -10.40634 -10.39582 -10.38375
 Alpha  occ. eigenvalues --  -10.37904 -10.37700 -10.37467 -10.36505 -10.35554
 Alpha  occ. eigenvalues --  -10.34448 -10.34257 -10.34068 -10.33703 -10.33199
 Alpha  occ. eigenvalues --  -10.33095 -10.33037 -10.32845 -10.30799 -10.30776
 Alpha  occ. eigenvalues --  -10.30404 -10.28296 -10.27801  -1.18965  -1.15621
 Alpha  occ. eigenvalues --   -1.12862  -1.12476  -1.10909  -1.10324  -1.09946
 Alpha  occ. eigenvalues --   -1.08863  -1.08169  -1.05499  -1.05040  -1.01931
 Alpha  occ. eigenvalues --   -1.01415  -1.00525  -0.99200  -0.98241  -0.97506
 Alpha  occ. eigenvalues --   -0.96628  -0.96360  -0.92722  -0.90670  -0.88130
 Alpha  occ. eigenvalues --   -0.86340  -0.83876  -0.83572  -0.83090  -0.82295
 Alpha  occ. eigenvalues --   -0.81961  -0.78447  -0.77582  -0.75462  -0.74337
 Alpha  occ. eigenvalues --   -0.73204  -0.72844  -0.72823  -0.71024  -0.70862
 Alpha  occ. eigenvalues --   -0.67459  -0.66939  -0.66229  -0.66064  -0.64830
 Alpha  occ. eigenvalues --   -0.64121  -0.63465  -0.62681  -0.62437  -0.61346
 Alpha  occ. eigenvalues --   -0.61030  -0.60746  -0.60530  -0.59819  -0.59281
 Alpha  occ. eigenvalues --   -0.59043  -0.57820  -0.56789  -0.56332  -0.55809
 Alpha  occ. eigenvalues --   -0.55767  -0.55652  -0.55563  -0.54746  -0.54182
 Alpha  occ. eigenvalues --   -0.53844  -0.53572  -0.53306  -0.53171  -0.52682
 Alpha  occ. eigenvalues --   -0.52637  -0.51956  -0.51453  -0.50512  -0.50302
 Alpha  occ. eigenvalues --   -0.49916  -0.49880  -0.49781  -0.48983  -0.48821
 Alpha  occ. eigenvalues --   -0.48514  -0.48022  -0.47962  -0.47436  -0.46992
 Alpha  occ. eigenvalues --   -0.46707  -0.45711  -0.45141  -0.44207  -0.43488
 Alpha  occ. eigenvalues --   -0.41350  -0.41045  -0.38963  -0.38188  -0.38123
 Alpha  occ. eigenvalues --   -0.37453  -0.37034  -0.36473  -0.35428  -0.35201
 Alpha  occ. eigenvalues --   -0.35022  -0.33854  -0.33333  -0.33088  -0.32685
 Alpha  occ. eigenvalues --   -0.32364  -0.32154  -0.31641  -0.31624  -0.30593
 Alpha  occ. eigenvalues --   -0.30464  -0.30255  -0.25965  -0.24933
 Alpha virt. eigenvalues --    0.02983   0.04040   0.06119   0.08110   0.09171
 Alpha virt. eigenvalues --    0.09474   0.09989   0.10200   0.10985   0.11676
 Alpha virt. eigenvalues --    0.12984   0.14222   0.14662   0.14877   0.15300

 Mulliken charges:
               1
     1  N   -0.313201
     2  C    0.184130
     3  C    0.053828
     4  N   -0.262794
     5  C    0.141366
     6  H    0.026650
     7  N   -0.288906
     8  C    0.125648
     9  H    0.015383
    10  N   -0.277034
    11  C    0.262359
    12  C    0.094845
    13  N   -0.065663
    14  H    0.109307
    15  H    0.079693
    16  H    0.021445
    17  H    0.030156
    18  H    0.030495
    19  N   -0.304071
    20  C    0.237583
    21  C    0.180886
    22  N   -0.106167
    23  H    0.111716
    24  H    0.113540
    25  N   -0.304299
    26  C    0.226318
    27  N   -0.126588
    28  H    0.111013
    29  C    0.180676
    30  O   -0.322666
    31  C   -0.009008
    32  N   -0.226427
    33  C    0.125856
    34  H    0.019221
    35  H    0.028120
    36  H    0.028334
    37  H    0.023569
    38  H    0.062644
    39  H    0.057788
    40  H    0.075864
    41  H    0.028470
    42  C   -0.115552
    43  O   -0.261700
    44  C    0.177819
    45  H    0.132962
    46  N   -0.128490
    47  O   -0.341255
    48  C    0.348052
    49  H    0.043132
    50  C    0.164973
    51  C    0.036040
    52  N   -0.280403
    53  H    0.035464
    54  H    0.036448
    55  H    0.031800
    56  H    0.119259
    57  H    0.118925
    58  N   -0.060790
    59  C    0.083620
    60  C    0.254517
    61  N   -0.281273
    62  H    0.026478
    63  C    0.190771
    64  N   -0.309707
    65  H    0.040244
    66  C    0.137351
    67  N   -0.257480
    68  C    0.009451
    69  C    0.181437
    70  N   -0.312172
 Sum of Mulliken charges =  -0.00000

 Dipole moment (field-independent basis, Debye):
    X=             -8.6026    Y=              5.9814    Z=             -2.2208  Tot=             10.7104
 Quadrupole moment (field-independent basis, Debye-Ang):
   XX=           -162.7999   YY=           -216.9584   ZZ=           -254.4361
   XY=              5.2687   XZ=            -12.6891   YZ=             10.2629

 Normal termination of Gaussian 16 at Wed Jan 24 17:34:53 2018.
