 Gaussian 16, Revision A.03,
 Gaussian 16:  EM64L-G16RevA.03 25-Dec-2016

 ---------------------------------------
 #p wb97xd/cc-pvdz sp scf=(maxcycles=20)
 ---------------------------------------

 ------------------
 Base pair stacking
 ------------------
 Symbolic Z-matrix:
 Charge =  0 Multiplicity = 1

                         Standard orientation:
 ---------------------------------------------------------------------
 Center     Atomic      Atomic             Coordinates (Angstroms)
 Number     Number       Type             X           Y           Z
 ---------------------------------------------------------------------
      1          7           0        4.236460   -2.305589   -1.881529
      2          6           0        5.609819   -1.989995   -2.320026
      3          6           0        2.077988   -2.196693   -1.473501
      4          7           0        2.502404   -3.426631   -0.991990
      5          6           0        3.785820   -3.443004   -1.257080
      6          1           0        4.458055   -4.267204   -1.016810
      7          7           0        0.737261   -0.343807   -2.049877
      8          6           0        1.849215    0.210455   -2.543773
      9          1           0        1.721791    1.201434   -2.977329
     10          7           0        3.089108   -0.273369   -2.582341
     11          6           0        3.135693   -1.494521   -2.024633
     12          6           0        0.817176   -1.573156   -1.495437
     13          7           0       -0.291702   -2.128085   -1.001871
     14          1           0       -0.279221   -3.036407   -0.582326
     15          1           0       -1.172230   -1.655089   -1.034638
     16          1           0        5.914647   -2.673367   -2.983550
     17          1           0        5.625435   -1.084953   -2.744030
     18          1           0        6.223871   -1.997119   -1.530797
     19          7           0        5.026594    2.777365    0.614080
     20          6           0        3.699694    2.504506    0.844153
     21          6           0        5.583561    4.110548    0.308939
     22          7           0        0.409801    3.584069    1.114074
     23          1           0       -0.484985    3.182119    1.306522
     24          1           0        0.437114    4.569088    0.941716
     25          7           0        2.689891    3.401257    0.830239
     26          6           0        1.523577    2.836585    1.088071
     27          7           0        1.356783    1.496442    1.340478
     28          1           0        0.427650    1.152103    1.527825
     29          6           0        2.381495    0.555460    1.359905
     30          8           0        2.123716   -0.630848    1.598563
     31          6           0        3.640473    1.147137    1.084644
     32          7           0        4.904750    0.579259    1.007111
     33          6           0        5.692844    1.581498    0.726667
     34          1           0        6.772079    1.503680    0.590830
     35          1           0        6.030251    4.090407   -0.584861
     36          1           0        4.844771    4.783069    0.295937
     37          1           0        6.250536    4.363188    1.009031
     38          1           0       -4.511478   -0.034782    1.749333
     39          1           0       -4.224511   -0.017743    3.487722
     40          1           0       -3.305523    1.056221    2.432533
     41          1           0       -2.362131   -4.299815    2.329300
     42          6           0       -2.098238   -3.243558    2.275386
     43          8           0        0.208308   -3.649796    1.898609
     44          6           0       -0.734999   -2.873244    2.046717
     45          1           0        0.441291   -1.211812    1.836254
     46          7           0       -0.509926   -1.512343    1.996222
     47          8           0       -1.144177    0.666641    2.079561
     48          6           0       -1.440330   -0.513744    2.140019
     49          1           0       -4.078617   -2.521341    2.595208
     50          6           0       -3.028341   -2.292390    2.419590
     51          6           0       -3.761220    0.080877    2.517314
     52          7           0       -2.732306   -0.950420    2.357573
     53          1           0       -5.961670    3.815068   -2.764274
     54          1           0       -4.519348    3.942633   -2.012268
     55          1           0       -5.897883    4.232617   -1.187885
     56          1           0       -3.820248   -2.828006   -0.244458
     57          1           0       -5.455710   -2.346670   -0.305223
     58          7           0       -4.490483   -2.104238   -0.409063
     59          6           0       -4.114866   -0.870310   -0.751824
     60          6           0       -4.476083    1.406526   -1.341148
     61          7           0       -3.172708    1.703463   -1.473291
     62          1           0       -1.347204    0.787064   -1.304874
     63          6           0       -2.422107    0.633250   -1.220054
     64          7           0       -2.796412   -0.603484   -0.876597
     65          1           0       -7.668759    1.915455   -1.345483
     66          6           0       -6.666186    1.492693   -1.274357
     67          7           0       -6.402731    0.249148   -0.955185
     68          6           0       -5.017593    0.181102   -0.993836
     69          6           0       -5.475710    3.673788   -1.901788
     70          7           0       -5.546908    2.249726   -1.521027
 ---------------------------------------------------------------------

 SCF Done:  E(RwB97XD) =  -2048.74402083     A.U. after   15 cycles

 The electronic state is 1-A.
 Alpha  occ. eigenvalues --  -19.25532 -19.21729 -19.20756 -14.52411 -14.52130
 Alpha  occ. eigenvalues --  -14.49147 -14.48888 -14.47738 -14.47423 -14.47021
 Alpha  occ. eigenvalues --  -14.46844 -14.45389 -14.44838 -14.44574 -14.42409
 Alpha  occ. eigenvalues --  -14.42237 -14.41341 -14.40483 -14.40303 -14.40112
 Alpha  occ. eigenvalues --  -10.45131 -10.41444 -10.40379 -10.39819 -10.38401
 Alpha  occ. eigenvalues --  -10.37976 -10.37825 -10.37348 -10.36061 -10.35204
 Alpha  occ. eigenvalues --  -10.34754 -10.34649 -10.33764 -10.33743 -10.33102
 Alpha  occ. eigenvalues --  -10.32893 -10.32664 -10.32632 -10.31246 -10.31045
 Alpha  occ. eigenvalues --  -10.29853 -10.28410 -10.27882  -1.19070  -1.15218
 Alpha  occ. eigenvalues --   -1.13394  -1.12750  -1.10886  -1.10403  -1.09746
 Alpha  occ. eigenvalues --   -1.09009  -1.08740  -1.05220  -1.04733  -1.02110
 Alpha  occ. eigenvalues --   -1.01017  -1.00201  -0.99929  -0.98778  -0.97225
 Alpha  occ. eigenvalues --   -0.96923  -0.96079  -0.92437  -0.90953  -0.87750
 Alpha  occ. eigenvalues --   -0.85896  -0.84430  -0.83278  -0.83133  -0.82802
 Alpha  occ. eigenvalues --   -0.81464  -0.78668  -0.77272  -0.75063  -0.74885
 Alpha  occ. eigenvalues --   -0.73830  -0.73067  -0.72411  -0.70689  -0.70485
 Alpha  occ. eigenvalues --   -0.67600  -0.67103  -0.66312  -0.65819  -0.64562
 Alpha  occ. eigenvalues --   -0.64447  -0.63757  -0.62794  -0.62285  -0.61990
 Alpha  occ. eigenvalues --   -0.60776  -0.60377  -0.59889  -0.59448  -0.59352
 Alpha  occ. eigenvalues --   -0.59158  -0.58546  -0.56925  -0.56111  -0.55877
 Alpha  occ. eigenvalues --   -0.55391  -0.55279  -0.55180  -0.54700  -0.54305
 Alpha  occ. eigenvalues --   -0.53760  -0.53690  -0.53626  -0.53171  -0.52903
 Alpha  occ. eigenvalues --   -0.52718  -0.52144  -0.50980  -0.50379  -0.50130
 Alpha  occ. eigenvalues --   -0.49946  -0.49589  -0.49477  -0.49200  -0.48936
 Alpha  occ. eigenvalues --   -0.48375  -0.48347  -0.48076  -0.47916  -0.47336
 Alpha  occ. eigenvalues --   -0.46313  -0.45684  -0.45405  -0.44526  -0.43679
 Alpha  occ. eigenvalues --   -0.40800  -0.40756  -0.39217  -0.37982  -0.37750
 Alpha  occ. eigenvalues --   -0.37569  -0.37490  -0.36453  -0.35566  -0.35077
 Alpha  occ. eigenvalues --   -0.34619  -0.34222  -0.33137  -0.32932  -0.32875
 Alpha  occ. eigenvalues --   -0.32692  -0.32660  -0.32089  -0.31789  -0.30397
 Alpha  occ. eigenvalues --   -0.30243  -0.29950  -0.25903  -0.25257
 Alpha virt. eigenvalues --    0.03058   0.04004   0.06783   0.08393   0.08735
 Alpha virt. eigenvalues --    0.09034   0.09575   0.10473   0.11326   0.11443
 Alpha virt. eigenvalues --    0.13751   0.14235   0.14437   0.15018   0.15191

 Mulliken charges:
               1
     1  N   -0.311696
     2  C    0.183667
     3  C    0.057105
     4  N   -0.251147
     5  C    0.145446
     6  H    0.026626
     7  N   -0.299382
     8  C    0.130322
     9  H    0.009829
    10  N   -0.283570
    11  C    0.257243
    12  C    0.087849
    13  N   -0.069640
    14  H    0.113826
    15  H    0.082041
    16  H    0.019607
    17  H    0.030776
    18  H    0.031761
    19  N   -0.311330
    20  C    0.253193
    21  C    0.180921
    22  N   -0.123917
    23  H    0.119116
    24  H    0.118541
    25  N   -0.312602
    26  C    0.249893
    27  N   -0.149513
    28  H    0.121088
    29  C    0.195464
    30  O   -0.319796
    31  C   -0.012681
    32  N   -0.232666
    33  C    0.125547
    34  H    0.023526
    35  H    0.027876
    36  H    0.030198
    37  H    0.025443
    38  H    0.062041
    39  H    0.058416
    40  H    0.075550
    41  H    0.027412
    42  C   -0.118505
    43  O   -0.253437
    44  C    0.154410
    45  H    0.136112
    46  N   -0.120773
    47  O   -0.352674
    48  C    0.355290
    49  H    0.040399
    50  C    0.163373
    51  C    0.038906
    52  N   -0.278877
    53  H    0.033928
    54  H    0.041976
    55  H    0.029718
    56  H    0.115985
    57  H    0.118857
    58  N   -0.065718
    59  C    0.082722
    60  C    0.249497
    61  N   -0.272211
    62  H    0.035025
    63  C    0.178073
    64  N   -0.316372
    65  H    0.039189
    66  C    0.141995
    67  N   -0.262423
    68  C    0.025311
    69  C    0.180210
    70  N   -0.312369
 Sum of Mulliken charges =  -0.00000

 Dipole moment (field-independent basis, Debye):
    X=             -8.2529    Y=              6.8552    Z=              0.3060  Tot=             10.7330
 Quadrupole moment (field-independent basis, Debye-Ang):
   XX=           -169.4552   YY=           -214.2731   ZZ=           -247.6017
   XY=              5.3532   XZ=            -17.2137   YZ=              1.9138

 Normal termination of Gaussian 16 at Wed Jan 24 19:27:32 2018.
