 Gaussian 16, Revision A.03,
 Gaussian 16:  EM64L-G16RevA.03 25-Dec-2016

 ---------------------------------------
 #p wb97xd/cc-pvdz sp scf=(maxcycles=20)
 ---------------------------------------

 ------------------
 Base pair stacking
 ------------------
 Symbolic Z-matrix:
 Charge =  0 Multiplicity = 1

                         Standard orientation:
 ---------------------------------------------------------------------
 Center     Atomic      Atomic             Coordinates (Angstroms)
 Number     Number       Type             X           Y           Z
 ---------------------------------------------------------------------
      1          7           0       -6.152655   -1.693703    0.802533
      2          6           0       -7.549125   -1.216814    0.781298
      3          6           0       -3.961754   -1.789778    0.969973
      4          7           0       -4.384775   -3.076366    0.669195
      5          6           0       -5.687777   -2.966990    0.580361
      6          1           0       -6.365040   -3.790762    0.353059
      7          7           0       -2.612351    0.079021    1.469637
      8          6           0       -3.744939    0.787847    1.518660
      9          1           0       -3.621936    1.845720    1.746748
     10          7           0       -5.000758    0.387964    1.329114
     11          6           0       -5.040208   -0.926542    1.055373
     12          6           0       -2.685599   -1.241034    1.191877
     13          7           0       -1.556123   -1.950278    1.142499
     14          1           0       -1.562954   -2.930233    0.940364
     15          1           0       -0.665114   -1.526511    1.305791
     16          1           0       -8.081231   -1.708532    1.470686
     17          1           0       -7.570807   -0.237615    0.980848
     18          1           0       -7.945575   -1.380016   -0.122141
     19          7           0       -3.075577    2.873035   -1.609548
     20          6           0       -1.759902    2.496555   -1.485741
     21          6           0       -3.590192    4.246584   -1.438546
     22          7           0        1.556373    3.314659   -0.857480
     23          1           0        2.436855    2.843383   -0.813873
     24          1           0        1.559535    4.299286   -0.680839
     25          7           0       -0.724538    3.311591   -1.189457
     26          6           0        0.421871    2.656665   -1.140062
     27          7           0        0.546920    1.306862   -1.363426
     28          1           0        1.463455    0.890350   -1.304772
     29          6           0       -0.504685    0.448870   -1.669746
     30          8           0       -0.284086   -0.754653   -1.853052
     31          6           0       -1.742729    1.138013   -1.726329
     32          7           0       -3.021868    0.671004   -1.995764
     33          6           0       -3.777342    1.732630   -1.915573
     34          1           0       -4.856705    1.739874   -2.071115
     35          1           0       -4.257792    4.264034   -0.695037
     36          1           0       -2.832186    4.859286   -1.218773
     37          1           0       -4.026711    4.548594   -2.285337
     38          1           0        6.179602   -0.679916   -0.234752
     39          1           0        6.365354   -0.645520   -1.986598
     40          1           0        5.284376    0.500102   -1.192610
     41          1           0        3.942025   -4.765407   -1.438321
     42          6           0        3.754559   -3.691587   -1.437114
     43          8           0        1.406581   -3.915042   -1.690458
     44          6           0        2.411770   -3.215101   -1.570138
     45          1           0        1.351874   -1.466133   -1.648175
     46          7           0        2.285728   -1.840624   -1.556512
     47          8           0        3.083539    0.281816   -1.430247
     48          6           0        3.294296   -0.918292   -1.431470
     49          1           0        5.797999   -3.127423   -1.209373
     50          6           0        4.759323   -2.816512   -1.313397
     51          6           0        5.670553   -0.508142   -1.171460
     52          7           0        4.560588   -1.455327   -1.307745
     53          1           0        4.111972    3.956629    3.028458
     54          1           0        2.923549    3.973402    1.910672
     55          1           0        4.486412    3.992914    1.440416
     56          1           0        1.952411   -2.980716    1.520147
     57          1           0        3.564178   -2.579133    1.908805
     58          7           0        2.635567   -2.272180    1.697418
     59          6           0        2.323182   -0.975369    1.654111
     60          6           0        2.772450    1.355781    1.814137
     61          7           0        1.517216    1.738832    1.527662
     62          1           0       -0.298128    0.898874    1.080882
     63          6           0        0.740977    0.677060    1.320254
     64          7           0        1.051979   -0.622566    1.363170
     65          1           0        5.900347    1.694751    2.558132
     66          6           0        4.906817    1.316640    2.315516
     67          7           0        4.597061    0.047304    2.213054
     68          6           0        3.246597    0.058054    1.895494
     69          6           0        3.842406    3.639685    2.119133
     70          7           0        3.850450    2.164258    2.086666
 ---------------------------------------------------------------------

 SCF Done:  E(RwB97XD) =  -2048.74289735     A.U. after   15 cycles

 The electronic state is 1-A.
 Alpha  occ. eigenvalues --  -19.25913 -19.22144 -19.20612 -14.52475 -14.52211
 Alpha  occ. eigenvalues --  -14.48710 -14.48526 -14.47894 -14.47865 -14.46857
 Alpha  occ. eigenvalues --  -14.46512 -14.45240 -14.43823 -14.43643 -14.42094
 Alpha  occ. eigenvalues --  -14.42016 -14.41173 -14.40724 -14.40702 -14.40001
 Alpha  occ. eigenvalues --  -10.45519 -10.41091 -10.40230 -10.39516 -10.38175
 Alpha  occ. eigenvalues --  -10.37920 -10.37732 -10.36779 -10.35288 -10.35225
 Alpha  occ. eigenvalues --  -10.34976 -10.34280 -10.33949 -10.33852 -10.33202
 Alpha  occ. eigenvalues --  -10.33111 -10.32894 -10.32237 -10.31248 -10.30858
 Alpha  occ. eigenvalues --  -10.30796 -10.28284 -10.28038  -1.19478  -1.14888
 Alpha  occ. eigenvalues --   -1.13194  -1.13140  -1.11098  -1.10535  -1.09356
 Alpha  occ. eigenvalues --   -1.08892  -1.08489  -1.04783  -1.04437  -1.02521
 Alpha  occ. eigenvalues --   -1.00732  -1.00241  -0.99687  -0.98517  -0.96778
 Alpha  occ. eigenvalues --   -0.96520  -0.96368  -0.92450  -0.91132  -0.87319
 Alpha  occ. eigenvalues --   -0.85753  -0.84038  -0.83717  -0.83531  -0.82445
 Alpha  occ. eigenvalues --   -0.82114  -0.78940  -0.76698  -0.74586  -0.74447
 Alpha  occ. eigenvalues --   -0.73620  -0.73384  -0.72704  -0.70850  -0.70114
 Alpha  occ. eigenvalues --   -0.67328  -0.66570  -0.66489  -0.66112  -0.64462
 Alpha  occ. eigenvalues --   -0.63989  -0.63744  -0.62709  -0.62522  -0.61677
 Alpha  occ. eigenvalues --   -0.60336  -0.60180  -0.60023  -0.59543  -0.59306
 Alpha  occ. eigenvalues --   -0.59190  -0.58307  -0.56694  -0.56364  -0.56163
 Alpha  occ. eigenvalues --   -0.56001  -0.55345  -0.55110  -0.54681  -0.54371
 Alpha  occ. eigenvalues --   -0.53795  -0.53636  -0.53137  -0.52997  -0.52927
 Alpha  occ. eigenvalues --   -0.52441  -0.52335  -0.51584  -0.50530  -0.50147
 Alpha  occ. eigenvalues --   -0.50022  -0.49473  -0.49452  -0.48853  -0.48783
 Alpha  occ. eigenvalues --   -0.48601  -0.48408  -0.48219  -0.47757  -0.47370
 Alpha  occ. eigenvalues --   -0.46735  -0.45659  -0.44783  -0.44393  -0.43966
 Alpha  occ. eigenvalues --   -0.40928  -0.40466  -0.39468  -0.37591  -0.37445
 Alpha  occ. eigenvalues --   -0.37234  -0.36962  -0.36884  -0.35952  -0.34654
 Alpha  occ. eigenvalues --   -0.34102  -0.33500  -0.33293  -0.33268  -0.32973
 Alpha  occ. eigenvalues --   -0.32620  -0.32378  -0.32063  -0.31790  -0.30665
 Alpha  occ. eigenvalues --   -0.30220  -0.29534  -0.25767  -0.25100
 Alpha virt. eigenvalues --    0.02923   0.04393   0.07369   0.08211   0.08495
 Alpha virt. eigenvalues --    0.09282   0.09661   0.10853   0.11302   0.11679
 Alpha virt. eigenvalues --    0.12480   0.14190   0.14480   0.14599   0.15097

 Mulliken charges:
               1
     1  N   -0.312585
     2  C    0.181170
     3  C    0.044067
     4  N   -0.259875
     5  C    0.134787
     6  H    0.025815
     7  N   -0.292132
     8  C    0.138446
     9  H    0.007939
    10  N   -0.292382
    11  C    0.249074
    12  C    0.120065
    13  N   -0.055648
    14  H    0.110274
    15  H    0.086014
    16  H    0.024620
    17  H    0.032469
    18  H    0.026217
    19  N   -0.311230
    20  C    0.247239
    21  C    0.180664
    22  N   -0.098608
    23  H    0.112983
    24  H    0.113694
    25  N   -0.303749
    26  C    0.223813
    27  N   -0.136113
    28  H    0.118155
    29  C    0.167151
    30  O   -0.320016
    31  C    0.005173
    32  N   -0.225623
    33  C    0.130389
    34  H    0.025038
    35  H    0.029749
    36  H    0.027917
    37  H    0.024230
    38  H    0.063070
    39  H    0.057909
    40  H    0.071906
    41  H    0.030592
    42  C   -0.111658
    43  O   -0.265202
    44  C    0.162638
    45  H    0.133812
    46  N   -0.122722
    47  O   -0.344864
    48  C    0.345080
    49  H    0.048098
    50  C    0.165952
    51  C    0.040436
    52  N   -0.286140
    53  H    0.036223
    54  H    0.037750
    55  H    0.025670
    56  H    0.127324
    57  H    0.115412
    58  N   -0.063346
    59  C    0.079529
    60  C    0.235925
    61  N   -0.268064
    62  H    0.039000
    63  C    0.166188
    64  N   -0.301016
    65  H    0.034540
    66  C    0.136486
    67  N   -0.267279
    68  C    0.037216
    69  C    0.174243
    70  N   -0.313897
 Sum of Mulliken charges =  -0.00000

 Dipole moment (field-independent basis, Debye):
    X=              8.4515    Y=              5.7307    Z=              2.1858  Tot=             10.4425
 Quadrupole moment (field-independent basis, Debye-Ang):
   XX=           -154.6237   YY=           -216.5584   ZZ=           -253.6181
   XY=             -1.1976   XZ=              3.3096   YZ=             -7.7450

 Normal termination of Gaussian 16 at Wed Jan 24 08:19:10 2018.
