 Gaussian 16, Revision A.03,
 Gaussian 16:  EM64L-G16RevA.03 25-Dec-2016

 ---------------------------------------
 #p wb97xd/cc-pvdz sp scf=(maxcycles=20)
 ---------------------------------------

 ------------------
 Base pair stacking
 ------------------
 Symbolic Z-matrix:
 Charge =  0 Multiplicity = 1

                         Standard orientation:
 ---------------------------------------------------------------------
 Center     Atomic      Atomic             Coordinates (Angstroms)
 Number     Number       Type             X           Y           Z
 ---------------------------------------------------------------------
      1          7           0       -6.733162   -1.588835    0.348086
      2          6           0       -8.131149   -1.115962    0.354739
      3          6           0       -4.548149   -1.706771    0.569711
      4          7           0       -4.953515   -2.932787    0.062474
      5          6           0       -6.253688   -2.812660   -0.050744
      6          1           0       -6.918316   -3.592829   -0.422972
      7          7           0       -3.226786    0.065315    1.392304
      8          6           0       -4.364671    0.756966    1.512301
      9          1           0       -4.255456    1.767706    1.903123
     10          7           0       -5.611356    0.389269    1.223370
     11          6           0       -5.634039   -0.868012    0.750986
     12          6           0       -3.283075   -1.196882    0.913993
     13          7           0       -2.148287   -1.888914    0.793473
     14          1           0       -2.142695   -2.826469    0.443951
     15          1           0       -1.265529   -1.494013    1.048314
     16          1           0       -8.681887   -1.707889    0.943374
     17          1           0       -8.165151   -0.178787    0.700673
     18          1           0       -8.497657   -1.139650   -0.575370
     19          7           0       -2.355713    2.979268   -1.808689
     20          6           0       -1.055506    2.571498   -1.631962
     21          6           0       -2.826139    4.378118   -1.757515
     22          7           0        2.276783    3.329591   -1.013144
     23          1           0        3.140094    2.835048   -0.916392
     24          1           0        2.310556    4.324649   -0.916033
     25          7           0        0.002260    3.373759   -1.383865
     26          6           0        1.125041    2.688107   -1.261933
     27          7           0        1.207752    1.321320   -1.374050
     28          1           0        2.108722    0.881377   -1.266062
     29          6           0        0.132456    0.475984   -1.628991
     30          8           0        0.314980   -0.744940   -1.711235
     31          6           0       -1.080636    1.198131   -1.762447
     32          7           0       -2.370658    0.752657   -2.015987
     33          6           0       -3.090949    1.841258   -2.034530
     34          1           0       -4.167016    1.870945   -2.209104
     35          1           0       -3.503784    4.477221   -1.029659
     36          1           0       -2.051235    4.981639   -1.574314
     37          1           0       -3.239532    4.624760   -2.633355
     38          1           0        6.752657   -0.749598    0.009266
     39          1           0        6.965574   -0.862855   -1.736161
     40          1           0        5.912181    0.377635   -1.055775
     41          1           0        4.396577   -4.844161   -0.901815
     42          6           0        4.245485   -3.768230   -0.990063
     43          8           0        1.895343   -3.935084   -1.265909
     44          6           0        2.921686   -3.260706   -1.184475
     45          1           0        1.922748   -1.490282   -1.421205
     46          7           0        2.841950   -1.886255   -1.283384
     47          8           0        3.709022    0.212418   -1.313805
     48          6           0        3.879116   -0.990061   -1.215021
     49          1           0        6.303196   -3.254157   -0.772416
     50          6           0        5.277271   -2.919104   -0.919301
     51          6           0        6.263724   -0.637613   -0.947009
     52          7           0        5.124566   -1.556171   -1.026364
     53          1           0        3.420731    3.667111    3.741764
     54          1           0        2.268371    3.853106    2.601772
     55          1           0        3.845259    3.946101    2.190840
     56          1           0        1.352702   -2.960796    1.122683
     57          1           0        2.948805   -2.621421    1.620068
     58          7           0        2.025524   -2.286866    1.428086
     59          6           0        1.706750   -0.999048    1.573226
     60          6           0        2.136442    1.280803    2.101818
     61          7           0        0.888628    1.701643    1.836721
     62          1           0       -0.906422    0.937687    1.208403
     63          6           0        0.125891    0.683120    1.444597
     64          7           0        0.443308   -0.607417    1.298594
     65          1           0        5.236959    1.505799    2.989688
     66          6           0        4.253974    1.168034    2.660141
     67          7           0        3.955407   -0.071105    2.355085
     68          6           0        2.615678   -0.013551    1.999346
     69          6           0        3.182161    3.492541    2.786459
     70          7           0        3.200262    2.039417    2.529340
 ---------------------------------------------------------------------

 SCF Done:  E(RwB97XD) =  -2048.74315322     A.U. after   15 cycles

 The electronic state is 1-A.
 Alpha  occ. eigenvalues --  -19.26138 -19.22705 -19.20841 -14.52825 -14.51476
 Alpha  occ. eigenvalues --  -14.48921 -14.48629 -14.48183 -14.47255 -14.47186
 Alpha  occ. eigenvalues --  -14.46602 -14.44533 -14.43008 -14.42922 -14.42302
 Alpha  occ. eigenvalues --  -14.41864 -14.41282 -14.40935 -14.40701 -14.39921
 Alpha  occ. eigenvalues --  -10.45804 -10.41561 -10.40743 -10.38581 -10.38460
 Alpha  occ. eigenvalues --  -10.38344 -10.37085 -10.36028 -10.35443 -10.35162
 Alpha  occ. eigenvalues --  -10.34562 -10.34439 -10.33944 -10.33377 -10.33193
 Alpha  occ. eigenvalues --  -10.33193 -10.32886 -10.31584 -10.31550 -10.31004
 Alpha  occ. eigenvalues --  -10.30860 -10.28345 -10.28326  -1.19747  -1.14158
 Alpha  occ. eigenvalues --   -1.13696  -1.13462  -1.11200  -1.10764  -1.09710
 Alpha  occ. eigenvalues --   -1.08876  -1.07951  -1.04749  -1.03569  -1.02889
 Alpha  occ. eigenvalues --   -1.00191  -1.00179  -0.99937  -0.98768  -0.96797
 Alpha  occ. eigenvalues --   -0.96736  -0.95517  -0.92391  -0.91525  -0.86560
 Alpha  occ. eigenvalues --   -0.84979  -0.84307  -0.83943  -0.83785  -0.82662
 Alpha  occ. eigenvalues --   -0.82161  -0.79319  -0.75892  -0.74847  -0.73997
 Alpha  occ. eigenvalues --   -0.73760  -0.73589  -0.72698  -0.70857  -0.69280
 Alpha  occ. eigenvalues --   -0.67698  -0.66953  -0.66096  -0.65621  -0.64816
 Alpha  occ. eigenvalues --   -0.64038  -0.63106  -0.62933  -0.62467  -0.62070
 Alpha  occ. eigenvalues --   -0.60046  -0.59960  -0.59909  -0.59388  -0.58930
 Alpha  occ. eigenvalues --   -0.58752  -0.58464  -0.56788  -0.56332  -0.56276
 Alpha  occ. eigenvalues --   -0.56264  -0.55164  -0.54800  -0.54673  -0.54262
 Alpha  occ. eigenvalues --   -0.53926  -0.53715  -0.53194  -0.52782  -0.52736
 Alpha  occ. eigenvalues --   -0.52499  -0.51763  -0.51600  -0.50565  -0.50443
 Alpha  occ. eigenvalues --   -0.50013  -0.49822  -0.49246  -0.49112  -0.49045
 Alpha  occ. eigenvalues --   -0.48504  -0.48447  -0.48004  -0.47872  -0.47679
 Alpha  occ. eigenvalues --   -0.46775  -0.45615  -0.44885  -0.44552  -0.43356
 Alpha  occ. eigenvalues --   -0.40945  -0.39740  -0.39624  -0.37567  -0.37469
 Alpha  occ. eigenvalues --   -0.37055  -0.36982  -0.36419  -0.35711  -0.34588
 Alpha  occ. eigenvalues --   -0.33839  -0.33628  -0.33314  -0.33214  -0.32928
 Alpha  occ. eigenvalues --   -0.32881  -0.32602  -0.32459  -0.31999  -0.30737
 Alpha  occ. eigenvalues --   -0.30160  -0.28802  -0.25706  -0.25529
 Alpha virt. eigenvalues --    0.02448   0.05088   0.07539   0.08149   0.08502
 Alpha virt. eigenvalues --    0.09273   0.09435   0.11199   0.11526   0.11968
 Alpha virt. eigenvalues --    0.12596   0.14095   0.14684   0.14831   0.15236

 Mulliken charges:
               1
     1  N   -0.311044
     2  C    0.180993
     3  C    0.034610
     4  N   -0.258275
     5  C    0.132652
     6  H    0.025754
     7  N   -0.293287
     8  C    0.133024
     9  H    0.009009
    10  N   -0.291545
    11  C    0.240502
    12  C    0.124995
    13  N   -0.052730
    14  H    0.110735
    15  H    0.091301
    16  H    0.025198
    17  H    0.034131
    18  H    0.025194
    19  N   -0.312115
    20  C    0.246919
    21  C    0.181353
    22  N   -0.123191
    23  H    0.114954
    24  H    0.116807
    25  N   -0.304111
    26  C    0.240554
    27  N   -0.132770
    28  H    0.113775
    29  C    0.162761
    30  O   -0.319569
    31  C    0.002594
    32  N   -0.222784
    33  C    0.131124
    34  H    0.029947
    35  H    0.030046
    36  H    0.028282
    37  H    0.024973
    38  H    0.064188
    39  H    0.059173
    40  H    0.073910
    41  H    0.032125
    42  C   -0.109781
    43  O   -0.271156
    44  C    0.144185
    45  H    0.135970
    46  N   -0.118722
    47  O   -0.349422
    48  C    0.357155
    49  H    0.050738
    50  C    0.174291
    51  C    0.043221
    52  N   -0.291027
    53  H    0.032031
    54  H    0.044200
    55  H    0.018109
    56  H    0.129184
    57  H    0.110833
    58  N   -0.057687
    59  C    0.092874
    60  C    0.236983
    61  N   -0.262874
    62  H    0.046625
    63  C    0.158189
    64  N   -0.297904
    65  H    0.030069
    66  C    0.132324
    67  N   -0.269904
    68  C    0.024147
    69  C    0.179321
    70  N   -0.312133
 Sum of Mulliken charges =  -0.00000

 Dipole moment (field-independent basis, Debye):
    X=              8.8279    Y=              5.5984    Z=              1.3940  Tot=             10.5459
 Quadrupole moment (field-independent basis, Debye-Ang):
   XX=           -150.0159   YY=           -216.6576   ZZ=           -249.9689
   XY=             -0.1454   XZ=              9.8894   YZ=             -5.1066

 Normal termination of Gaussian 16 at Wed Jan 24 17:46:03 2018.
