 Gaussian 16, Revision A.03,
 Gaussian 16:  EM64L-G16RevA.03 25-Dec-2016

 ---------------------------------------
 #p wb97xd/cc-pvdz sp scf=(maxcycles=20)
 ---------------------------------------

 ------------------
 Base pair stacking
 ------------------
 Symbolic Z-matrix:
 Charge =  0 Multiplicity = 1

                         Standard orientation:
 ---------------------------------------------------------------------
 Center     Atomic      Atomic             Coordinates (Angstroms)
 Number     Number       Type             X           Y           Z
 ---------------------------------------------------------------------
      1          7           0       -7.107767   -1.529657    0.183033
      2          6           0       -8.467651   -1.051442   -0.133268
      3          6           0       -4.958678   -1.615339    0.642781
      4          7           0       -5.404847   -2.928891    0.627004
      5          6           0       -6.681739   -2.824695    0.350653
      6          1           0       -7.366489   -3.667993    0.256273
      7          7           0       -3.588913    0.296716    0.818123
      8          6           0       -4.684114    1.012764    0.543581
      9          1           0       -4.538031    2.091558    0.509930
     10          7           0       -5.926845    0.598238    0.305502
     11          6           0       -5.997034   -0.741617    0.370841
     12          6           0       -3.692404   -1.048998    0.876760
     13          7           0       -2.600265   -1.765495    1.150670
     14          1           0       -2.630413   -2.764228    1.204061
     15          1           0       -1.715188   -1.328658    1.311761
     16          1           0       -9.099762   -1.340499    0.585802
     17          1           0       -8.465516   -0.053633   -0.192524
     18          1           0       -8.763001   -1.434992   -1.008270
     19          7           0       -2.033785    2.640947   -1.673839
     20          6           0       -0.741247    2.271977   -1.388780
     21          6           0       -2.591487    3.997702   -1.503904
     22          7           0        2.441609    3.089062   -0.264689
     23          1           0        3.315928    2.625291   -0.124251
     24          1           0        2.402813    4.062577   -0.037822
     25          7           0        0.228671    3.080375   -0.909391
     26          6           0        1.368822    2.435693   -0.736022
     27          7           0        1.547543    1.101443   -1.010503
     28          1           0        2.454521    0.691909   -0.847322
     29          6           0        0.563700    0.250530   -1.504328
     30          8           0        0.828901   -0.938855   -1.718265
     31          6           0       -0.666823    0.928824   -1.695720
     32          7           0       -1.888061    0.463921   -2.164052
     33          6           0       -2.666186    1.511687   -2.133704
     34          1           0       -3.713750    1.516163   -2.436799
     35          1           0       -3.355434    3.967652   -0.860255
     36          1           0       -1.882086    4.605356   -1.149266
     37          1           0       -2.912397    4.340866   -2.385983
     38          1           0        7.005340   -0.885218    0.782233
     39          1           0        7.430223   -0.753439   -0.922692
     40          1           0        6.229827    0.335888   -0.227154
     41          1           0        5.028351   -4.922072   -0.932952
     42          6           0        4.823373   -3.851920   -0.901328
     43          8           0        2.537118   -4.085644   -1.489137
     44          6           0        3.503462   -3.382883   -1.194000
     45          1           0        2.433421   -1.643389   -1.326225
     46          7           0        3.352247   -2.012581   -1.125781
     47          8           0        4.087030    0.107998   -0.778770
     48          6           0        4.317316   -1.088002   -0.813817
     49          1           0        6.805502   -3.279796   -0.363138
     50          6           0        5.785703   -2.974492   -0.593688
     51          6           0        6.627323   -0.667938   -0.205675
     52          7           0        5.563836   -1.617770   -0.544121
     53          1           0        3.085047    4.333989    2.174937
     54          1           0        2.037802    4.082183    0.949388
     55          1           0        3.644091    3.954441    0.689397
     56          1           0        0.786435   -2.721528    2.213939
     57          1           0        2.359031   -2.259977    2.687233
     58          7           0        1.477346   -2.002531    2.290256
     59          6           0        1.234779   -0.755555    1.881146
     60          6           0        1.773599    1.530639    1.500696
     61          7           0        0.580346    1.847643    0.971450
     62          1           0       -1.208429    0.950927    0.527873
     63          6           0       -0.216330    0.781124    0.943998
     64          7           0        0.024777   -0.468646    1.353274
     65          1           0        4.805554    1.998223    2.520876
     66          6           0        3.830244    1.586781    2.259270
     67          7           0        3.474060    0.339042    2.443560
     68          6           0        2.172116    0.289898    1.966827
     69          6           0        2.908866    3.798283    1.349119
     70          7           0        2.849842    2.364225    1.692604
 ---------------------------------------------------------------------

 SCF Done:  E(RwB97XD) =  -2048.41136427     A.U. after   16 cycles

 The electronic state is 1-A.
 Alpha  occ. eigenvalues --  -19.25918 -19.21949 -19.20319 -14.52477 -14.52261
 Alpha  occ. eigenvalues --  -14.49392 -14.48704 -14.47903 -14.47581 -14.45621
 Alpha  occ. eigenvalues --  -14.44891 -14.44796 -14.43507 -14.42939 -14.42684
 Alpha  occ. eigenvalues --  -14.42104 -14.41631 -14.41139 -14.40846 -14.40783
 Alpha  occ. eigenvalues --  -10.45541 -10.41227 -10.40082 -10.39284 -10.37940
 Alpha  occ. eigenvalues --  -10.37804 -10.37566 -10.36356 -10.36131 -10.35386
 Alpha  occ. eigenvalues --  -10.34752 -10.34656 -10.34623 -10.34234 -10.34056
 Alpha  occ. eigenvalues --  -10.33846 -10.33460 -10.32080 -10.31406 -10.31113
 Alpha  occ. eigenvalues --  -10.30899 -10.29260 -10.28273  -1.19487  -1.17507
 Alpha  occ. eigenvalues --   -1.13267  -1.12984  -1.12008  -1.10730  -1.10504
 Alpha  occ. eigenvalues --   -1.09358  -1.09000  -1.05717  -1.05628  -1.03743
 Alpha  occ. eigenvalues --   -1.02512  -1.01154  -0.98921  -0.98487  -0.97613
 Alpha  occ. eigenvalues --   -0.96640  -0.96382  -0.93349  -0.91074  -0.90129
 Alpha  occ. eigenvalues --   -0.86645  -0.84581  -0.83837  -0.83736  -0.82913
 Alpha  occ. eigenvalues --   -0.82468  -0.78907  -0.77135  -0.75097  -0.75009
 Alpha  occ. eigenvalues --   -0.74584  -0.73602  -0.73397  -0.71862  -0.71753
 Alpha  occ. eigenvalues --   -0.69630  -0.67615  -0.66984  -0.66572  -0.65748
 Alpha  occ. eigenvalues --   -0.64596  -0.64213  -0.63536  -0.63383  -0.62976
 Alpha  occ. eigenvalues --   -0.61763  -0.60848  -0.60610  -0.60071  -0.59546
 Alpha  occ. eigenvalues --   -0.59494  -0.58978  -0.57218  -0.56916  -0.56693
 Alpha  occ. eigenvalues --   -0.56190  -0.55904  -0.55015  -0.54527  -0.54442
 Alpha  occ. eigenvalues --   -0.53797  -0.53400  -0.52872  -0.52852  -0.52502
 Alpha  occ. eigenvalues --   -0.52319  -0.52175  -0.51597  -0.51356  -0.50815
 Alpha  occ. eigenvalues --   -0.50044  -0.49764  -0.49456  -0.49377  -0.48781
 Alpha  occ. eigenvalues --   -0.48360  -0.48263  -0.47731  -0.47619  -0.47363
 Alpha  occ. eigenvalues --   -0.46537  -0.45703  -0.45412  -0.44016  -0.42355
 Alpha  occ. eigenvalues --   -0.41894  -0.39537  -0.39031  -0.37937  -0.37833
 Alpha  occ. eigenvalues --   -0.37143  -0.36930  -0.36247  -0.35656  -0.34414
 Alpha  occ. eigenvalues --   -0.34211  -0.34138  -0.33226  -0.33017  -0.32482
 Alpha  occ. eigenvalues --   -0.32343  -0.31964  -0.31746  -0.31593  -0.31354
 Alpha  occ. eigenvalues --   -0.31066  -0.28885  -0.26506  -0.23761
 Alpha virt. eigenvalues --    0.03104   0.03552   0.06690   0.07241   0.08292
 Alpha virt. eigenvalues --    0.08617   0.09864   0.10187   0.10565   0.12541
 Alpha virt. eigenvalues --    0.12748   0.13645   0.13784   0.14131   0.15252

 Mulliken charges:
               1
     1  N   -0.311755
     2  C    0.180913
     3  C    0.032230
     4  N   -0.260245
     5  C    0.135521
     6  H    0.028819
     7  N   -0.285690
     8  C    0.126909
     9  H    0.008190
    10  N   -0.286094
    11  C    0.244770
    12  C    0.124075
    13  N   -0.059154
    14  H    0.107106
    15  H    0.088419
    16  H    0.026387
    17  H    0.035463
    18  H    0.027692
    19  N   -0.307334
    20  C    0.210242
    21  C    0.183067
    22  N   -0.042674
    23  H    0.107899
    24  H    0.092606
    25  N   -0.233990
    26  C    0.114340
    27  N   -0.087818
    28  H    0.118567
    29  C    0.138985
    30  O   -0.321481
    31  C   -0.004686
    32  N   -0.216545
    33  C    0.128552
    34  H    0.032336
    35  H    0.025163
    36  H    0.026945
    37  H    0.025285
    38  H    0.061334
    39  H    0.059608
    40  H    0.071017
    41  H    0.032010
    42  C   -0.111820
    43  O   -0.263934
    44  C    0.179215
    45  H    0.134663
    46  N   -0.140982
    47  O   -0.348507
    48  C    0.365236
    49  H    0.047718
    50  C    0.171185
    51  C    0.043982
    52  N   -0.297670
    53  H   -0.023030
    54  H    0.015647
    55  H   -0.029600
    56  H    0.121484
    57  H    0.116867
    58  N   -0.067978
    59  C    0.115031
    60  C    0.219070
    61  N   -0.253973
    62  H    0.068985
    63  C    0.159801
    64  N   -0.296765
    65  H    0.031636
    66  C    0.121890
    67  N   -0.262553
    68  C    0.038284
    69  C    0.302861
    70  N   -0.333723
 Sum of Mulliken charges =  -0.00000

 Dipole moment (field-independent basis, Debye):
    X=              7.0627    Y=              4.8721    Z=              3.8744  Tot=              9.4143
 Quadrupole moment (field-independent basis, Debye-Ang):
   XX=           -146.4829   YY=           -222.9514   ZZ=           -254.9289
   XY=              3.4677   XZ=             13.2983   YZ=            -14.3036

 Normal termination of Gaussian 16 at Wed Jan 24 23:35:20 2018.
