 Gaussian 16, Revision A.03,
 Gaussian 16:  EM64L-G16RevA.03 25-Dec-2016

 ---------------------------------------
 #p wb97xd/cc-pvdz sp scf=(maxcycles=20)
 ---------------------------------------

 ------------------
 Base pair stacking
 ------------------
 Symbolic Z-matrix:
 Charge =  0 Multiplicity = 1

                         Standard orientation:
 ---------------------------------------------------------------------
 Center     Atomic      Atomic             Coordinates (Angstroms)
 Number     Number       Type             X           Y           Z
 ---------------------------------------------------------------------
      1          7           0       -4.929899   -2.243360    1.518179
      2          6           0       -6.316135   -1.916255    1.904647
      3          6           0       -2.748809   -2.178780    1.242552
      4          7           0       -3.182461   -3.347622    0.633878
      5          6           0       -4.479130   -3.339752    0.824300
      6          1           0       -5.161541   -4.115903    0.476677
      7          7           0       -1.386956   -0.430782    2.050531
      8          6           0       -2.508147    0.119842    2.527305
      9          1           0       -2.375497    1.065543    3.051054
     10          7           0       -3.762712   -0.320261    2.454573
     11          6           0       -3.814607   -1.487635    1.792016
     12          6           0       -1.472560   -1.605386    1.388663
     13          7           0       -0.354471   -2.156609    0.912005
     14          1           0       -0.370673   -3.025327    0.415744
     15          1           0        0.536988   -1.720258    1.034637
     16          1           0       -6.680752   -2.641566    2.488730
     17          1           0       -6.328338   -1.050148    2.403483
     18          1           0       -6.882575   -1.834663    1.084598
     19          7           0       -4.362898    2.993109   -0.918392
     20          6           0       -3.033492    2.682473   -1.074071
     21          6           0       -4.897347    4.340384   -0.635717
     22          7           0        0.296591    3.665818   -1.146900
     23          1           0        1.188848    3.238706   -1.290747
     24          1           0        0.288168    4.650205   -0.969025
     25          7           0       -2.000416    3.548865   -0.995592
     26          6           0       -0.838179    2.951460   -1.190366
     27          7           0       -0.696330    1.608459   -1.442810
     28          1           0        0.231591    1.237887   -1.579156
     29          6           0       -1.745262    0.698311   -1.527966
     30          8           0       -1.508912   -0.493699   -1.760317
     31          6           0       -3.000183    1.325356   -1.320905
     32          7           0       -4.282865    0.794668   -1.320209
     33          6           0       -5.056180    1.818138   -1.077911
     34          1           0       -6.143265    1.771475   -1.004740
     35          1           0       -5.395094    4.328286    0.230831
     36          1           0       -4.141202    4.990677   -0.575373
     37          1           0       -5.515283    4.616679   -1.370976
     38          1           0        5.138533   -0.093229   -1.526068
     39          1           0        4.952638   -0.057652   -3.277875
     40          1           0        4.006229    1.036896   -2.269089
     41          1           0        2.902522   -4.289421   -2.260143
     42          6           0        2.666913   -3.226146   -2.213542
     43          8           0        0.331643   -3.566175   -1.972645
     44          6           0        1.304170   -2.817014   -2.060632
     45          1           0        0.166721   -1.122772   -1.905519
     46          7           0        1.116384   -1.450372   -2.012947
     47          8           0        1.817710    0.709353   -2.043509
     48          6           0        2.082265   -0.478903   -2.095716
     49          1           0        4.682647   -2.560960   -2.413936
     50          6           0        3.631128   -2.302079   -2.297097
     51          6           0        4.437379    0.049005   -2.334903
     52          7           0        3.371322   -0.952316   -2.242119
     53          1           0        5.385274    3.407744    3.494449
     54          1           0        3.994428    3.650337    2.676649
     55          1           0        5.427518    3.958555    1.958786
     56          1           0        3.188892   -2.917654    0.295886
     57          1           0        4.832215   -2.502710    0.489351
     58          7           0        3.870618   -2.235070    0.559473
     59          6           0        3.514303   -1.021573    0.985681
     60          6           0        3.911342    1.182969    1.788214
     61          7           0        2.612386    1.514760    1.872254
     62          1           0        0.772161    0.682527    1.523585
     63          6           0        1.844839    0.497555    1.486154
     64          7           0        2.199802   -0.718621    1.058951
     65          1           0        7.112583    1.573729    2.015123
     66          6           0        6.103190    1.195055    1.851820
     67          7           0        5.820168   -0.006851    1.412491
     68          6           0        4.433701   -0.027682    1.367522
     69          6           0        4.946753    3.357273    2.597145
     70          7           0        4.995596    1.968683    2.099732
 ---------------------------------------------------------------------

 SCF Done:  E(RwB97XD) =  -2048.74298048     A.U. after   15 cycles

 The electronic state is 1-A.
 Alpha  occ. eigenvalues --  -19.25890 -19.22280 -19.20718 -14.52585 -14.52337
 Alpha  occ. eigenvalues --  -14.49022 -14.48381 -14.47859 -14.47730 -14.47073
 Alpha  occ. eigenvalues --  -14.46883 -14.45398 -14.44455 -14.44299 -14.42216
 Alpha  occ. eigenvalues --  -14.41683 -14.41131 -14.40294 -14.40181 -14.39698
 Alpha  occ. eigenvalues --  -10.45562 -10.41445 -10.40393 -10.40050 -10.38369
 Alpha  occ. eigenvalues --  -10.38322 -10.37947 -10.37161 -10.35755 -10.35099
 Alpha  occ. eigenvalues --  -10.34772 -10.34562 -10.33713 -10.33563 -10.33060
 Alpha  occ. eigenvalues --  -10.32699 -10.32456 -10.32399 -10.31325 -10.31142
 Alpha  occ. eigenvalues --  -10.30081 -10.28317 -10.27635  -1.19472  -1.15113
 Alpha  occ. eigenvalues --   -1.13368  -1.13277  -1.10788  -1.10330  -1.09643
 Alpha  occ. eigenvalues --   -1.09262  -1.08737  -1.04939  -1.04339  -1.02564
 Alpha  occ. eigenvalues --   -1.00929  -0.99946  -0.99739  -0.98735  -0.96942
 Alpha  occ. eigenvalues --   -0.96817  -0.95985  -0.92028  -0.91408  -0.87572
 Alpha  occ. eigenvalues --   -0.85792  -0.84336  -0.83659  -0.83033  -0.82718
 Alpha  occ. eigenvalues --   -0.81443  -0.79127  -0.77063  -0.74843  -0.74825
 Alpha  occ. eigenvalues --   -0.73838  -0.73485  -0.72139  -0.70482  -0.70241
 Alpha  occ. eigenvalues --   -0.67589  -0.66898  -0.66702  -0.65533  -0.64662
 Alpha  occ. eigenvalues --   -0.64284  -0.63970  -0.62838  -0.61971  -0.61944
 Alpha  occ. eigenvalues --   -0.60665  -0.60227  -0.60057  -0.59701  -0.59320
 Alpha  occ. eigenvalues --   -0.59143  -0.58568  -0.56823  -0.56100  -0.55884
 Alpha  occ. eigenvalues --   -0.55405  -0.55199  -0.54852  -0.54571  -0.54192
 Alpha  occ. eigenvalues --   -0.53847  -0.53728  -0.53540  -0.53279  -0.53157
 Alpha  occ. eigenvalues --   -0.52757  -0.52504  -0.50953  -0.50381  -0.49977
 Alpha  occ. eigenvalues --   -0.49808  -0.49636  -0.49407  -0.49226  -0.49030
 Alpha  occ. eigenvalues --   -0.48614  -0.48425  -0.48144  -0.47929  -0.47461
 Alpha  occ. eigenvalues --   -0.46165  -0.45810  -0.45550  -0.44167  -0.43696
 Alpha  occ. eigenvalues --   -0.40652  -0.40401  -0.39495  -0.37599  -0.37563
 Alpha  occ. eigenvalues --   -0.37484  -0.37477  -0.36291  -0.35962  -0.34809
 Alpha  occ. eigenvalues --   -0.34374  -0.34157  -0.33452  -0.32876  -0.32716
 Alpha  occ. eigenvalues --   -0.32697  -0.32528  -0.32424  -0.32044  -0.30098
 Alpha  occ. eigenvalues --   -0.29992  -0.29715  -0.25695  -0.25031
 Alpha virt. eigenvalues --    0.02145   0.04473   0.06835   0.08443   0.08877
 Alpha virt. eigenvalues --    0.09046   0.09600   0.10570   0.11223   0.11754
 Alpha virt. eigenvalues --    0.13459   0.14356   0.14551   0.15198   0.15268

 Mulliken charges:
               1
     1  N   -0.312696
     2  C    0.182471
     3  C    0.051398
     4  N   -0.254162
     5  C    0.140690
     6  H    0.024604
     7  N   -0.301949
     8  C    0.134051
     9  H    0.008294
    10  N   -0.288988
    11  C    0.257697
    12  C    0.101954
    13  N   -0.066246
    14  H    0.114988
    15  H    0.083666
    16  H    0.021661
    17  H    0.031254
    18  H    0.027076
    19  N   -0.311365
    20  C    0.251419
    21  C    0.180718
    22  N   -0.122991
    23  H    0.116638
    24  H    0.118101
    25  N   -0.311925
    26  C    0.249366
    27  N   -0.151727
    28  H    0.120528
    29  C    0.199799
    30  O   -0.320679
    31  C   -0.015196
    32  N   -0.227730
    33  C    0.129008
    34  H    0.023097
    35  H    0.028637
    36  H    0.029527
    37  H    0.025054
    38  H    0.061413
    39  H    0.060234
    40  H    0.074622
    41  H    0.029873
    42  C   -0.133014
    43  O   -0.264437
    44  C    0.171762
    45  H    0.132503
    46  N   -0.121310
    47  O   -0.346927
    48  C    0.345434
    49  H    0.044591
    50  C    0.165072
    51  C    0.037246
    52  N   -0.274763
    53  H    0.033944
    54  H    0.042661
    55  H    0.028501
    56  H    0.117595
    57  H    0.113593
    58  N   -0.056630
    59  C    0.096645
    60  C    0.253023
    61  N   -0.273665
    62  H    0.037539
    63  C    0.177120
    64  N   -0.318300
    65  H    0.038292
    66  C    0.139204
    67  N   -0.269052
    68  C    0.023943
    69  C    0.180023
    70  N   -0.312774
 Sum of Mulliken charges =  -0.00000

 Dipole moment (field-independent basis, Debye):
    X=              8.6769    Y=              6.6859    Z=              0.0675  Tot=             10.9543
 Quadrupole moment (field-independent basis, Debye-Ang):
   XX=           -163.6810   YY=           -214.9688   ZZ=           -248.5596
   XY=             -3.6201   XZ=            -10.8997   YZ=             -0.0542

 Normal termination of Gaussian 16 at Wed Jan 24 22:36:18 2018.
