 Gaussian 16, Revision A.03,
 Gaussian 16:  EM64L-G16RevA.03 25-Dec-2016

 ---------------------------------------
 #p wb97xd/cc-pvdz sp scf=(maxcycles=20)
 ---------------------------------------

 ------------------
 Base pair stacking
 ------------------
 Symbolic Z-matrix:
 Charge =  0 Multiplicity = 1

                         Standard orientation:
 ---------------------------------------------------------------------
 Center     Atomic      Atomic             Coordinates (Angstroms)
 Number     Number       Type             X           Y           Z
 ---------------------------------------------------------------------
      1          7           0       -7.190830   -1.516610    0.106734
      2          6           0       -8.571506   -1.023486   -0.062274
      3          6           0       -5.025911   -1.632812    0.476765
      4          7           0       -5.441510   -2.926203    0.195408
      5          6           0       -6.729158   -2.804424   -0.016256
      6          1           0       -7.396819   -3.628957   -0.267904
      7          7           0       -3.696058    0.239364    1.014735
      8          6           0       -4.816427    0.963985    0.929464
      9          1           0       -4.696840    2.029428    1.121236
     10          7           0       -6.056518    0.571920    0.644198
     11          6           0       -6.093077   -0.752996    0.425844
     12          6           0       -3.765999   -1.090857    0.789553
     13          7           0       -2.648701   -1.815881    0.874205
     14          1           0       -2.653647   -2.803795    0.715405
     15          1           0       -1.769109   -1.396515    1.099129
     16          1           0       -9.171830   -1.476794    0.596742
     17          1           0       -8.594732   -0.036081    0.091395
     18          1           0       -8.887446   -1.222257   -0.990004
     19          7           0       -1.880472    2.773709   -1.795057
     20          6           0       -0.587839    2.386526   -1.535748
     21          6           0       -2.385375    4.159995   -1.731891
     22          7           0        2.671402    3.190011   -0.644949
     23          1           0        3.536332    2.710058   -0.500855
     24          1           0        2.675062    4.181496   -0.512053
     25          7           0        0.430036    3.200901   -1.182522
     26          6           0        1.556186    2.534389   -1.000440
     27          7           0        1.678301    1.174404   -1.152166
     28          1           0        2.578702    0.749368   -0.992219
     29          6           0        0.644434    0.316860   -1.514974
     30          8           0        0.860518   -0.896412   -1.624567
     31          6           0       -0.571745    1.018410   -1.714040
     32          7           0       -1.828967    0.555983   -2.077967
     33          6           0       -2.570721    1.629649   -2.113386
     34          1           0       -3.631370    1.643557   -2.366609
     35          1           0       -3.116989    4.219457   -1.053653
     36          1           0       -1.640171    4.772314   -1.471147
     37          1           0       -2.738556    4.428987   -2.627283
     38          1           0        7.152054   -0.830713    0.569998
     39          1           0        7.495749   -0.877788   -1.157518
     40          1           0        6.366818    0.316129   -0.516068
     41          1           0        4.964248   -4.937646   -0.651958
     42          6           0        4.795419   -3.862576   -0.714842
     43          8           0        2.476494   -4.067429   -1.170628
     44          6           0        3.478282   -3.375580   -0.990170
     45          1           0        2.459178   -1.618618   -1.240798
     46          7           0        3.374545   -2.000399   -1.048276
     47          8           0        4.193093    0.115273   -0.943070
     48          6           0        4.382992   -1.086234   -0.872555
     49          1           0        6.819114   -3.314688   -0.327145
     50          6           0        5.799407   -2.995628   -0.538714
     51          6           0        6.732588   -0.694952   -0.415745
     52          7           0        5.623781   -1.633161   -0.610783
     53          1           0        2.923990    4.097748    3.007254
     54          1           0        1.841775    4.079126    1.786365
     55          1           0        3.440831    4.057552    1.459783
     56          1           0        0.793679   -2.872657    1.614122
     57          1           0        2.370266   -2.474423    2.129778
     58          7           0        1.469797   -2.165567    1.821578
     59          6           0        1.184335   -0.868173    1.693283
     60          6           0        1.656253    1.461936    1.791240
     61          7           0        0.438584    1.847560    1.375298
     62          1           0       -1.342808    1.011402    0.802505
     63          6           0       -0.333402    0.787444    1.144868
     64          7           0       -0.049332   -0.512751    1.272773
     65          1           0        4.709435    1.794437    2.801036
     66          6           0        3.735682    1.418397    2.485870
     67          7           0        3.415253    0.149752    2.411360
     68          6           0        2.099344    0.163292    1.972141
     69          6           0        2.732357    3.743528    2.091941
     70          7           0        2.718620    2.268147    2.124997
 ---------------------------------------------------------------------

 SCF Done:  E(RwB97XD) =  -2048.72939541     A.U. after   15 cycles

 The electronic state is 1-A.
 Alpha  occ. eigenvalues --  -19.26005 -19.22237 -19.20884 -14.52601 -14.51245
 Alpha  occ. eigenvalues --  -14.49107 -14.48985 -14.48084 -14.47479 -14.47143
 Alpha  occ. eigenvalues --  -14.46594 -14.44220 -14.42627 -14.42442 -14.42433
 Alpha  occ. eigenvalues --  -14.42254 -14.41803 -14.41235 -14.40965 -14.40463
 Alpha  occ. eigenvalues --  -10.45659 -10.41586 -10.40346 -10.38525 -10.38379
 Alpha  occ. eigenvalues --  -10.37978 -10.36778 -10.35728 -10.35691 -10.35458
 Alpha  occ. eigenvalues --  -10.34524 -10.34454 -10.34161 -10.33725 -10.33496
 Alpha  occ. eigenvalues --  -10.33424 -10.33099 -10.31269 -10.31203 -10.31198
 Alpha  occ. eigenvalues --  -10.31005 -10.28911 -10.28432  -1.19579  -1.14082
 Alpha  occ. eigenvalues --   -1.13434  -1.13243  -1.11706  -1.10830  -1.09494
 Alpha  occ. eigenvalues --   -1.09067  -1.07693  -1.05304  -1.03274  -1.02704
 Alpha  occ. eigenvalues --   -1.00737  -1.00681  -0.99553  -0.98784  -0.97290
 Alpha  occ. eigenvalues --   -0.96793  -0.95271  -0.92944  -0.91229  -0.86420
 Alpha  occ. eigenvalues --   -0.84877  -0.84370  -0.84268  -0.83847  -0.82725
 Alpha  occ. eigenvalues --   -0.82623  -0.79061  -0.75660  -0.74933  -0.74214
 Alpha  occ. eigenvalues --   -0.73557  -0.73355  -0.73225  -0.71391  -0.69075
 Alpha  occ. eigenvalues --   -0.67869  -0.66747  -0.66615  -0.65440  -0.64675
 Alpha  occ. eigenvalues --   -0.64007  -0.63124  -0.62984  -0.62843  -0.62433
 Alpha  occ. eigenvalues --   -0.60483  -0.59768  -0.59711  -0.59373  -0.59178
 Alpha  occ. eigenvalues --   -0.59129  -0.58320  -0.56887  -0.56766  -0.56672
 Alpha  occ. eigenvalues --   -0.56169  -0.55678  -0.54892  -0.54578  -0.54125
 Alpha  occ. eigenvalues --   -0.53882  -0.53519  -0.53193  -0.52639  -0.52595
 Alpha  occ. eigenvalues --   -0.52090  -0.51980  -0.51571  -0.51050  -0.50480
 Alpha  occ. eigenvalues --   -0.50382  -0.49617  -0.49401  -0.49034  -0.48791
 Alpha  occ. eigenvalues --   -0.48616  -0.48503  -0.48120  -0.47652  -0.47434
 Alpha  occ. eigenvalues --   -0.47283  -0.45444  -0.45388  -0.44215  -0.43008
 Alpha  occ. eigenvalues --   -0.41508  -0.39624  -0.39461  -0.37736  -0.37513
 Alpha  occ. eigenvalues --   -0.37476  -0.36507  -0.36067  -0.35776  -0.35182
 Alpha  occ. eigenvalues --   -0.33872  -0.33811  -0.33426  -0.33089  -0.32950
 Alpha  occ. eigenvalues --   -0.32442  -0.32351  -0.32144  -0.32070  -0.31286
 Alpha  occ. eigenvalues --   -0.30660  -0.28450  -0.26113  -0.25644
 Alpha virt. eigenvalues --    0.02919   0.05324   0.07592   0.08020   0.08267
 Alpha virt. eigenvalues --    0.09169   0.09615   0.10647   0.11210   0.12458
 Alpha virt. eigenvalues --    0.12953   0.13689   0.14411   0.14644   0.14883

 Mulliken charges:
               1
     1  N   -0.311014
     2  C    0.180942
     3  C    0.029713
     4  N   -0.259077
     5  C    0.134051
     6  H    0.027649
     7  N   -0.289212
     8  C    0.128871
     9  H    0.009685
    10  N   -0.288366
    11  C    0.241970
    12  C    0.122767
    13  N   -0.055139
    14  H    0.107959
    15  H    0.089004
    16  H    0.026066
    17  H    0.035264
    18  H    0.026445
    19  N   -0.308085
    20  C    0.243236
    21  C    0.182417
    22  N   -0.108301
    23  H    0.117370
    24  H    0.116781
    25  N   -0.277100
    26  C    0.200105
    27  N   -0.112449
    28  H    0.119198
    29  C    0.159567
    30  O   -0.320286
    31  C   -0.014816
    32  N   -0.217448
    33  C    0.130405
    34  H    0.031586
    35  H    0.030194
    36  H    0.027586
    37  H    0.025024
    38  H    0.061653
    39  H    0.060006
    40  H    0.072988
    41  H    0.032161
    42  C   -0.112613
    43  O   -0.268165
    44  C    0.171775
    45  H    0.135264
    46  N   -0.138346
    47  O   -0.351228
    48  C    0.366181
    49  H    0.048779
    50  C    0.174239
    51  C    0.043134
    52  N   -0.297637
    53  H    0.029811
    54  H    0.043234
    55  H   -0.002021
    56  H    0.123348
    57  H    0.114234
    58  N   -0.060471
    59  C    0.105307
    60  C    0.223311
    61  N   -0.257202
    62  H    0.045999
    63  C    0.155283
    64  N   -0.296909
    65  H    0.026278
    66  C    0.122808
    67  N   -0.264466
    68  C    0.028095
    69  C    0.183544
    70  N   -0.300933
 Sum of Mulliken charges =  -0.00000

 Dipole moment (field-independent basis, Debye):
    X=              7.9761    Y=              5.3743    Z=              2.3615  Tot=              9.9034
 Quadrupole moment (field-independent basis, Debye-Ang):
   XX=           -145.7125   YY=           -218.5869   ZZ=           -251.3595
   XY=              3.8215   XZ=             14.2502   YZ=             -9.4185

 Normal termination of Gaussian 16 at Wed Jan 24 10:02:56 2018.
