 Gaussian 16, Revision A.03,
 Gaussian 16:  EM64L-G16RevA.03 25-Dec-2016

 ---------------------------------------
 #p wb97xd/cc-pvdz sp scf=(maxcycles=20)
 ---------------------------------------

 ------------------
 Base pair stacking
 ------------------
 Symbolic Z-matrix:
 Charge =  0 Multiplicity = 1

                         Standard orientation:
 ---------------------------------------------------------------------
 Center     Atomic      Atomic             Coordinates (Angstroms)
 Number     Number       Type             X           Y           Z
 ---------------------------------------------------------------------
      1          7           0       -7.174089   -1.519926    0.126338
      2          6           0       -8.549827   -1.026986   -0.079442
      3          6           0       -5.012839   -1.631182    0.518716
      4          7           0       -5.435878   -2.934865    0.303807
      5          6           0       -6.721013   -2.815659    0.076009
      6          1           0       -7.392855   -3.647827   -0.136273
      7          7           0       -3.673239    0.257837    0.965940
      8          6           0       -4.787593    0.984612    0.833382
      9          1           0       -4.661585    2.057955    0.968779
     10          7           0       -6.028413    0.586464    0.559968
     11          6           0       -6.073115   -0.747967    0.412566
     12          6           0       -3.751304   -1.082022    0.811739
     13          7           0       -2.640021   -1.809211    0.943685
     14          1           0       -2.651061   -2.804156    0.837953
     15          1           0       -1.759039   -1.384521    1.152607
     16          1           0       -9.158266   -1.440150    0.598248
     17          1           0       -8.566913   -0.032627    0.020966
     18          1           0       -8.860418   -1.272974   -0.997603
     19          7           0       -1.916011    2.738801   -1.765835
     20          6           0       -0.623113    2.357116   -1.499792
     21          6           0       -2.434319    4.118673   -1.676425
     22          7           0        2.617633    3.168307   -0.550426
     23          1           0        3.485125    2.692794   -0.406984
     24          1           0        2.610605    4.156387   -0.394295
     25          7           0        0.382921    3.171960   -1.115102
     26          6           0        1.512854    2.511358   -0.934850
     27          7           0        1.649243    1.156460   -1.116880
     28          1           0        2.551503    0.735777   -0.955880
     29          6           0        0.627744    0.298561   -1.512365
     30          8           0        0.856241   -0.909842   -1.647677
     31          6           0       -0.592323    0.993767   -1.709873
     32          7           0       -1.840768    0.528891   -2.099956
     33          6           0       -2.591849    1.596465   -2.119335
     34          1           0       -3.649438    1.606914   -2.385182
     35          1           0       -3.174586    4.155657   -1.006014
     36          1           0       -1.697955    4.731286   -1.392264
     37          1           0       -2.779102    4.405526   -2.569535
     38          1           0        7.119935   -0.839973    0.624999
     39          1           0        7.484901   -0.843319   -1.098787
     40          1           0        6.337402    0.325100   -0.443471
     41          1           0        4.984767   -4.936265   -0.719633
     42          6           0        4.806872   -3.861547   -0.759385
     43          8           0        2.495597   -4.076198   -1.248315
     44          6           0        3.488746   -3.379919   -1.039398
     45          1           0        2.456694   -1.626654   -1.261316
     46          7           0        3.373128   -2.004735   -1.066547
     47          8           0        4.170928    0.115067   -0.901754
     48          6           0        4.370956   -1.086041   -0.857069
     49          1           0        6.820625   -3.304993   -0.334109
     50          6           0        5.800678   -2.990112   -0.550661
     51          6           0        6.711188   -0.684776   -0.362374
     52          7           0        5.613454   -1.627937   -0.592955
     53          1           0        2.960247    4.171329    2.800012
     54          1           0        1.886892    4.094839    1.573572
     55          1           0        3.488078    4.044696    1.260935
     56          1           0        0.788991   -2.848732    1.765589
     57          1           0        2.364650   -2.434401    2.271313
     58          7           0        1.468758   -2.136259    1.940103
     59          6           0        1.193781   -0.845646    1.740357
     60          6           0        1.682094    1.483026    1.717097
     61          7           0        0.470373    1.854269    1.271736
     62          1           0       -1.312877    1.001019    0.730823
     63          6           0       -0.307686    0.788723    1.092446
     64          7           0       -0.034123   -0.504704    1.291942
     65          1           0        4.730171    1.847926    2.731129
     66          6           0        3.756001    1.462310    2.429050
     67          7           0        3.426817    0.193763    2.420086
     68          6           0        2.114288    0.192894    1.970649
     69          6           0        2.772714    3.769916    1.903525
     70          7           0        2.747894    2.298570    2.015380
 ---------------------------------------------------------------------

 SCF Done:  E(RwB97XD) =  -2048.70739040     A.U. after   15 cycles

 The electronic state is 1-A.
 Alpha  occ. eigenvalues --  -19.25974 -19.22140 -19.20806 -14.52555 -14.51391
 Alpha  occ. eigenvalues --  -14.49169 -14.48955 -14.48029 -14.47233 -14.46941
 Alpha  occ. eigenvalues --  -14.46770 -14.44315 -14.42754 -14.42541 -14.42402
 Alpha  occ. eigenvalues --  -14.42079 -14.41868 -14.41321 -14.40935 -14.40546
 Alpha  occ. eigenvalues --  -10.45618 -10.41482 -10.40260 -10.38520 -10.38448
 Alpha  occ. eigenvalues --  -10.37918 -10.36898 -10.35814 -10.35777 -10.35428
 Alpha  occ. eigenvalues --  -10.34518 -10.34463 -10.34216 -10.33797 -10.33515
 Alpha  occ. eigenvalues --  -10.33492 -10.33260 -10.31325 -10.31244 -10.31216
 Alpha  occ. eigenvalues --  -10.30988 -10.28986 -10.28414  -1.19542  -1.14331
 Alpha  occ. eigenvalues --   -1.13365  -1.13157  -1.11772  -1.10793  -1.09447
 Alpha  occ. eigenvalues --   -1.09075  -1.07849  -1.05388  -1.03416  -1.02648
 Alpha  occ. eigenvalues --   -1.01048  -1.00825  -0.99477  -0.98711  -0.97360
 Alpha  occ. eigenvalues --   -0.96761  -0.95426  -0.93032  -0.91175  -0.86694
 Alpha  occ. eigenvalues --   -0.85177  -0.84336  -0.84297  -0.83806  -0.82703
 Alpha  occ. eigenvalues --   -0.82686  -0.79008  -0.75816  -0.74910  -0.74282
 Alpha  occ. eigenvalues --   -0.73517  -0.73501  -0.73306  -0.71472  -0.69266
 Alpha  occ. eigenvalues --   -0.67902  -0.66702  -0.66694  -0.65653  -0.64636
 Alpha  occ. eigenvalues --   -0.63984  -0.63339  -0.63050  -0.62945  -0.62640
 Alpha  occ. eigenvalues --   -0.60571  -0.59846  -0.59672  -0.59554  -0.59303
 Alpha  occ. eigenvalues --   -0.59238  -0.58445  -0.56944  -0.56818  -0.56723
 Alpha  occ. eigenvalues --   -0.56121  -0.55765  -0.55055  -0.54556  -0.54234
 Alpha  occ. eigenvalues --   -0.53823  -0.53471  -0.53184  -0.52740  -0.52593
 Alpha  occ. eigenvalues --   -0.52098  -0.52044  -0.51720  -0.51117  -0.50554
 Alpha  occ. eigenvalues --   -0.50324  -0.49566  -0.49481  -0.48970  -0.48797
 Alpha  occ. eigenvalues --   -0.48641  -0.48469  -0.48119  -0.47585  -0.47433
 Alpha  occ. eigenvalues --   -0.47362  -0.45493  -0.45431  -0.44143  -0.42834
 Alpha  occ. eigenvalues --   -0.41591  -0.39646  -0.39525  -0.37766  -0.37581
 Alpha  occ. eigenvalues --   -0.37416  -0.36533  -0.36096  -0.35707  -0.35229
 Alpha  occ. eigenvalues --   -0.33946  -0.33875  -0.33340  -0.33150  -0.32884
 Alpha  occ. eigenvalues --   -0.32442  -0.32262  -0.32081  -0.32017  -0.31350
 Alpha  occ. eigenvalues --   -0.30749  -0.28517  -0.26196  -0.25454
 Alpha virt. eigenvalues --    0.02990   0.05132   0.07485   0.07830   0.08290
 Alpha virt. eigenvalues --    0.09151   0.09808   0.10554   0.11044   0.12493
 Alpha virt. eigenvalues --    0.13007   0.13635   0.14408   0.14533   0.14732

 Mulliken charges:
               1
     1  N   -0.311150
     2  C    0.180948
     3  C    0.030239
     4  N   -0.259338
     5  C    0.134416
     6  H    0.027916
     7  N   -0.288477
     8  C    0.127978
     9  H    0.009679
    10  N   -0.287991
    11  C    0.242602
    12  C    0.123235
    13  N   -0.056101
    14  H    0.107709
    15  H    0.088778
    16  H    0.026133
    17  H    0.035278
    18  H    0.026720
    19  N   -0.307603
    20  C    0.235894
    21  C    0.182280
    22  N   -0.102966
    23  H    0.117741
    24  H    0.114547
    25  N   -0.265603
    26  C    0.185021
    27  N   -0.105126
    28  H    0.118955
    29  C    0.154726
    30  O   -0.319713
    31  C   -0.011619
    32  N   -0.217261
    33  C    0.130194
    34  H    0.031658
    35  H    0.029837
    36  H    0.027421
    37  H    0.025040
    38  H    0.061562
    39  H    0.059852
    40  H    0.072561
    41  H    0.032056
    42  C   -0.112856
    43  O   -0.266927
    44  C    0.174756
    45  H    0.135201
    46  N   -0.139506
    47  O   -0.350787
    48  C    0.366150
    49  H    0.048445
    50  C    0.173474
    51  C    0.043330
    52  N   -0.297640
    53  H    0.024708
    54  H    0.039254
    55  H   -0.003403
    56  H    0.122570
    57  H    0.114438
    58  N   -0.063492
    59  C    0.107948
    60  C    0.217868
    61  N   -0.256668
    62  H    0.049971
    63  C    0.153732
    64  N   -0.296813
    65  H    0.026779
    66  C    0.121899
    67  N   -0.263433
    68  C    0.030344
    69  C    0.194464
    70  N   -0.301837
 Sum of Mulliken charges =  -0.00000

 Dipole moment (field-independent basis, Debye):
    X=              7.7591    Y=              5.3367    Z=              2.7090  Tot=              9.7991
 Quadrupole moment (field-independent basis, Debye-Ang):
   XX=           -145.8912   YY=           -219.1544   ZZ=           -252.2534
   XY=              4.0056   XZ=             14.1365   YZ=            -10.4696

 Normal termination of Gaussian 16 at Thu Jan 25 04:34:32 2018.
