 Gaussian 16, Revision A.03,
 Gaussian 16:  EM64L-G16RevA.03 25-Dec-2016

 ---------------------------------------
 #p wb97xd/cc-pvdz sp scf=(maxcycles=20)
 ---------------------------------------

 ------------------
 Base pair stacking
 ------------------
 Symbolic Z-matrix:
 Charge =  0 Multiplicity = 1

                         Standard orientation:
 ---------------------------------------------------------------------
 Center     Atomic      Atomic             Coordinates (Angstroms)
 Number     Number       Type             X           Y           Z
 ---------------------------------------------------------------------
      1          7           0        5.513657   -1.741664   -1.228053
      2          6           0        6.913819   -1.283741   -1.139430
      3          6           0        3.318586   -1.794442   -1.355427
      4          7           0        3.739160   -3.116501   -1.354198
      5          6           0        5.044769   -3.031789   -1.277502
      6          1           0        5.721182   -3.886673   -1.253406
      7          7           0        1.971447    0.141071   -1.399379
      8          6           0        3.107833    0.841202   -1.321739
      9          1           0        2.987251    1.923596   -1.309857
     10          7           0        4.364892    0.407062   -1.256865
     11          6           0        4.401135   -0.935573   -1.278126
     12          6           0        2.041520   -1.207923   -1.418800
     13          7           0        0.908256   -1.908556   -1.496276
     14          1           0        0.912654   -2.909004   -1.513422
     15          1           0        0.016709   -1.457557   -1.539791
     16          1           0        7.424799   -1.613875   -1.933212
     17          1           0        6.937987   -0.284651   -1.120661
     18          1           0        7.331407   -1.641321   -0.304109
     19          7           0        3.804440    2.696104    1.281743
     20          6           0        2.477455    2.346903    1.209441
     21          6           0        4.353483    4.032304    0.975452
     22          7           0       -0.824126    3.195394    0.545091
     23          1           0       -1.717549    2.747153    0.556536
     24          1           0       -0.803200    4.158654    0.276029
     25          7           0        1.460373    3.159252    0.849343
     26          6           0        0.296100    2.535233    0.875518
     27          7           0        0.137827    1.216595    1.227151
     28          1           0       -0.790364    0.822453    1.218869
     29          6           0        1.170135    0.361980    1.601131
     30          8           0        0.919736   -0.812170    1.900144
     31          6           0        2.427020    1.018162    1.577800
     32          7           0        3.696782    0.542726    1.875380
     33          6           0        4.479435    1.570298    1.686239
     34          1           0        5.560703    1.561704    1.827838
     35          1           0        5.010663    3.960667    0.225929
     36          1           0        3.609254    4.642689    0.707459
     37          1           0        4.810017    4.400417    1.784705
     38          1           0       -5.561956   -0.707981    0.357230
     39          1           0       -5.721755   -0.503220    2.099978
     40          1           0       -4.621641    0.531391    1.188558
     41          1           0       -3.418631   -4.723225    1.916263
     42          6           0       -3.202271   -3.660039    1.811184
     43          8           0       -0.857822   -3.924797    2.057262
     44          6           0       -1.845338   -3.211229    1.882875
     45          1           0       -0.737600   -1.493325    1.782600
     46          7           0       -1.682436   -1.848284    1.737665
     47          8           0       -2.424345    0.274454    1.420222
     48          6           0       -2.667399   -0.913750    1.537553
     49          1           0       -5.232765   -3.062410    1.554774
     50          6           0       -4.184687   -2.772518    1.616817
     51          6           0       -5.035168   -0.463043    1.267478
     52          7           0       -3.949368   -1.424095    1.479964
     53          1           0       -4.759894    4.279066   -1.897804
     54          1           0       -3.543877    4.048654   -0.834639
     55          1           0       -5.094334    3.967980   -0.331016
     56          1           0       -2.616360   -2.824498   -1.998643
     57          1           0       -4.234204   -2.344440   -2.248107
     58          7           0       -3.298300   -2.092991   -1.998975
     59          6           0       -2.975046   -0.837649   -1.681445
     60          6           0       -3.410384    1.472974   -1.316444
     61          7           0       -2.145513    1.781607   -0.985905
     62          1           0       -0.326045    0.860680   -0.780828
     63          6           0       -1.372470    0.698644   -1.035795
     64          7           0       -1.694335   -0.559530   -1.353588
     65          1           0       -6.553182    1.972644   -1.886810
     66          6           0       -5.556825    1.548655   -1.758596
     67          7           0       -5.254297    0.287013   -1.944088
     68          6           0       -3.896290    0.225383   -1.667073
     69          6           0       -4.470157    3.770423   -1.087036
     70          7           0       -4.488652    2.323619   -1.377577
 ---------------------------------------------------------------------

 SCF Done:  E(RwB97XD) =  -2048.72038272     A.U. after   15 cycles

 The electronic state is 1-A.
 Alpha  occ. eigenvalues --  -19.25374 -19.21575 -19.20219 -14.53040 -14.52096
 Alpha  occ. eigenvalues --  -14.48899 -14.48505 -14.48223 -14.47443 -14.46198
 Alpha  occ. eigenvalues --  -14.45934 -14.44722 -14.44623 -14.44342 -14.42599
 Alpha  occ. eigenvalues --  -14.41279 -14.41206 -14.40762 -14.40243 -14.40176
 Alpha  occ. eigenvalues --  -10.45047 -10.40519 -10.40344 -10.39711 -10.38475
 Alpha  occ. eigenvalues --  -10.37730 -10.37654 -10.37535 -10.36071 -10.35478
 Alpha  occ. eigenvalues --  -10.34673 -10.34574 -10.33874 -10.33685 -10.33145
 Alpha  occ. eigenvalues --  -10.33068 -10.32883 -10.32773 -10.30851 -10.30730
 Alpha  occ. eigenvalues --  -10.30524 -10.28368 -10.27433  -1.19127  -1.15721
 Alpha  occ. eigenvalues --   -1.12698  -1.12609  -1.11096  -1.10089  -1.09829
 Alpha  occ. eigenvalues --   -1.08983  -1.07897  -1.05431  -1.04987  -1.02080
 Alpha  occ. eigenvalues --   -1.01542  -1.00488  -0.98813  -0.98019  -0.97309
 Alpha  occ. eigenvalues --   -0.96786  -0.96062  -0.92683  -0.90748  -0.88195
 Alpha  occ. eigenvalues --   -0.86547  -0.83767  -0.83495  -0.83188  -0.82165
 Alpha  occ. eigenvalues --   -0.82004  -0.78560  -0.77563  -0.75582  -0.74040
 Alpha  occ. eigenvalues --   -0.73023  -0.72888  -0.72859  -0.71073  -0.70925
 Alpha  occ. eigenvalues --   -0.67508  -0.66670  -0.66292  -0.66118  -0.64911
 Alpha  occ. eigenvalues --   -0.64064  -0.63343  -0.62731  -0.62502  -0.61193
 Alpha  occ. eigenvalues --   -0.60865  -0.60705  -0.60626  -0.59865  -0.59363
 Alpha  occ. eigenvalues --   -0.59117  -0.57827  -0.56920  -0.56266  -0.56013
 Alpha  occ. eigenvalues --   -0.55862  -0.55802  -0.55511  -0.54732  -0.54546
 Alpha  occ. eigenvalues --   -0.53800  -0.53649  -0.53285  -0.53186  -0.52792
 Alpha  occ. eigenvalues --   -0.52429  -0.51972  -0.51614  -0.50758  -0.50108
 Alpha  occ. eigenvalues --   -0.49934  -0.49765  -0.49541  -0.48972  -0.48894
 Alpha  occ. eigenvalues --   -0.48361  -0.47951  -0.47787  -0.47062  -0.46929
 Alpha  occ. eigenvalues --   -0.46558  -0.45586  -0.45008  -0.44339  -0.43588
 Alpha  occ. eigenvalues --   -0.41446  -0.40886  -0.39222  -0.38277  -0.38088
 Alpha  occ. eigenvalues --   -0.37388  -0.36731  -0.36555  -0.35504  -0.35072
 Alpha  occ. eigenvalues --   -0.34647  -0.33518  -0.33427  -0.32734  -0.32209
 Alpha  occ. eigenvalues --   -0.32170  -0.31903  -0.31730  -0.31407  -0.30710
 Alpha  occ. eigenvalues --   -0.30447  -0.30351  -0.25786  -0.24382
 Alpha virt. eigenvalues --    0.02885   0.03901   0.06320   0.08059   0.08792
 Alpha virt. eigenvalues --    0.09492   0.09874   0.10496   0.11355   0.11859
 Alpha virt. eigenvalues --    0.12324   0.13933   0.14606   0.15035   0.15185

 Mulliken charges:
               1
     1  N   -0.314550
     2  C    0.182450
     3  C    0.047884
     4  N   -0.262690
     5  C    0.137481
     6  H    0.026198
     7  N   -0.295321
     8  C    0.144209
     9  H    0.013030
    10  N   -0.283170
    11  C    0.263393
    12  C    0.107019
    13  N   -0.060602
    14  H    0.107017
    15  H    0.081333
    16  H    0.023452
    17  H    0.030459
    18  H    0.028843
    19  N   -0.294488
    20  C    0.211982
    21  C    0.180544
    22  N   -0.072599
    23  H    0.112020
    24  H    0.106571
    25  N   -0.300553
    26  C    0.198038
    27  N   -0.150792
    28  H    0.121768
    29  C    0.186357
    30  O   -0.325051
    31  C   -0.010576
    32  N   -0.220312
    33  C    0.132720
    34  H    0.016571
    35  H    0.028607
    36  H    0.027001
    37  H    0.023440
    38  H    0.060229
    39  H    0.058280
    40  H    0.069735
    41  H    0.029493
    42  C   -0.114049
    43  O   -0.262235
    44  C    0.177336
    45  H    0.131837
    46  N   -0.126645
    47  O   -0.338134
    48  C    0.337345
    49  H    0.044931
    50  C    0.165045
    51  C    0.043928
    52  N   -0.285605
    53  H    0.037733
    54  H    0.031088
    55  H    0.033050
    56  H    0.120443
    57  H    0.117765
    58  N   -0.059931
    59  C    0.087486
    60  C    0.273848
    61  N   -0.305260
    62  H    0.067399
    63  C    0.156852
    64  N   -0.299366
    65  H    0.039080
    66  C    0.134514
    67  N   -0.258389
    68  C    0.015128
    69  C    0.181618
    70  N   -0.312231
 Sum of Mulliken charges =  -0.00000

 Dipole moment (field-independent basis, Debye):
    X=             -8.6737    Y=              5.6736    Z=             -3.2910  Tot=             10.8744
 Quadrupole moment (field-independent basis, Debye-Ang):
   XX=           -157.4793   YY=           -218.5584   ZZ=           -256.0732
   XY=              2.2082   XZ=             -5.2950   YZ=             11.3758

 Normal termination of Gaussian 16 at Wed Jan 24 20:40:39 2018.
