 Gaussian 16, Revision A.03,
 Gaussian 16:  EM64L-G16RevA.03 25-Dec-2016

 ---------------------------------------
 #p wb97xd/cc-pvdz sp scf=(maxcycles=20)
 ---------------------------------------

 ------------------
 Base pair stacking
 ------------------
 Symbolic Z-matrix:
 Charge =  0 Multiplicity = 1

                         Standard orientation:
 ---------------------------------------------------------------------
 Center     Atomic      Atomic             Coordinates (Angstroms)
 Number     Number       Type             X           Y           Z
 ---------------------------------------------------------------------
      1          7           0        5.229408   -1.889914   -1.423822
      2          6           0        6.634405   -1.448943   -1.521383
      3          6           0        3.030709   -1.925248   -1.381272
      4          7           0        3.444055   -3.232353   -1.168293
      5          6           0        4.752141   -3.158749   -1.202446
      6          1           0        5.424491   -4.007036   -1.070948
      7          7           0        1.693042   -0.006069   -1.681821
      8          6           0        2.835304    0.675793   -1.815536
      9          1           0        2.720977    1.744235   -1.993347
     10          7           0        4.091691    0.238044   -1.762822
     11          6           0        4.120001   -1.086421   -1.540508
     12          6           0        1.755203   -1.337062   -1.458974
     13          7           0        0.616056   -2.019441   -1.325228
     14          1           0        0.614502   -3.006182   -1.159229
     15          1           0       -0.274152   -1.567851   -1.386370
     16          1           0        7.083721   -1.927385   -2.275963
     17          1           0        6.664549   -0.463760   -1.687601
     18          1           0        7.110975   -1.655833   -0.666942
     19          7           0        4.086494    2.787921    1.185636
     20          6           0        2.754540    2.450706    1.200924
     21          6           0        4.622808    4.135477    0.907891
     22          7           0       -0.580709    3.352475    0.847805
     23          1           0       -1.474825    2.909390    0.906635
     24          1           0       -0.571580    4.328667    0.629422
     25          7           0        1.720248    3.287018    0.966652
     26          6           0        0.555558    2.669151    1.052404
     27          7           0        0.412528    1.334463    1.345085
     28          1           0       -0.517280    0.946644    1.389912
     29          6           0        1.462672    0.455123    1.589722
     30          8           0        1.225088   -0.731935    1.845027
     31          6           0        2.720224    1.104412    1.501119
     32          7           0        4.004783    0.606441    1.670890
     33          6           0        4.780173    1.638192    1.474742
     34          1           0        5.869130    1.615831    1.529056
     35          1           0        5.217737    4.100428    0.105612
     36          1           0        3.865792    4.763613    0.732830
     37          1           0        5.145712    4.457012    1.696555
     38          1           0       -5.357188   -0.508046    0.831383
     39          1           0       -5.376241   -0.396209    2.589729
     40          1           0       -4.341602    0.679535    1.649695
     41          1           0       -3.137124   -4.613366    1.999396
     42          6           0       -2.919183   -3.547315    1.933955
     43          8           0       -0.565354   -3.838302    1.977976
     44          6           0       -1.556433   -3.110767    1.920962
     45          1           0       -0.443059   -1.396321    1.823992
     46          7           0       -1.391973   -1.742940    1.835745
     47          8           0       -2.135528    0.397969    1.691519
     48          6           0       -2.380349   -0.793411    1.764638
     49          1           0       -4.957560   -2.925196    1.872289
     50          6           0       -3.905031   -2.645050    1.865875
     51          6           0       -4.757469   -0.315324    1.708467
     52          7           0       -3.667862   -1.292590    1.782435
     53          1           0       -5.037356    4.093060   -2.444120
     54          1           0       -3.747113    4.038243   -1.446954
     55          1           0       -5.256427    4.078770   -0.826950
     56          1           0       -2.940294   -2.947597   -1.396788
     57          1           0       -4.569901   -2.491816   -1.612968
     58          7           0       -3.616967   -2.216166   -1.481992
     59          6           0       -3.265274   -0.930056   -1.423692
     60          6           0       -3.661639    1.415900   -1.457467
     61          7           0       -2.374351    1.756635   -1.280798
     62          1           0       -0.549015    0.855697   -1.041937
     63          6           0       -1.612172    0.668885   -1.187042
     64          7           0       -1.962534   -0.620078   -1.245190
     65          1           0       -6.835659    1.860118   -1.882271
     66          6           0       -5.834522    1.448619   -1.750560
     67          7           0       -5.552435    0.169019   -1.723246
     68          6           0       -4.177956    0.134307   -1.537954
     69          6           0       -4.690823    3.735509   -1.576907
     70          7           0       -4.737499    2.260554   -1.595616
 ---------------------------------------------------------------------

 SCF Done:  E(RwB97XD) =  -2048.75083678     A.U. after   15 cycles

 The electronic state is 1-A.
 Alpha  occ. eigenvalues --  -19.25445 -19.21705 -19.20378 -14.52730 -14.52144
 Alpha  occ. eigenvalues --  -14.48732 -14.48612 -14.48236 -14.47467 -14.46612
 Alpha  occ. eigenvalues --  -14.46131 -14.45729 -14.44656 -14.44630 -14.42390
 Alpha  occ. eigenvalues --  -14.41766 -14.40903 -14.40692 -14.40610 -14.40108
 Alpha  occ. eigenvalues --  -10.45114 -10.40933 -10.40347 -10.39829 -10.38283
 Alpha  occ. eigenvalues --  -10.37994 -10.37675 -10.37504 -10.36081 -10.35304
 Alpha  occ. eigenvalues --  -10.34644 -10.34176 -10.34130 -10.33613 -10.33166
 Alpha  occ. eigenvalues --  -10.32968 -10.32938 -10.32805 -10.30955 -10.30810
 Alpha  occ. eigenvalues --  -10.30488 -10.28151 -10.27873  -1.19092  -1.15469
 Alpha  occ. eigenvalues --   -1.12943  -1.12712  -1.10841  -1.10379  -1.09657
 Alpha  occ. eigenvalues --   -1.09025  -1.08261  -1.05209  -1.04816  -1.02124
 Alpha  occ. eigenvalues --   -1.01277  -1.00279  -0.99334  -0.98309  -0.97214
 Alpha  occ. eigenvalues --   -0.96527  -0.96400  -0.92509  -0.90851  -0.87916
 Alpha  occ. eigenvalues --   -0.86194  -0.83897  -0.83509  -0.83230  -0.82327
 Alpha  occ. eigenvalues --   -0.81919  -0.78634  -0.77350  -0.75187  -0.74385
 Alpha  occ. eigenvalues --   -0.73324  -0.73018  -0.72648  -0.70819  -0.70688
 Alpha  occ. eigenvalues --   -0.67208  -0.67038  -0.66232  -0.66050  -0.64612
 Alpha  occ. eigenvalues --   -0.64212  -0.63546  -0.62490  -0.62468  -0.61436
 Alpha  occ. eigenvalues --   -0.60851  -0.60501  -0.60356  -0.59597  -0.59340
 Alpha  occ. eigenvalues --   -0.59182  -0.57960  -0.56596  -0.56304  -0.55824
 Alpha  occ. eigenvalues --   -0.55714  -0.55628  -0.55320  -0.54504  -0.54048
 Alpha  occ. eigenvalues --   -0.53986  -0.53489  -0.53420  -0.53105  -0.52904
 Alpha  occ. eigenvalues --   -0.52709  -0.52071  -0.51408  -0.50364  -0.50182
 Alpha  occ. eigenvalues --   -0.49935  -0.49824  -0.49584  -0.49107  -0.48665
 Alpha  occ. eigenvalues --   -0.48598  -0.48142  -0.47989  -0.47439  -0.47096
 Alpha  occ. eigenvalues --   -0.46592  -0.45690  -0.45290  -0.44304  -0.43620
 Alpha  occ. eigenvalues --   -0.41096  -0.40848  -0.39118  -0.37954  -0.37878
 Alpha  occ. eigenvalues --   -0.37162  -0.37067  -0.36668  -0.35539  -0.35065
 Alpha  occ. eigenvalues --   -0.34753  -0.33587  -0.33245  -0.33136  -0.32844
 Alpha  occ. eigenvalues --   -0.32458  -0.32222  -0.31918  -0.31689  -0.30569
 Alpha  occ. eigenvalues --   -0.30316  -0.30175  -0.25563  -0.25159
 Alpha virt. eigenvalues --    0.02793   0.04173   0.06418   0.08297   0.08995
 Alpha virt. eigenvalues --    0.09388   0.10008   0.10204   0.11259   0.11677
 Alpha virt. eigenvalues --    0.12666   0.14243   0.14741   0.14846   0.15275

 Mulliken charges:
               1
     1  N   -0.313206
     2  C    0.182693
     3  C    0.051017
     4  N   -0.260662
     5  C    0.139692
     6  H    0.026025
     7  N   -0.296675
     8  C    0.134051
     9  H    0.011499
    10  N   -0.284538
    11  C    0.261453
    12  C    0.104456
    13  N   -0.060997
    14  H    0.110857
    15  H    0.081197
    16  H    0.022646
    17  H    0.030780
    18  H    0.028472
    19  N   -0.307456
    20  C    0.246192
    21  C    0.180592
    22  N   -0.104207
    23  H    0.111629
    24  H    0.113658
    25  N   -0.308933
    26  C    0.229386
    27  N   -0.143876
    28  H    0.118251
    29  C    0.191678
    30  O   -0.323532
    31  C   -0.017561
    32  N   -0.224940
    33  C    0.130635
    34  H    0.019826
    35  H    0.028990
    36  H    0.028306
    37  H    0.023698
    38  H    0.060278
    39  H    0.059221
    40  H    0.072766
    41  H    0.028470
    42  C   -0.117271
    43  O   -0.263159
    44  C    0.174179
    45  H    0.131916
    46  N   -0.124851
    47  O   -0.341163
    48  C    0.338945
    49  H    0.043938
    50  C    0.164840
    51  C    0.037956
    52  N   -0.280057
    53  H    0.035617
    54  H    0.037511
    55  H    0.030200
    56  H    0.119702
    57  H    0.116199
    58  N   -0.058041
    59  C    0.089045
    60  C    0.257181
    61  N   -0.278362
    62  H    0.042216
    63  C    0.169272
    64  N   -0.308416
    65  H    0.039361
    66  C    0.137911
    67  N   -0.263563
    68  C    0.019783
    69  C    0.180176
    70  N   -0.312893
 Sum of Mulliken charges =  -0.00000

 Dipole moment (field-independent basis, Debye):
    X=             -8.6292    Y=              6.0283    Z=             -1.9289  Tot=             10.7016
 Quadrupole moment (field-independent basis, Debye-Ang):
   XX=           -160.3324   YY=           -216.0079   ZZ=           -254.0520
   XY=              3.6345   XZ=             -8.3770   YZ=              7.8485

 Normal termination of Gaussian 16 at Thu Jan 25 02:29:25 2018.
