 Gaussian 16, Revision A.03,
 Gaussian 16:  EM64L-G16RevA.03 25-Dec-2016

 ---------------------------------------
 #p wb97xd/cc-pvdz sp scf=(maxcycles=20)
 ---------------------------------------

 ------------------
 Base pair stacking
 ------------------
 Symbolic Z-matrix:
 Charge =  0 Multiplicity = 1

                         Standard orientation:
 ---------------------------------------------------------------------
 Center     Atomic      Atomic             Coordinates (Angstroms)
 Number     Number       Type             X           Y           Z
 ---------------------------------------------------------------------
      1          7           0        4.922614   -2.171731   -1.559175
      2          6           0        6.313689   -1.814848   -1.899087
      3          6           0        2.737722   -2.129786   -1.310501
      4          7           0        3.164477   -3.342445   -0.788887
      5          6           0        4.463715   -3.319173   -0.959582
      6          1           0        5.142307   -4.119831   -0.663956
      7          7           0        1.384812   -0.324566   -1.998789
      8          6           0        2.511815    0.262109   -2.415032
      9          1           0        2.385162    1.245783   -2.865133
     10          7           0        3.765887   -0.181822   -2.359013
     11          6           0        3.810163   -1.397379   -1.789019
     12          6           0        1.462806   -1.547264   -1.429564
     13          7           0        0.338909   -2.134508   -1.013440
     14          1           0        0.349398   -3.039353   -0.586382
     15          1           0       -0.551379   -1.690284   -1.114308
     16          1           0        6.687674   -2.492146   -2.532794
     17          1           0        6.331640   -0.912405   -2.328506
     18          1           0        6.868307   -1.797350   -1.067171
     19          7           0        4.375892    2.933106    0.966551
     20          6           0        3.045017    2.619143    1.101623
     21          6           0        4.911240    4.281592    0.691489
     22          7           0       -0.288308    3.593990    1.121848
     23          1           0       -1.181609    3.164669    1.251989
     24          1           0       -0.279616    4.578292    0.943576
     25          7           0        2.011072    3.482847    1.006525
     26          6           0        0.847466    2.882563    1.183448
     27          7           0        0.705129    1.539341    1.434424
     28          1           0       -0.223867    1.166456    1.556465
     29          6           0        1.754916    0.631927    1.536485
     30          8           0        1.518018   -0.560561    1.765800
     31          6           0        3.011310    1.262074    1.348695
     32          7           0        4.295206    0.734685    1.368343
     33          6           0        5.069595    1.759993    1.137565
     34          1           0        6.157804    1.716081    1.081422
     35          1           0        5.422503    4.270309   -0.167163
     36          1           0        4.154476    4.929916    0.618970
     37          1           0        5.516910    4.559867    1.436170
     38          1           0       -5.125954   -0.177259    1.427482
     39          1           0       -4.967553   -0.140271    3.181967
     40          1           0       -4.008295    0.956159    2.187460
     41          1           0       -2.890979   -4.367307    2.198807
     42          6           0       -2.657382   -3.303464    2.155290
     43          8           0       -0.317776   -3.637624    1.951106
     44          6           0       -1.293475   -2.890918    2.023449
     45          1           0       -0.158059   -1.193842    1.885156
     46          7           0       -1.108447   -1.523823    1.977929
     47          8           0       -1.815687    0.634112    1.996290
     48          6           0       -2.077994   -0.554790    2.045038
     49          1           0       -4.677694   -2.643333    2.323782
     50          6           0       -3.625148   -2.381826    2.223236
     51          6           0       -4.437888   -0.032797    2.247100
     52          7           0       -3.367963   -1.031437    2.171554
     53          1           0       -5.372104    3.612247   -3.234882
     54          1           0       -3.993383    3.790766   -2.380855
     55          1           0       -5.436984    4.041352   -1.661635
     56          1           0       -3.211681   -2.942847   -0.509289
     57          1           0       -4.852710   -2.514739   -0.693176
     58          7           0       -3.890634   -2.242037   -0.728445
     59          6           0       -3.530160   -0.998809   -1.053411
     60          6           0       -3.919132    1.261552   -1.686826
     61          7           0       -2.619627    1.599429   -1.726141
     62          1           0       -0.783261    0.743265   -1.417335
     63          6           0       -1.856087    0.555490   -1.409779
     64          7           0       -2.215208   -0.690498   -1.084012
     65          1           0       -7.117437    1.667513   -1.928172
     66          6           0       -6.109883    1.277657   -1.780571
     67          7           0       -5.831283    0.045221   -1.432492
     68          6           0       -4.445569    0.021516   -1.369507
     69          6           0       -4.946285    3.491993   -2.338100
     70          7           0       -5.000067    2.068755   -1.951446
 ---------------------------------------------------------------------

 SCF Done:  E(RwB97XD) =  -2048.74558911     A.U. after   15 cycles

 The electronic state is 1-A.
 Alpha  occ. eigenvalues --  -19.25756 -19.22096 -19.20649 -14.52437 -14.52416
 Alpha  occ. eigenvalues --  -14.48966 -14.48508 -14.47821 -14.47717 -14.46985
 Alpha  occ. eigenvalues --  -14.46781 -14.45461 -14.44534 -14.44394 -14.42143
 Alpha  occ. eigenvalues --  -14.41902 -14.41082 -14.40407 -14.40287 -14.39822
 Alpha  occ. eigenvalues --  -10.45421 -10.41363 -10.40212 -10.40142 -10.38303
 Alpha  occ. eigenvalues --  -10.38134 -10.38015 -10.37244 -10.35851 -10.34973
 Alpha  occ. eigenvalues --  -10.34916 -10.34502 -10.33795 -10.33517 -10.33166
 Alpha  occ. eigenvalues --  -10.32773 -10.32561 -10.32503 -10.31219 -10.31097
 Alpha  occ. eigenvalues --  -10.30138 -10.28254 -10.27752  -1.19337  -1.15189
 Alpha  occ. eigenvalues --   -1.13293  -1.13092  -1.10726  -1.10429  -1.09590
 Alpha  occ. eigenvalues --   -1.09235  -1.08658  -1.05012  -1.04466  -1.02412
 Alpha  occ. eigenvalues --   -1.01001  -0.99888  -0.99849  -0.98664  -0.97019
 Alpha  occ. eigenvalues --   -0.96758  -0.96094  -0.92158  -0.91234  -0.87652
 Alpha  occ. eigenvalues --   -0.85872  -0.84274  -0.83524  -0.83128  -0.82661
 Alpha  occ. eigenvalues --   -0.81535  -0.78965  -0.77134  -0.74918  -0.74761
 Alpha  occ. eigenvalues --   -0.73751  -0.73335  -0.72258  -0.70555  -0.70349
 Alpha  occ. eigenvalues --   -0.67506  -0.66963  -0.66556  -0.65654  -0.64560
 Alpha  occ. eigenvalues --   -0.64341  -0.63870  -0.62755  -0.62079  -0.61886
 Alpha  occ. eigenvalues --   -0.60684  -0.60284  -0.60065  -0.59600  -0.59309
 Alpha  occ. eigenvalues --   -0.59245  -0.58475  -0.56772  -0.56006  -0.55974
 Alpha  occ. eigenvalues --   -0.55472  -0.55284  -0.54936  -0.54510  -0.54219
 Alpha  occ. eigenvalues --   -0.53767  -0.53709  -0.53561  -0.53174  -0.53065
 Alpha  occ. eigenvalues --   -0.52831  -0.52374  -0.51040  -0.50308  -0.50055
 Alpha  occ. eigenvalues --   -0.49892  -0.49564  -0.49440  -0.49277  -0.48938
 Alpha  occ. eigenvalues --   -0.48509  -0.48322  -0.48258  -0.47863  -0.47375
 Alpha  occ. eigenvalues --   -0.46263  -0.45760  -0.45487  -0.44236  -0.43691
 Alpha  occ. eigenvalues --   -0.40736  -0.40526  -0.39377  -0.37684  -0.37649
 Alpha  occ. eigenvalues --   -0.37416  -0.37408  -0.36391  -0.35834  -0.34886
 Alpha  occ. eigenvalues --   -0.34454  -0.34084  -0.33300  -0.32822  -0.32806
 Alpha  occ. eigenvalues --   -0.32657  -0.32598  -0.32289  -0.31984  -0.30199
 Alpha  occ. eigenvalues --   -0.30091  -0.29825  -0.25627  -0.25164
 Alpha virt. eigenvalues --    0.02370   0.04398   0.06725   0.08542   0.08829
 Alpha virt. eigenvalues --    0.09110   0.09669   0.10498   0.11309   0.11628
 Alpha virt. eigenvalues --    0.13383   0.14418   0.14628   0.14936   0.15167

 Mulliken charges:
               1
     1  N   -0.312679
     2  C    0.182658
     3  C    0.052087
     4  N   -0.255410
     5  C    0.141062
     6  H    0.025071
     7  N   -0.301004
     8  C    0.134052
     9  H    0.008763
    10  N   -0.287902
    11  C    0.258617
    12  C    0.101486
    13  N   -0.066034
    14  H    0.114601
    15  H    0.083144
    16  H    0.021659
    17  H    0.031155
    18  H    0.027653
    19  N   -0.311254
    20  C    0.251918
    21  C    0.180727
    22  N   -0.122069
    23  H    0.116648
    24  H    0.117633
    25  N   -0.311998
    26  C    0.248803
    27  N   -0.150094
    28  H    0.119835
    29  C    0.198001
    30  O   -0.321127
    31  C   -0.014949
    32  N   -0.228155
    33  C    0.129000
    34  H    0.022582
    35  H    0.028613
    36  H    0.029444
    37  H    0.024862
    38  H    0.061234
    39  H    0.059946
    40  H    0.074303
    41  H    0.028853
    42  C   -0.128446
    43  O   -0.263544
    44  C    0.171028
    45  H    0.132500
    46  N   -0.122609
    47  O   -0.347043
    48  C    0.345882
    49  H    0.043723
    50  C    0.165807
    51  C    0.036892
    52  N   -0.276152
    53  H    0.034197
    54  H    0.041999
    55  H    0.028762
    56  H    0.117771
    57  H    0.114488
    58  N   -0.057384
    59  C    0.093404
    60  C    0.253845
    61  N   -0.274324
    62  H    0.036628
    63  C    0.177008
    64  N   -0.316642
    65  H    0.038660
    66  C    0.139130
    67  N   -0.267723
    68  C    0.023213
    69  C    0.180064
    70  N   -0.312868
 Sum of Mulliken charges =  -0.00000

 Dipole moment (field-independent basis, Debye):
    X=             -8.6439    Y=              6.5713    Z=             -0.3313  Tot=             10.8632
 Quadrupole moment (field-independent basis, Debye-Ang):
   XX=           -163.5711   YY=           -214.7827   ZZ=           -249.8094
   XY=              3.8850   XZ=            -11.1185   YZ=              1.7553

 Normal termination of Gaussian 16 at Wed Jan 24 17:57:00 2018.
