 Gaussian 16, Revision A.03,
 Gaussian 16:  EM64L-G16RevA.03 25-Dec-2016

 ---------------------------------------
 #p wb97xd/cc-pvdz sp scf=(maxcycles=20)
 ---------------------------------------

 ------------------
 Base pair stacking
 ------------------
 Symbolic Z-matrix:
 Charge =  0 Multiplicity = 1

                         Standard orientation:
 ---------------------------------------------------------------------
 Center     Atomic      Atomic             Coordinates (Angstroms)
 Number     Number       Type             X           Y           Z
 ---------------------------------------------------------------------
      1          7           0        4.905366   -1.911354   -1.593477
      2          6           0        6.312625   -1.478816   -1.696109
      3          6           0        2.707854   -1.928156   -1.504096
      4          7           0        3.111502   -3.249473   -1.377951
      5          6           0        4.419267   -3.186467   -1.436845
      6          1           0        5.085068   -4.047444   -1.370708
      7          7           0        1.384890    0.018159   -1.660871
      8          6           0        2.531322    0.695807   -1.779502
      9          1           0        2.424765    1.773956   -1.891303
     10          7           0        3.783726    0.243723   -1.780747
     11          6           0        3.802467   -1.091806   -1.637738
     12          6           0        1.437418   -1.324245   -1.518472
     13          7           0        0.294096   -2.002436   -1.399909
     14          1           0        0.285444   -2.997224   -1.292484
     15          1           0       -0.592275   -1.539533   -1.414414
     16          1           0        6.740253   -1.915951   -2.487456
     17          1           0        6.349846   -0.485843   -1.804484
     18          1           0        6.805337   -1.740551   -0.866214
     19          7           0        4.414945    2.713299    1.012136
     20          6           0        3.080679    2.388708    1.061458
     21          6           0        4.957225    4.050048    0.696320
     22          7           0       -0.253102    3.313858    0.758526
     23          1           0       -1.149672    2.880270    0.844567
     24          1           0       -0.239917    4.285365    0.520347
     25          7           0        2.049155    3.229637    0.831574
     26          6           0        0.881106    2.624346    0.953591
     27          7           0        0.732444    1.297144    1.276006
     28          1           0       -0.199619    0.918867    1.347666
     29          6           0        1.779639    0.413256    1.516802
     30          8           0        1.536963   -0.766227    1.800817
     31          6           0        3.040754    1.049064    1.389405
     32          7           0        4.324125    0.542806    1.542871
     33          6           0        5.104325    1.563252    1.310128
     34          1           0        6.193939    1.531974    1.342588
     35          1           0        5.535135    3.993489   -0.117077
     36          1           0        4.202307    4.681487    0.524152
     37          1           0        5.499095    4.382466    1.467482
     38          1           0       -5.062601   -0.502151    0.917743
     39          1           0       -5.044386   -0.355008    2.673496
     40          1           0       -4.019961    0.692165    1.690970
     41          1           0       -2.855037   -4.603530    2.122697
     42          6           0       -2.629145   -3.541057    2.031309
     43          8           0       -0.277549   -3.852720    2.033036
     44          6           0       -1.263168   -3.117393    1.981638
     45          1           0       -0.137029   -1.415536    1.827326
     46          7           0       -1.088503   -1.753116    1.865482
     47          8           0       -1.816053    0.391231    1.693330
     48          6           0       -2.069756   -0.796143    1.795461
     49          1           0       -4.662814   -2.901587    1.998815
     50          6           0       -3.608220   -2.631301    1.965229
     51          6           0       -4.443236   -0.297455    1.778296
     52          7           0       -3.360969   -1.283017    1.849672
     53          1           0       -5.315580    4.219370   -2.029523
     54          1           0       -4.004675    4.093205   -1.066337
     55          1           0       -5.499670    4.111310   -0.411543
     56          1           0       -3.272830   -2.890713   -1.446875
     57          1           0       -4.901702   -2.407371   -1.599390
     58          7           0       -3.943219   -2.149086   -1.473628
     59          6           0       -3.576398   -0.872108   -1.347318
     60          6           0       -3.947919    1.475399   -1.233633
     61          7           0       -2.653482    1.792753   -1.065886
     62          1           0       -0.833282    0.861837   -0.921390
     63          6           0       -1.901307    0.694127   -1.053546
     64          7           0       -2.266809   -0.585722   -1.179900
     65          1           0       -7.125396    1.974317   -1.560603
     66          6           0       -6.126170    1.546184   -1.475782
     67          7           0       -5.857461    0.264586   -1.530374
     68          6           0       -4.479742    0.205829   -1.378157
     69          6           0       -4.954214    3.807734   -1.192888
     70          7           0       -5.017286    2.336990   -1.297641
 ---------------------------------------------------------------------

 SCF Done:  E(RwB97XD) =  -2048.75011705     A.U. after   15 cycles

 The electronic state is 1-A.
 Alpha  occ. eigenvalues --  -19.25280 -19.21505 -19.20344 -14.52795 -14.52000
 Alpha  occ. eigenvalues --  -14.49000 -14.48641 -14.48218 -14.47311 -14.46521
 Alpha  occ. eigenvalues --  -14.46116 -14.45751 -14.44871 -14.44853 -14.42712
 Alpha  occ. eigenvalues --  -14.41794 -14.40924 -14.40759 -14.40660 -14.40263
 Alpha  occ. eigenvalues --  -10.44953 -10.40923 -10.40557 -10.39636 -10.38327
 Alpha  occ. eigenvalues --  -10.37962 -10.37630 -10.37528 -10.36376 -10.35486
 Alpha  occ. eigenvalues --  -10.34513 -10.34190 -10.34147 -10.33638 -10.33246
 Alpha  occ. eigenvalues --  -10.33064 -10.32988 -10.32854 -10.30845 -10.30818
 Alpha  occ. eigenvalues --  -10.30375 -10.28239 -10.27880  -1.18963  -1.15555
 Alpha  occ. eigenvalues --   -1.12917  -1.12522  -1.10854  -1.10384  -1.09871
 Alpha  occ. eigenvalues --   -1.08884  -1.08241  -1.05412  -1.04976  -1.01962
 Alpha  occ. eigenvalues --   -1.01352  -1.00453  -0.99311  -0.98298  -0.97422
 Alpha  occ. eigenvalues --   -0.96563  -0.96420  -0.92664  -0.90711  -0.88047
 Alpha  occ. eigenvalues --   -0.86269  -0.83926  -0.83530  -0.83116  -0.82347
 Alpha  occ. eigenvalues --   -0.81914  -0.78482  -0.77507  -0.75355  -0.74396
 Alpha  occ. eigenvalues --   -0.73287  -0.72875  -0.72755  -0.70949  -0.70794
 Alpha  occ. eigenvalues --   -0.67365  -0.67028  -0.66159  -0.66098  -0.64746
 Alpha  occ. eigenvalues --   -0.64161  -0.63493  -0.62610  -0.62439  -0.61433
 Alpha  occ. eigenvalues --   -0.60980  -0.60664  -0.60434  -0.59733  -0.59273
 Alpha  occ. eigenvalues --   -0.59080  -0.57926  -0.56686  -0.56355  -0.55743
 Alpha  occ. eigenvalues --   -0.55728  -0.55638  -0.55477  -0.54675  -0.54113
 Alpha  occ. eigenvalues --   -0.53899  -0.53517  -0.53352  -0.53135  -0.52751
 Alpha  occ. eigenvalues --   -0.52667  -0.51983  -0.51407  -0.50414  -0.50292
 Alpha  occ. eigenvalues --   -0.49937  -0.49856  -0.49730  -0.49024  -0.48752
 Alpha  occ. eigenvalues --   -0.48564  -0.48066  -0.47966  -0.47497  -0.47029
 Alpha  occ. eigenvalues --   -0.46648  -0.45713  -0.45231  -0.44271  -0.43520
 Alpha  occ. eigenvalues --   -0.41228  -0.41005  -0.38986  -0.38107  -0.38049
 Alpha  occ. eigenvalues --   -0.37320  -0.37078  -0.36595  -0.35407  -0.35189
 Alpha  occ. eigenvalues --   -0.34951  -0.33790  -0.33292  -0.33141  -0.32724
 Alpha  occ. eigenvalues --   -0.32415  -0.32242  -0.31700  -0.31679  -0.30570
 Alpha  occ. eigenvalues --   -0.30446  -0.30239  -0.25855  -0.25064
 Alpha virt. eigenvalues --    0.02950   0.04094   0.06211   0.08179   0.09152
 Alpha virt. eigenvalues --    0.09446   0.09967   0.10198   0.11062   0.11621
 Alpha virt. eigenvalues --    0.12992   0.14296   0.14726   0.14820   0.15213

 Mulliken charges:
               1
     1  N   -0.312949
     2  C    0.183838
     3  C    0.053885
     4  N   -0.261702
     5  C    0.141640
     6  H    0.026594
     7  N   -0.291564
     8  C    0.128275
     9  H    0.013557
    10  N   -0.279173
    11  C    0.261852
    12  C    0.096473
    13  N   -0.065600
    14  H    0.110558
    15  H    0.080276
    16  H    0.021525
    17  H    0.030386
    18  H    0.030174
    19  N   -0.306498
    20  C    0.244834
    21  C    0.180842
    22  N   -0.109403
    23  H    0.113044
    24  H    0.114389
    25  N   -0.307611
    26  C    0.232563
    27  N   -0.132312
    28  H    0.111861
    29  C    0.184713
    30  O   -0.322886
    31  C   -0.012145
    32  N   -0.227275
    33  C    0.126737
    34  H    0.019751
    35  H    0.028283
    36  H    0.028553
    37  H    0.023746
    38  H    0.061980
    39  H    0.058487
    40  H    0.075191
    41  H    0.028178
    42  C   -0.116558
    43  O   -0.261913
    44  C    0.176344
    45  H    0.132822
    46  N   -0.127871
    47  O   -0.342240
    48  C    0.347827
    49  H    0.042862
    50  C    0.164744
    51  C    0.035551
    52  N   -0.279955
    53  H    0.035324
    54  H    0.037159
    55  H    0.031195
    56  H    0.119053
    57  H    0.118280
    58  N   -0.060410
    59  C    0.085007
    60  C    0.255993
    61  N   -0.279025
    62  H    0.029554
    63  C    0.184493
    64  N   -0.310880
    65  H    0.040090
    66  C    0.137878
    67  N   -0.259381
    68  C    0.012430
    69  C    0.181141
    70  N   -0.312578
 Sum of Mulliken charges =  -0.00000

 Dipole moment (field-independent basis, Debye):
    X=             -8.5936    Y=              6.0725    Z=             -1.9135  Tot=             10.6952
 Quadrupole moment (field-independent basis, Debye-Ang):
   XX=           -162.9183   YY=           -216.2760   ZZ=           -253.9001
   XY=              5.0113   XZ=            -12.4418   YZ=              9.0627

 Normal termination of Gaussian 16 at Wed Jan 24 12:58:05 2018.
