 Gaussian 16, Revision A.03,
 Gaussian 16:  EM64L-G16RevA.03 25-Dec-2016

 ---------------------------------------
 #p wb97xd/cc-pvdz sp scf=(maxcycles=20)
 ---------------------------------------

 ------------------
 Base pair stacking
 ------------------
 Symbolic Z-matrix:
 Charge =  0 Multiplicity = 1

                         Standard orientation:
 ---------------------------------------------------------------------
 Center     Atomic      Atomic             Coordinates (Angstroms)
 Number     Number       Type             X           Y           Z
 ---------------------------------------------------------------------
      1          7           0        5.236543   -1.928265   -1.420710
      2          6           0        6.640309   -1.495958   -1.564084
      3          6           0        3.038572   -1.958259   -1.347458
      4          7           0        3.454194   -3.249861   -1.058010
      5          6           0        4.761748   -3.180090   -1.113731
      6          1           0        5.435450   -4.019213   -0.937854
      7          7           0        1.697785   -0.060223   -1.750788
      8          6           0        2.838450    0.610523   -1.941985
      9          1           0        2.722196    1.665789   -2.185189
     10          7           0        4.095260    0.175472   -1.878153
     11          6           0        4.125994   -1.132404   -1.573306
     12          6           0        1.762373   -1.374636   -1.445444
     13          7           0        0.624824   -2.045899   -1.254218
     14          1           0        0.625080   -3.020234   -1.026439
     15          1           0       -0.265948   -1.598012   -1.332085
     16          1           0        7.079571   -2.021463   -2.292824
     17          1           0        6.668634   -0.523224   -1.792356
     18          1           0        7.127903   -1.649237   -0.704574
     19          7           0        4.074562    2.831706    1.191561
     20          6           0        2.742833    2.494574    1.221436
     21          6           0        4.607284    4.183389    0.927224
     22          7           0       -0.596915    3.402567    0.932665
     23          1           0       -1.490247    2.958796    0.997847
     24          1           0       -0.590609    4.382096    0.729691
     25          7           0        1.705535    3.334721    1.015981
     26          6           0        0.541982    2.715825    1.109351
     27          7           0        0.402747    1.376684    1.382923
     28          1           0       -0.526474    0.988408    1.435507
     29          6           0        1.456025    0.493346    1.597807
     30          8           0        1.221747   -0.697561    1.837778
     31          6           0        2.712412    1.143696    1.500704
     32          7           0        3.999142    0.642815    1.643294
     33          6           0        4.771973    1.677382    1.451952
     34          1           0        5.861616    1.653916    1.489590
     35          1           0        5.190118    4.160935    0.115684
     36          1           0        3.848014    4.814381    0.773516
     37          1           0        5.142080    4.492243    1.712981
     38          1           0       -5.374857   -0.456164    0.926518
     39          1           0       -5.367533   -0.372257    2.686506
     40          1           0       -4.346595    0.718040    1.748270
     41          1           0       -3.139419   -4.579998    1.995836
     42          6           0       -2.922001   -3.513094    1.944066
     43          8           0       -0.567911   -3.805258    1.948208
     44          6           0       -1.559405   -3.076689    1.917597
     45          1           0       -0.446833   -1.361165    1.831178
     46          7           0       -1.395615   -1.707728    1.851647
     47          8           0       -2.140276    0.435374    1.752568
     48          6           0       -2.384502   -0.756959    1.810435
     49          1           0       -4.960794   -2.889634    1.922821
     50          6           0       -3.908345   -2.609653    1.905094
     51          6           0       -4.761980   -0.277525    1.797460
     52          7           0       -3.671840   -1.256083    1.839580
     53          1           0       -5.040524    3.990731   -2.682050
     54          1           0       -3.737405    3.997241   -1.700260
     55          1           0       -5.238490    4.078484   -1.064486
     56          1           0       -2.932498   -2.972534   -1.220999
     57          1           0       -4.564621   -2.529344   -1.444249
     58          7           0       -3.609961   -2.247119   -1.343270
     59          6           0       -3.257074   -0.960300   -1.370606
     60          6           0       -3.653014    1.379339   -1.546817
     61          7           0       -2.363407    1.729006   -1.408690
     62          1           0       -0.535431    0.842736   -1.137330
     63          6           0       -1.600462    0.648414   -1.256570
     64          7           0       -1.952001   -0.641244   -1.228917
     65          1           0       -6.832143    1.799678   -1.957450
     66          6           0       -5.829521    1.396108   -1.813131
     67          7           0       -5.547555    0.120436   -1.708994
     68          6           0       -4.170794    0.095836   -1.539772
     69          6           0       -4.682832    3.688044   -1.798632
     70          7           0       -4.730279    2.214889   -1.723869
 ---------------------------------------------------------------------

 SCF Done:  E(RwB97XD) =  -2048.75052395     A.U. after   15 cycles

 The electronic state is 1-A.
 Alpha  occ. eigenvalues --  -19.25536 -19.21814 -19.20441 -14.52635 -14.52219
 Alpha  occ. eigenvalues --  -14.48689 -14.48634 -14.48164 -14.47542 -14.46716
 Alpha  occ. eigenvalues --  -14.46334 -14.45659 -14.44563 -14.44560 -14.42245
 Alpha  occ. eigenvalues --  -14.41857 -14.40812 -14.40775 -14.40543 -14.40038
 Alpha  occ. eigenvalues --  -10.45198 -10.41043 -10.40253 -10.39933 -10.38205
 Alpha  occ. eigenvalues --  -10.38067 -10.37771 -10.37412 -10.35980 -10.35202
 Alpha  occ. eigenvalues --  -10.34717 -10.34212 -10.34072 -10.33530 -10.33236
 Alpha  occ. eigenvalues --  -10.32896 -10.32862 -10.32744 -10.31031 -10.30870
 Alpha  occ. eigenvalues --  -10.30441 -10.28065 -10.27961  -1.19156  -1.15380
 Alpha  occ. eigenvalues --   -1.13026  -1.12814  -1.10765  -1.10456  -1.09578
 Alpha  occ. eigenvalues --   -1.09092  -1.08360  -1.05116  -1.04727  -1.02204
 Alpha  occ. eigenvalues --   -1.01190  -1.00177  -0.99475  -0.98391  -0.97123
 Alpha  occ. eigenvalues --   -0.96481  -0.96439  -0.92419  -0.90937  -0.87822
 Alpha  occ. eigenvalues --   -0.86096  -0.83981  -0.83437  -0.83297  -0.82401
 Alpha  occ. eigenvalues --   -0.81848  -0.78715  -0.77263  -0.75079  -0.74471
 Alpha  occ. eigenvalues --   -0.73434  -0.73101  -0.72558  -0.70731  -0.70601
 Alpha  occ. eigenvalues --   -0.67190  -0.67074  -0.66312  -0.65958  -0.64518
 Alpha  occ. eigenvalues --   -0.64285  -0.63620  -0.62524  -0.62394  -0.61551
 Alpha  occ. eigenvalues --   -0.60773  -0.60414  -0.60269  -0.59506  -0.59381
 Alpha  occ. eigenvalues --   -0.59232  -0.58098  -0.56586  -0.56262  -0.55779
 Alpha  occ. eigenvalues --   -0.55768  -0.55525  -0.55211  -0.54460  -0.54065
 Alpha  occ. eigenvalues --   -0.53934  -0.53499  -0.53474  -0.53085  -0.52931
 Alpha  occ. eigenvalues --   -0.52792  -0.52140  -0.51341  -0.50287  -0.50140
 Alpha  occ. eigenvalues --   -0.49998  -0.49748  -0.49494  -0.49179  -0.48681
 Alpha  occ. eigenvalues --   -0.48572  -0.48228  -0.48059  -0.47535  -0.47167
 Alpha  occ. eigenvalues --   -0.46531  -0.45693  -0.45337  -0.44313  -0.43660
 Alpha  occ. eigenvalues --   -0.40972  -0.40772  -0.39183  -0.37855  -0.37789
 Alpha  occ. eigenvalues --   -0.37160  -0.37138  -0.36664  -0.35634  -0.34989
 Alpha  occ. eigenvalues --   -0.34644  -0.33707  -0.33170  -0.33096  -0.32898
 Alpha  occ. eigenvalues --   -0.32535  -0.32312  -0.32013  -0.31756  -0.30496
 Alpha  occ. eigenvalues --   -0.30236  -0.30094  -0.25481  -0.25254
 Alpha virt. eigenvalues --    0.02725   0.04208   0.06551   0.08366   0.08913
 Alpha virt. eigenvalues --    0.09342   0.09935   0.10282   0.11342   0.11632
 Alpha virt. eigenvalues --    0.12734   0.14330   0.14694   0.14870   0.15181

 Mulliken charges:
               1
     1  N   -0.313031
     2  C    0.182488
     3  C    0.051073
     4  N   -0.259692
     5  C    0.139606
     6  H    0.025776
     7  N   -0.297808
     8  C    0.134477
     9  H    0.010389
    10  N   -0.286203
    11  C    0.260539
    12  C    0.105372
    13  N   -0.060917
    14  H    0.111999
    15  H    0.081547
    16  H    0.022649
    17  H    0.030973
    18  H    0.027987
    19  N   -0.309390
    20  C    0.249612
    21  C    0.180622
    22  N   -0.109232
    23  H    0.112278
    24  H    0.114686
    25  N   -0.310040
    26  C    0.235155
    27  N   -0.145578
    28  H    0.119372
    29  C    0.192285
    30  O   -0.322953
    31  C   -0.016644
    32  N   -0.225673
    33  C    0.130833
    34  H    0.020620
    35  H    0.029023
    36  H    0.028556
    37  H    0.023943
    38  H    0.060282
    39  H    0.059405
    40  H    0.072748
    41  H    0.028419
    42  C   -0.119107
    43  O   -0.263585
    44  C    0.172342
    45  H    0.131848
    46  N   -0.123314
    47  O   -0.342042
    48  C    0.338522
    49  H    0.044082
    50  C    0.165361
    51  C    0.037836
    52  N   -0.279207
    53  H    0.035282
    54  H    0.038886
    55  H    0.029472
    56  H    0.120015
    57  H    0.115519
    58  N   -0.057245
    59  C    0.088797
    60  C    0.255837
    61  N   -0.276278
    62  H    0.039797
    63  C    0.169479
    64  N   -0.309064
    65  H    0.039031
    66  C    0.138284
    67  N   -0.265447
    68  C    0.022501
    69  C    0.179888
    70  N   -0.313046
 Sum of Mulliken charges =  -0.00000

 Dipole moment (field-independent basis, Debye):
    X=             -8.6461    Y=              6.1098    Z=             -1.5931  Tot=             10.7062
 Quadrupole moment (field-independent basis, Debye-Ang):
   XX=           -160.5069   YY=           -215.5393   ZZ=           -253.3656
   XY=              3.5972   XZ=             -8.1013   YZ=              6.5124

 Normal termination of Gaussian 16 at Wed Jan 24 09:06:13 2018.
