 Gaussian 16, Revision A.03,
 Gaussian 16:  EM64L-G16RevA.03 25-Dec-2016

 ---------------------------------------
 #p wb97xd/cc-pvdz sp scf=(maxcycles=20)
 ---------------------------------------

 ------------------
 Base pair stacking
 ------------------
 Symbolic Z-matrix:
 Charge =  0 Multiplicity = 1

                         Standard orientation:
 ---------------------------------------------------------------------
 Center     Atomic      Atomic             Coordinates (Angstroms)
 Number     Number       Type             X           Y           Z
 ---------------------------------------------------------------------
      1          7           0       -6.944682   -1.543116    0.253084
      2          6           0       -8.328478   -1.050292    0.110822
      3          6           0       -4.774031   -1.659924    0.587657
      4          7           0       -5.192414   -2.951049    0.300131
      5          6           0       -6.483413   -2.829003    0.110074
      6          1           0       -7.153931   -3.651950   -0.139122
      7          7           0       -3.438182    0.208720    1.123012
      8          6           0       -4.560669    0.932579    1.062644
      9          1           0       -4.439395    1.996245    1.263029
     10          7           0       -5.804619    0.541604    0.793168
     11          6           0       -5.842972   -0.781142    0.562327
     12          6           0       -3.510006   -1.119299    0.885821
     13          7           0       -2.390602   -1.843549    0.945615
     14          1           0       -2.396824   -2.829854    0.777150
     15          1           0       -1.508085   -1.425185    1.160734
     16          1           0       -8.917725   -1.510927    0.774735
     17          1           0       -8.350504   -0.064486    0.274597
     18          1           0       -8.658816   -1.240342   -0.813715
     19          7           0       -2.160138    2.804449   -1.786445
     20          6           0       -0.863078    2.416546   -1.551457
     21          6           0       -2.665713    4.189332   -1.701592
     22          7           0        2.408848    3.215791   -0.704421
     23          1           0        3.276561    2.735659   -0.578777
     24          1           0        2.413380    4.205922   -0.561797
     25          7           0        0.159241    3.228829   -1.206339
     26          6           0        1.288975    2.562141   -1.048691
     27          7           0        1.410369    1.203880   -1.215775
     28          1           0        2.313720    0.778556   -1.074302
     29          6           0        0.371969    0.348516   -1.570646
     30          8           0        0.587800   -0.863312   -1.695639
     31          6           0       -0.848086    1.050283   -1.743501
     32          7           0       -2.110342    0.589698   -2.092053
     33          6           0       -2.853907    1.662615   -2.105114
     34          1           0       -3.918437    1.677521   -2.341376
     35          1           0       -3.386570    4.241057   -1.011312
     36          1           0       -1.917242    4.800097   -1.446626
     37          1           0       -3.033361    4.466650   -2.588582
     38          1           0        6.913203   -0.810415    0.399675
     39          1           0        7.229575   -0.839952   -1.333441
     40          1           0        6.109448    0.345975   -0.662437
     41          1           0        4.711469   -4.908165   -0.828080
     42          6           0        4.540329   -3.832763   -0.877648
     43          8           0        2.214740   -4.036383   -1.298699
     44          6           0        3.218381   -3.344931   -1.127278
     45          1           0        2.193238   -1.587018   -1.344367
     46          7           0        3.112017   -1.969401   -1.170134
     47          8           0        3.929477    0.146290   -1.056969
     48          6           0        4.121973   -1.055586   -1.001353
     49          1           0        6.569212   -3.285881   -0.516612
     50          6           0        5.545896   -2.966193   -0.708857
     51          6           0        6.478024   -0.665521   -0.577916
     52          7           0        5.367434   -1.603322   -0.764663
     53          1           0        3.207754    4.056573    3.048630
     54          1           0        2.106371    4.048477    1.844888
     55          1           0        3.700071    4.032387    1.492854
     56          1           0        1.064381   -2.902727    1.620500
     57          1           0        2.648424   -2.507384    2.115064
     58          7           0        1.742804   -2.196770    1.824216
     59          6           0        1.453722   -0.898576    1.713290
     60          6           0        1.924224    1.431117    1.826813
     61          7           0        0.699643    1.819103    1.434018
     62          1           0       -1.089545    0.986131    0.881233
     63          6           0       -0.074569    0.760236    1.205354
     64          7           0        0.213121   -0.540767    1.315884
     65          1           0        4.992593    1.757926    2.791426
     66          6           0        4.014444    1.383644    2.487999
     67          7           0        3.694462    0.115356    2.406024
     68          6           0        2.371739    0.131374    1.987828
     69          6           0        3.002089    3.711132    2.133003
     70          7           0        2.990731    2.235491    2.151681
 ---------------------------------------------------------------------

 SCF Done:  E(RwB97XD) =  -2048.73363301     A.U. after   15 cycles

 The electronic state is 1-A.
 Alpha  occ. eigenvalues --  -19.25976 -19.22236 -19.20715 -14.52576 -14.51576
 Alpha  occ. eigenvalues --  -14.48979 -14.48868 -14.48047 -14.47249 -14.46938
 Alpha  occ. eigenvalues --  -14.46876 -14.44527 -14.42977 -14.42759 -14.42333
 Alpha  occ. eigenvalues --  -14.42117 -14.41661 -14.41113 -14.40862 -14.40325
 Alpha  occ. eigenvalues --  -10.45629 -10.41453 -10.40340 -10.38708 -10.38350
 Alpha  occ. eigenvalues --  -10.37992 -10.37126 -10.35997 -10.35592 -10.35370
 Alpha  occ. eigenvalues --  -10.34470 -10.34355 -10.34316 -10.33587 -10.33432
 Alpha  occ. eigenvalues --  -10.33348 -10.33298 -10.31590 -10.31280 -10.31111
 Alpha  occ. eigenvalues --  -10.30944 -10.28762 -10.28288  -1.19554  -1.14282
 Alpha  occ. eigenvalues --   -1.13367  -1.13237  -1.11570  -1.10700  -1.09466
 Alpha  occ. eigenvalues --   -1.08856  -1.08019  -1.05165  -1.03588  -1.02676
 Alpha  occ. eigenvalues --   -1.00612  -1.00463  -0.99830  -0.98637  -0.97167
 Alpha  occ. eigenvalues --   -0.96668  -0.95591  -0.92812  -0.91225  -0.86686
 Alpha  occ. eigenvalues --   -0.85166  -0.84264  -0.84143  -0.83787  -0.82623
 Alpha  occ. eigenvalues --   -0.82505  -0.79044  -0.75975  -0.74800  -0.73999
 Alpha  occ. eigenvalues --   -0.73642  -0.73528  -0.73097  -0.71260  -0.69389
 Alpha  occ. eigenvalues --   -0.67679  -0.66715  -0.66494  -0.65738  -0.64621
 Alpha  occ. eigenvalues --   -0.63930  -0.63280  -0.62866  -0.62837  -0.62196
 Alpha  occ. eigenvalues --   -0.60396  -0.59791  -0.59691  -0.59548  -0.59288
 Alpha  occ. eigenvalues --   -0.58844  -0.58576  -0.56877  -0.56682  -0.56563
 Alpha  occ. eigenvalues --   -0.56106  -0.55575  -0.55081  -0.54559  -0.54368
 Alpha  occ. eigenvalues --   -0.53805  -0.53505  -0.53102  -0.52846  -0.52587
 Alpha  occ. eigenvalues --   -0.52324  -0.51914  -0.51849  -0.50926  -0.50371
 Alpha  occ. eigenvalues --   -0.50288  -0.49580  -0.49350  -0.48985  -0.48747
 Alpha  occ. eigenvalues --   -0.48724  -0.48403  -0.48094  -0.47791  -0.47533
 Alpha  occ. eigenvalues --   -0.47157  -0.45552  -0.45262  -0.44209  -0.43065
 Alpha  occ. eigenvalues --   -0.41372  -0.39654  -0.39510  -0.37688  -0.37384
 Alpha  occ. eigenvalues --   -0.37347  -0.36745  -0.36436  -0.35759  -0.34799
 Alpha  occ. eigenvalues --   -0.33778  -0.33663  -0.33398  -0.33243  -0.32893
 Alpha  occ. eigenvalues --   -0.32772  -0.32460  -0.32141  -0.31941  -0.31119
 Alpha  occ. eigenvalues --   -0.30542  -0.28821  -0.25972  -0.25533
 Alpha virt. eigenvalues --    0.02888   0.04895   0.07671   0.07757   0.08346
 Alpha virt. eigenvalues --    0.09395   0.09526   0.10774   0.11358   0.12246
 Alpha virt. eigenvalues --    0.12767   0.13816   0.14580   0.14660   0.14751

 Mulliken charges:
               1
     1  N   -0.311232
     2  C    0.180955
     3  C    0.032336
     4  N   -0.259146
     5  C    0.133924
     6  H    0.027196
     7  N   -0.289516
     8  C    0.129862
     9  H    0.009216
    10  N   -0.289369
    11  C    0.242301
    12  C    0.125432
    13  N   -0.055688
    14  H    0.108538
    15  H    0.089158
    16  H    0.025779
    17  H    0.034692
    18  H    0.026334
    19  N   -0.310516
    20  C    0.236430
    21  C    0.181579
    22  N   -0.111414
    23  H    0.117095
    24  H    0.115164
    25  N   -0.285754
    26  C    0.215044
    27  N   -0.115114
    28  H    0.115858
    29  C    0.147104
    30  O   -0.318202
    31  C    0.001319
    32  N   -0.220248
    33  C    0.130171
    34  H    0.031054
    35  H    0.029583
    36  H    0.027843
    37  H    0.024875
    38  H    0.062350
    39  H    0.059181
    40  H    0.072898
    41  H    0.031789
    42  C   -0.113697
    43  O   -0.268104
    44  C    0.168994
    45  H    0.136376
    46  N   -0.134800
    47  O   -0.349754
    48  C    0.362247
    49  H    0.048810
    50  C    0.173777
    51  C    0.043553
    52  N   -0.295337
    53  H    0.033712
    54  H    0.043997
    55  H    0.006192
    56  H    0.125530
    57  H    0.113953
    58  N   -0.062890
    59  C    0.102723
    60  C    0.224486
    61  N   -0.257941
    62  H    0.058282
    63  C    0.148434
    64  N   -0.296746
    65  H    0.028963
    66  C    0.128924
    67  N   -0.267276
    68  C    0.030628
    69  C    0.175740
    70  N   -0.307639
 Sum of Mulliken charges =  -0.00000

 Dipole moment (field-independent basis, Debye):
    X=              8.1047    Y=              5.4106    Z=              2.4516  Tot=             10.0484
 Quadrupole moment (field-independent basis, Debye-Ang):
   XX=           -148.0414   YY=           -218.1700   ZZ=           -251.9093
   XY=              2.3326   XZ=             12.1527   YZ=             -9.0538

 Normal termination of Gaussian 16 at Wed Jan 24 09:40:21 2018.
