 Gaussian 16, Revision A.03,
 Gaussian 16:  EM64L-G16RevA.03 25-Dec-2016

 ---------------------------------------
 #p wb97xd/cc-pvdz sp scf=(maxcycles=20)
 ---------------------------------------

 ------------------
 Base pair stacking
 ------------------
 Symbolic Z-matrix:
 Charge =  0 Multiplicity = 1

                         Standard orientation:
 ---------------------------------------------------------------------
 Center     Atomic      Atomic             Coordinates (Angstroms)
 Number     Number       Type             X           Y           Z
 ---------------------------------------------------------------------
      1          7           0        5.217719   -1.821809   -1.415253
      2          6           0        6.623658   -1.373136   -1.421200
      3          6           0        3.018774   -1.860697   -1.435989
      4          7           0        3.429745   -3.184220   -1.371793
      5          6           0        4.738071   -3.107822   -1.361866
      6          1           0        5.408921   -3.966205   -1.316093
      7          7           0        1.684519    0.081566   -1.537685
      8          6           0        2.828146    0.773897   -1.557366
      9          1           0        2.715776    1.856080   -1.607574
     10          7           0        4.083829    0.332221   -1.524491
     11          6           0        4.109697   -1.009433   -1.463413
     12          6           0        1.744235   -1.266662   -1.475962
     13          7           0        0.603733   -1.959510   -1.456221
     14          1           0        0.600363   -2.959092   -1.410956
     15          1           0       -0.285719   -1.503307   -1.486005
     16          1           0        7.094111   -1.757000   -2.215869
     17          1           0        6.655617   -0.375093   -1.466117
     18          1           0        7.077892   -1.682216   -0.585662
     19          7           0        4.106638    2.711258    1.158091
     20          6           0        2.774946    2.372873    1.145569
     21          6           0        4.650660    4.048350    0.846797
     22          7           0       -0.548374    3.255991    0.658385
     23          1           0       -1.443718    2.814083    0.706556
     24          1           0       -0.532981    4.223409    0.404244
     25          7           0        1.747944    3.198377    0.849176
     26          6           0        0.581403    2.582405    0.922541
     27          7           0        0.430043    1.259308    1.260172
     28          1           0       -0.500566    0.872048    1.291224
     29          6           0        1.472582    0.391210    1.568991
     30          8           0        1.227784   -0.785902    1.860940
     31          6           0        2.732022    1.038614    1.494428
     32          7           0        4.011028    0.549190    1.721397
     33          6           0        4.791644    1.574082    1.510587
     34          1           0        5.878458    1.555354    1.598636
     35          1           0        5.269636    3.984401    0.064759
     36          1           0        3.899080    4.668435    0.625677
     37          1           0        5.149311    4.399725    1.638432
     38          1           0       -5.320818   -0.609504    0.640907
     39          1           0       -5.393195   -0.432467    2.392497
     40          1           0       -4.330913    0.609139    1.444875
     41          1           0       -3.135750   -4.665335    2.027374
     42          6           0       -2.916297   -3.602130    1.928982
     43          8           0       -0.564779   -3.887812    2.055023
     44          6           0       -1.553925   -3.164361    1.941023
     45          1           0       -0.438724   -1.453062    1.814133
     46          7           0       -1.387443   -1.800405    1.810040
     47          8           0       -2.127029    0.332582    1.563888
     48          6           0       -2.373527   -0.855623    1.673801
     49          1           0       -4.952084   -2.985739    1.782562
     50          6           0       -3.899936   -2.704470    1.797600
     51          6           0       -4.748017   -0.383460    1.527966
     52          7           0       -3.660822   -1.355697    1.671159
     53          1           0       -5.033993    4.246925   -1.977705
     54          1           0       -3.770551    4.071020   -0.960411
     55          1           0       -5.295910    4.037124   -0.380575
     56          1           0       -2.947011   -2.870014   -1.734462
     57          1           0       -4.571498   -2.390428   -1.937323
     58          7           0       -3.623103   -2.133239   -1.748560
     59          6           0       -3.276461   -0.863854   -1.525689
     60          6           0       -3.677946    1.469176   -1.285900
     61          7           0       -2.396709    1.785241   -1.035008
     62          1           0       -0.575999    0.860909   -0.858284
     63          6           0       -1.634434    0.693682   -1.053264
     64          7           0       -1.979735   -0.578567   -1.276293
     65          1           0       -6.840712    1.963486   -1.738389
     66          6           0       -5.842360    1.538454   -1.630770
     67          7           0       -5.557742    0.264791   -1.750977
     68          6           0       -4.188579    0.207070   -1.534644
     69          6           0       -4.709681    3.786814   -1.151190
     70          7           0       -4.751964    2.325002   -1.349491
 ---------------------------------------------------------------------

 SCF Done:  E(RwB97XD) =  -2048.74556564     A.U. after   15 cycles

 The electronic state is 1-A.
 Alpha  occ. eigenvalues --  -19.25303 -19.21551 -19.20275 -14.52931 -14.52056
 Alpha  occ. eigenvalues --  -14.48937 -14.48454 -14.48343 -14.47377 -14.46391
 Alpha  occ. eigenvalues --  -14.45873 -14.45561 -14.44801 -14.44770 -14.42630
 Alpha  occ. eigenvalues --  -14.41573 -14.41049 -14.40656 -14.40508 -14.40168
 Alpha  occ. eigenvalues --  -10.44992 -10.40696 -10.40549 -10.39682 -10.38442
 Alpha  occ. eigenvalues --  -10.37855 -10.37694 -10.37535 -10.36314 -10.35460
 Alpha  occ. eigenvalues --  -10.34537 -10.34390 -10.33954 -10.33739 -10.33104
 Alpha  occ. eigenvalues --  -10.33044 -10.33022 -10.32842 -10.30843 -10.30687
 Alpha  occ. eigenvalues --  -10.30557 -10.28272 -10.27679  -1.19043  -1.15657
 Alpha  occ. eigenvalues --   -1.12791  -1.12575  -1.10954  -1.10230  -1.09842
 Alpha  occ. eigenvalues --   -1.08946  -1.08059  -1.05419  -1.04949  -1.02023
 Alpha  occ. eigenvalues --   -1.01459  -1.00436  -0.99023  -0.98155  -0.97409
 Alpha  occ. eigenvalues --   -0.96661  -0.96243  -0.92637  -0.90737  -0.88127
 Alpha  occ. eigenvalues --   -0.86397  -0.83758  -0.83586  -0.83153  -0.82190
 Alpha  occ. eigenvalues --   -0.82017  -0.78530  -0.77542  -0.75452  -0.74222
 Alpha  occ. eigenvalues --   -0.73109  -0.72905  -0.72788  -0.71002  -0.70839
 Alpha  occ. eigenvalues --   -0.67435  -0.66812  -0.66202  -0.66111  -0.64830
 Alpha  occ. eigenvalues --   -0.64100  -0.63434  -0.62640  -0.62439  -0.61213
 Alpha  occ. eigenvalues --   -0.60974  -0.60686  -0.60562  -0.59784  -0.59327
 Alpha  occ. eigenvalues --   -0.59096  -0.57705  -0.56768  -0.56268  -0.55870
 Alpha  occ. eigenvalues --   -0.55826  -0.55711  -0.55502  -0.54609  -0.54306
 Alpha  occ. eigenvalues --   -0.53835  -0.53603  -0.53286  -0.53169  -0.52855
 Alpha  occ. eigenvalues --   -0.52559  -0.51981  -0.51505  -0.50568  -0.50188
 Alpha  occ. eigenvalues --   -0.49933  -0.49803  -0.49752  -0.48989  -0.48820
 Alpha  occ. eigenvalues --   -0.48457  -0.48022  -0.47923  -0.47251  -0.46982
 Alpha  occ. eigenvalues --   -0.46662  -0.45685  -0.45141  -0.44215  -0.43552
 Alpha  occ. eigenvalues --   -0.41383  -0.40918  -0.39052  -0.38164  -0.38062
 Alpha  occ. eigenvalues --   -0.37378  -0.36923  -0.36481  -0.35392  -0.35214
 Alpha  occ. eigenvalues --   -0.34934  -0.33503  -0.33360  -0.33044  -0.32722
 Alpha  occ. eigenvalues --   -0.32317  -0.32021  -0.31785  -0.31563  -0.30655
 Alpha  occ. eigenvalues --   -0.30434  -0.30279  -0.25717  -0.24901
 Alpha virt. eigenvalues --    0.02838   0.04102   0.06126   0.08214   0.09062
 Alpha virt. eigenvalues --    0.09433   0.10026   0.10236   0.11166   0.11761
 Alpha virt. eigenvalues --    0.12611   0.14100   0.14666   0.14966   0.15321

 Mulliken charges:
               1
     1  N   -0.313697
     2  C    0.183165
     3  C    0.050271
     4  N   -0.262501
     5  C    0.139379
     6  H    0.026231
     7  N   -0.293843
     8  C    0.134345
     9  H    0.013430
    10  N   -0.281589
    11  C    0.263429
    12  C    0.101782
    13  N   -0.061620
    14  H    0.108507
    15  H    0.080251
    16  H    0.022571
    17  H    0.030282
    18  H    0.029277
    19  N   -0.300832
    20  C    0.229733
    21  C    0.180614
    22  N   -0.094215
    23  H    0.109585
    24  H    0.111057
    25  N   -0.304390
    26  C    0.218604
    27  N   -0.139833
    28  H    0.115449
    29  C    0.189530
    30  O   -0.324044
    31  C   -0.017240
    32  N   -0.222701
    33  C    0.130377
    34  H    0.018160
    35  H    0.028741
    36  H    0.027777
    37  H    0.023343
    38  H    0.060355
    39  H    0.058479
    40  H    0.073181
    41  H    0.028844
    42  C   -0.115273
    43  O   -0.262214
    44  C    0.177365
    45  H    0.132029
    46  N   -0.127080
    47  O   -0.338947
    48  C    0.339681
    49  H    0.043993
    50  C    0.165198
    51  C    0.039694
    52  N   -0.281945
    53  H    0.036213
    54  H    0.035227
    55  H    0.031889
    56  H    0.119643
    57  H    0.117581
    58  N   -0.059282
    59  C    0.089226
    60  C    0.261288
    61  N   -0.285946
    62  H    0.047534
    63  C    0.170890
    64  N   -0.305968
    65  H    0.039918
    66  C    0.136680
    67  N   -0.259153
    68  C    0.012377
    69  C    0.181104
    70  N   -0.311970
 Sum of Mulliken charges =  -0.00000

 Dipole moment (field-independent basis, Debye):
    X=             -8.6626    Y=              5.8693    Z=             -2.5868  Tot=             10.7787
 Quadrupole moment (field-independent basis, Debye-Ang):
   XX=           -159.9812   YY=           -217.3087   ZZ=           -255.1725
   XY=              3.7518   XZ=             -8.8655   YZ=             10.2797

 Normal termination of Gaussian 16 at Wed Jan 24 16:48:54 2018.
