 Gaussian 16, Revision A.03,
 Gaussian 16:  EM64L-G16RevA.03 25-Dec-2016

 ---------------------------------------
 #p wb97xd/cc-pvdz sp scf=(maxcycles=20)
 ---------------------------------------

 ------------------
 Base pair stacking
 ------------------
 Symbolic Z-matrix:
 Charge =  0 Multiplicity = 1

                         Standard orientation:
 ---------------------------------------------------------------------
 Center     Atomic      Atomic             Coordinates (Angstroms)
 Number     Number       Type             X           Y           Z
 ---------------------------------------------------------------------
      1          7           0       -6.655320   -1.576270    0.455371
      2          6           0       -8.035219   -1.086794    0.270150
      3          6           0       -4.484118   -1.679964    0.790641
      4          7           0       -4.915967   -2.989337    0.636461
      5          6           0       -6.206761   -2.874457    0.440649
      6          1           0       -6.886183   -3.711739    0.278519
      7          7           0       -3.128189    0.219971    1.129257
      8          6           0       -4.244216    0.944973    1.001112
      9          1           0       -4.112026    2.022180    1.092806
     10          7           0       -5.493147    0.541014    0.777756
     11          6           0       -5.544979   -0.797816    0.681519
     12          6           0       -3.213580   -1.124429    1.027369
     13          7           0       -2.100638   -1.849864    1.155002
     14          1           0       -2.116889   -2.848010    1.086781
     15          1           0       -1.213157   -1.420596    1.323070
     16          1           0       -8.625197   -1.472465    0.979633
     17          1           0       -8.047244   -0.089350    0.333875
     18          1           0       -8.372171   -1.365750   -0.629099
     19          7           0       -2.520488    2.752366   -1.698930
     20          6           0       -1.217418    2.375756   -1.479311
     21          6           0       -3.051676    4.121173   -1.541092
     22          7           0        2.036115    3.186646   -0.574505
     23          1           0        2.912007    2.716150   -0.471121
     24          1           0        2.021962    4.167437   -0.378090
     25          7           0       -0.211465    3.186360   -1.085591
     26          6           0        0.929699    2.532611   -0.959194
     27          7           0        1.076600    1.187923   -1.199508
     28          1           0        1.987061    0.771932   -1.077174
     29          6           0        0.055392    0.334553   -1.605403
     30          8           0        0.293872   -0.864539   -1.795250
     31          6           0       -1.176671    1.022510   -1.745498
     32          7           0       -2.428965    0.558875   -2.124604
     33          6           0       -3.192019    1.617273   -2.082674
     34          1           0       -4.255754    1.625786   -2.322798
     35          1           0       -3.775939    4.122081   -0.852437
     36          1           0       -2.315483    4.730559   -1.249671
     37          1           0       -3.421032    4.439809   -2.413373
     38          1           0        6.609370   -0.811648    0.329716
     39          1           0        6.932698   -0.740782   -1.400916
     40          1           0        5.788519    0.386278   -0.671556
     41          1           0        4.487716   -4.875421   -1.130038
     42          6           0        4.297076   -3.802195   -1.121705
     43          8           0        1.977203   -4.024578   -1.564227
     44          6           0        2.967356   -3.325471   -1.350606
     45          1           0        1.910980   -1.577166   -1.476381
     46          7           0        2.835953   -1.951795   -1.318907
     47          8           0        3.614068    0.169004   -1.086692
     48          6           0        3.828344   -1.030434   -1.095775
     49          1           0        6.314237   -3.239202   -0.721791
     50          6           0        5.285945   -2.928071   -0.901161
     51          6           0        6.175254   -0.621487   -0.640567
     52          7           0        5.082754   -1.567646   -0.883417
     53          1           0        3.563203    4.177132    2.628761
     54          1           0        2.455470    4.058607    1.436716
     55          1           0        4.047070    3.991598    1.081222
     56          1           0        1.347891   -2.869360    1.918246
     57          1           0        2.938115   -2.441701    2.363628
     58          7           0        2.033896   -2.153132    2.046877
     59          6           0        1.756283   -0.869957    1.806978
     60          6           0        2.248959    1.454627    1.683195
     61          7           0        1.025975    1.813025    1.258597
     62          1           0       -0.773752    0.946125    0.800262
     63          6           0        0.240783    0.744119    1.141116
     64          7           0        0.516966   -0.541881    1.380907
     65          1           0        5.325273    1.846955    2.596735
     66          6           0        4.342100    1.453591    2.336779
     67          7           0        4.009945    0.186668    2.384376
     68          6           0        2.685246    0.173400    1.972402
     69          6           0        3.349527    3.743270    1.753479
     70          7           0        3.324583    2.277188    1.920772
 ---------------------------------------------------------------------

 SCF Done:  E(RwB97XD) =  -2048.69986992     A.U. after   15 cycles

 The electronic state is 1-A.
 Alpha  occ. eigenvalues --  -19.25928 -19.22051 -19.20634 -14.52470 -14.52128
 Alpha  occ. eigenvalues --  -14.48963 -14.48721 -14.47941 -14.47530 -14.46485
 Alpha  occ. eigenvalues --  -14.46278 -14.45004 -14.43472 -14.42721 -14.42476
 Alpha  occ. eigenvalues --  -14.41962 -14.41644 -14.41145 -14.40690 -14.40353
 Alpha  occ. eigenvalues --  -10.45543 -10.41227 -10.40171 -10.39199 -10.38181
 Alpha  occ. eigenvalues --  -10.37868 -10.37602 -10.36439 -10.35642 -10.35188
 Alpha  occ. eigenvalues --  -10.34830 -10.34336 -10.34302 -10.33975 -10.33581
 Alpha  occ. eigenvalues --  -10.33338 -10.33128 -10.31987 -10.31177 -10.31107
 Alpha  occ. eigenvalues --  -10.30857 -10.28758 -10.28068  -1.19496  -1.14859
 Alpha  occ. eigenvalues --   -1.13313  -1.13073  -1.11554  -1.10560  -1.09361
 Alpha  occ. eigenvalues --   -1.08907  -1.08397  -1.05193  -1.04079  -1.02557
 Alpha  occ. eigenvalues --   -1.00932  -1.00673  -0.99726  -0.98516  -0.97182
 Alpha  occ. eigenvalues --   -0.96533  -0.96119  -0.92853  -0.91104  -0.87257
 Alpha  occ. eigenvalues --   -0.85838  -0.84145  -0.84079  -0.83637  -0.82509
 Alpha  occ. eigenvalues --   -0.82498  -0.78929  -0.76569  -0.74752  -0.74235
 Alpha  occ. eigenvalues --   -0.73748  -0.73410  -0.73125  -0.71287  -0.69999
 Alpha  occ. eigenvalues --   -0.67515  -0.66635  -0.66533  -0.66331  -0.64489
 Alpha  occ. eigenvalues --   -0.63928  -0.63783  -0.62944  -0.62791  -0.62198
 Alpha  occ. eigenvalues --   -0.60499  -0.60185  -0.60053  -0.59558  -0.59514
 Alpha  occ. eigenvalues --   -0.59091  -0.58400  -0.57168  -0.56699  -0.56546
 Alpha  occ. eigenvalues --   -0.55991  -0.55754  -0.55620  -0.54778  -0.54360
 Alpha  occ. eigenvalues --   -0.53761  -0.53537  -0.53197  -0.52926  -0.52677
 Alpha  occ. eigenvalues --   -0.52413  -0.52170  -0.51937  -0.50945  -0.50401
 Alpha  occ. eigenvalues --   -0.50140  -0.49530  -0.49433  -0.48976  -0.48785
 Alpha  occ. eigenvalues --   -0.48627  -0.48305  -0.48296  -0.48126  -0.47407
 Alpha  occ. eigenvalues --   -0.47159  -0.45876  -0.45243  -0.44020  -0.43036
 Alpha  occ. eigenvalues --   -0.41398  -0.39960  -0.39474  -0.37663  -0.37408
 Alpha  occ. eigenvalues --   -0.37212  -0.37101  -0.36690  -0.35829  -0.34428
 Alpha  occ. eigenvalues --   -0.34042  -0.33724  -0.33631  -0.33217  -0.32654
 Alpha  occ. eigenvalues --   -0.32480  -0.32354  -0.32005  -0.31794  -0.31053
 Alpha  occ. eigenvalues --   -0.30567  -0.28829  -0.26033  -0.25330
 Alpha virt. eigenvalues --    0.03001   0.04304   0.07453   0.07664   0.08631
 Alpha virt. eigenvalues --    0.09163   0.09468   0.10734   0.11446   0.12087
 Alpha virt. eigenvalues --    0.12730   0.13939   0.14115   0.14716   0.14807

 Mulliken charges:
               1
     1  N   -0.311977
     2  C    0.181013
     3  C    0.036503
     4  N   -0.260107
     5  C    0.134684
     6  H    0.027231
     7  N   -0.289563
     8  C    0.132235
     9  H    0.008693
    10  N   -0.289913
    11  C    0.245737
    12  C    0.125051
    13  N   -0.057127
    14  H    0.108088
    15  H    0.088034
    16  H    0.025568
    17  H    0.033923
    18  H    0.026909
    19  N   -0.309202
    20  C    0.229964
    21  C    0.180981
    22  N   -0.093756
    23  H    0.116277
    24  H    0.110849
    25  N   -0.279677
    26  C    0.190412
    27  N   -0.108830
    28  H    0.117628
    29  C    0.133334
    30  O   -0.315776
    31  C    0.020791
    32  N   -0.221477
    33  C    0.124387
    34  H    0.029047
    35  H    0.028032
    36  H    0.027611
    37  H    0.024766
    38  H    0.062833
    39  H    0.058196
    40  H    0.072704
    41  H    0.031471
    42  C   -0.113827
    43  O   -0.265294
    44  C    0.174020
    45  H    0.134845
    46  N   -0.134737
    47  O   -0.347761
    48  C    0.358942
    49  H    0.048011
    50  C    0.171143
    51  C    0.042624
    52  N   -0.293253
    53  H    0.035813
    54  H    0.041305
    55  H    0.016644
    56  H    0.123916
    57  H    0.114991
    58  N   -0.067513
    59  C    0.097788
    60  C    0.212331
    61  N   -0.261993
    62  H    0.063289
    63  C    0.161559
    64  N   -0.299211
    65  H    0.032146
    66  C    0.134117
    67  N   -0.265318
    68  C    0.038634
    69  C    0.164853
    70  N   -0.313613
 Sum of Mulliken charges =  -0.00000

 Dipole moment (field-independent basis, Debye):
    X=              7.9004    Y=              5.3498    Z=              3.1356  Tot=             10.0433
 Quadrupole moment (field-independent basis, Debye-Ang):
   XX=           -150.5929   YY=           -218.9210   ZZ=           -254.0868
   XY=              1.1639   XZ=              9.1555   YZ=            -10.5847

 Normal termination of Gaussian 16 at Wed Jan 24 12:46:29 2018.
