 Gaussian 16, Revision A.03,
 Gaussian 16:  EM64L-G16RevA.03 25-Dec-2016

 ---------------------------------------
 #p wb97xd/cc-pvdz sp scf=(maxcycles=20)
 ---------------------------------------

 ------------------
 Base pair stacking
 ------------------
 Symbolic Z-matrix:
 Charge =  0 Multiplicity = 1

                         Standard orientation:
 ---------------------------------------------------------------------
 Center     Atomic      Atomic             Coordinates (Angstroms)
 Number     Number       Type             X           Y           Z
 ---------------------------------------------------------------------
      1          7           0       -6.908252   -1.545324    0.291196
      2          6           0       -8.283036   -1.054575    0.074090
      3          6           0       -4.744457   -1.650694    0.670908
      4          7           0       -5.176098   -2.960438    0.519296
      5          6           0       -6.462432   -2.844536    0.296591
      6          1           0       -7.140365   -3.681746    0.128015
      7          7           0       -3.391285    0.249232    1.020458
      8          6           0       -4.502868    0.975456    0.863707
      9          1           0       -4.370106    2.053132    0.948808
     10          7           0       -5.747974    0.572212    0.618754
     11          6           0       -5.800910   -0.767295    0.532949
     12          6           0       -3.477666   -1.095812    0.928380
     13          7           0       -2.369171   -1.822457    1.084559
     14          1           0       -2.386315   -2.821117    1.024567
     15          1           0       -1.484274   -1.393613    1.266756
     16          1           0       -8.888018   -1.432891    0.774844
     17          1           0       -8.294072   -0.056584    0.129016
     18          1           0       -8.602495   -1.340536   -0.829330
     19          7           0       -2.231685    2.729600   -1.727821
     20          6           0       -0.934147    2.352159   -1.478838
     21          6           0       -2.762827    4.100825   -1.592410
     22          7           0        2.302391    3.163972   -0.515782
     23          1           0        3.174958    2.692546   -0.390790
     24          1           0        2.286522    4.146432   -0.328082
     25          7           0        0.065545    3.163999   -1.071922
     26          6           0        1.202452    2.508968   -0.917022
     27          7           0        1.351084    1.161966   -1.142823
     28          1           0        2.257970    0.745125   -0.998655
     29          6           0        0.336300    0.307281   -1.561849
     30          8           0        0.575821   -0.893897   -1.736598
     31          6           0       -0.891134    0.996583   -1.732566
     32          7           0       -2.136611    0.532333   -2.132788
     33          6           0       -2.897942    1.592651   -2.115249
     34          1           0       -3.956626    1.601341   -2.376785
     35          1           0       -3.500771    4.109176   -0.918487
     36          1           0       -2.031257    4.711147   -1.291465
     37          1           0       -3.113863    4.412713   -2.474635
     38          1           0        6.847472   -0.835986    0.514365
     39          1           0        7.205652   -0.780684   -1.209961
     40          1           0        6.049618    0.355005   -0.513418
     41          1           0        4.746343   -4.907711   -0.952923
     42          6           0        4.558012   -3.834055   -0.957607
     43          8           0        2.246993   -4.055357   -1.444754
     44          6           0        3.234241   -3.356519   -1.217261
     45          1           0        2.184577   -1.607147   -1.379200
     46          7           0        3.105347   -1.982348   -1.199964
     47          8           0        3.883455    0.138733   -0.970307
     48          6           0        4.095148   -1.061196   -0.964820
     49          1           0        6.568007   -3.271878   -0.522055
     50          6           0        5.544241   -2.960132   -0.724711
     51          6           0        6.433365   -0.653275   -0.466041
     52          7           0        5.343815   -1.599184   -0.722699
     53          1           0        3.277604    4.205093    2.620247
     54          1           0        2.193766    4.078656    1.407234
     55          1           0        3.792040    4.005244    1.084395
     56          1           0        1.061010   -2.842587    1.925667
     57          1           0        2.642945   -2.414449    2.399255
     58          7           0        1.745918   -2.126720    2.061930
     59          6           0        1.476100   -0.845064    1.805534
     60          6           0        1.976430    1.477329    1.671791
     61          7           0        0.763038    1.834628    1.219644
     62          1           0       -1.029083    0.967587    0.732655
     63          6           0       -0.022056    0.766393    1.095542
     64          7           0        0.246334   -0.518074    1.351829
     65          1           0        5.034659    1.871043    2.643598
     66          6           0        4.056018    1.477512    2.367304
     67          7           0        3.720110    0.211748    2.419046
     68          6           0        2.403914    0.197726    1.980652
     69          6           0        3.080561    3.764168    1.744601
     70          7           0        3.048938    2.299636    1.923886
 ---------------------------------------------------------------------

 SCF Done:  E(RwB97XD) =  -2048.68535999     A.U. after   15 cycles

 The electronic state is 1-A.
 Alpha  occ. eigenvalues --  -19.25917 -19.22057 -19.20548 -14.52490 -14.51954
 Alpha  occ. eigenvalues --  -14.49113 -14.48722 -14.47958 -14.47338 -14.46520
 Alpha  occ. eigenvalues --  -14.46306 -14.44792 -14.43310 -14.42693 -14.42578
 Alpha  occ. eigenvalues --  -14.41805 -14.41694 -14.41298 -14.40716 -14.40508
 Alpha  occ. eigenvalues --  -10.45554 -10.41317 -10.40180 -10.39048 -10.38140
 Alpha  occ. eigenvalues --  -10.37871 -10.37451 -10.36211 -10.35785 -10.35311
 Alpha  occ. eigenvalues --  -10.34520 -10.34458 -10.34314 -10.33754 -10.33743
 Alpha  occ. eigenvalues --  -10.33492 -10.33210 -10.31898 -10.31208 -10.31174
 Alpha  occ. eigenvalues --  -10.30858 -10.28928 -10.28110  -1.19489  -1.14830
 Alpha  occ. eigenvalues --   -1.13245  -1.13077  -1.11712  -1.10563  -1.09376
 Alpha  occ. eigenvalues --   -1.08906  -1.08347  -1.05347  -1.03895  -1.02576
 Alpha  occ. eigenvalues --   -1.01281  -1.00811  -0.99553  -0.98435  -0.97321
 Alpha  occ. eigenvalues --   -0.96527  -0.95997  -0.93002  -0.91118  -0.87230
 Alpha  occ. eigenvalues --   -0.85800  -0.84289  -0.84082  -0.83710  -0.82642
 Alpha  occ. eigenvalues --   -0.82522  -0.78942  -0.76389  -0.74749  -0.74049
 Alpha  occ. eigenvalues --   -0.73932  -0.73429  -0.73271  -0.71437  -0.69840
 Alpha  occ. eigenvalues --   -0.67704  -0.66669  -0.66649  -0.66220  -0.64525
 Alpha  occ. eigenvalues --   -0.63948  -0.63756  -0.63071  -0.62789  -0.62574
 Alpha  occ. eigenvalues --   -0.60598  -0.60037  -0.59961  -0.59606  -0.59524
 Alpha  occ. eigenvalues --   -0.59067  -0.58722  -0.57084  -0.56811  -0.56675
 Alpha  occ. eigenvalues --   -0.55990  -0.55762  -0.55585  -0.54600  -0.54318
 Alpha  occ. eigenvalues --   -0.53711  -0.53426  -0.53278  -0.52825  -0.52554
 Alpha  occ. eigenvalues --   -0.52438  -0.52083  -0.52014  -0.51074  -0.50529
 Alpha  occ. eigenvalues --   -0.50133  -0.49574  -0.49462  -0.49047  -0.48811
 Alpha  occ. eigenvalues --   -0.48672  -0.48297  -0.48161  -0.47882  -0.47388
 Alpha  occ. eigenvalues --   -0.47316  -0.45642  -0.45404  -0.44057  -0.42678
 Alpha  occ. eigenvalues --   -0.41555  -0.39689  -0.39413  -0.37773  -0.37549
 Alpha  occ. eigenvalues --   -0.37155  -0.36792  -0.36583  -0.35722  -0.34780
 Alpha  occ. eigenvalues --   -0.33933  -0.33796  -0.33309  -0.33217  -0.33010
 Alpha  occ. eigenvalues --   -0.32605  -0.32228  -0.32009  -0.31792  -0.31248
 Alpha  occ. eigenvalues --   -0.30725  -0.28907  -0.26160  -0.25088
 Alpha virt. eigenvalues --    0.03021   0.04261   0.07380   0.07535   0.08361
 Alpha virt. eigenvalues --    0.09459   0.09627   0.10578   0.11285   0.12371
 Alpha virt. eigenvalues --    0.12818   0.13793   0.14191   0.14548   0.14861

 Mulliken charges:
               1
     1  N   -0.311634
     2  C    0.180964
     3  C    0.033430
     4  N   -0.259811
     5  C    0.134702
     6  H    0.027768
     7  N   -0.288010
     8  C    0.128406
     9  H    0.009549
    10  N   -0.288295
    11  C    0.244238
    12  C    0.125567
    13  N   -0.057491
    14  H    0.107815
    15  H    0.088440
    16  H    0.025913
    17  H    0.034717
    18  H    0.026995
    19  N   -0.309298
    20  C    0.223956
    21  C    0.181523
    22  N   -0.096709
    23  H    0.118722
    24  H    0.109910
    25  N   -0.267863
    26  C    0.177358
    27  N   -0.102176
    28  H    0.117815
    29  C    0.136291
    30  O   -0.317465
    31  C    0.006611
    32  N   -0.219640
    33  C    0.127231
    34  H    0.030765
    35  H    0.027701
    36  H    0.027387
    37  H    0.024825
    38  H    0.062029
    39  H    0.058932
    40  H    0.072314
    41  H    0.031704
    42  C   -0.113654
    43  O   -0.265694
    44  C    0.175255
    45  H    0.135772
    46  N   -0.137957
    47  O   -0.348564
    48  C    0.362279
    49  H    0.048079
    50  C    0.172233
    51  C    0.043612
    52  N   -0.295615
    53  H    0.027614
    54  H    0.043393
    55  H    0.000739
    56  H    0.123558
    57  H    0.115163
    58  N   -0.066839
    59  C    0.106647
    60  C    0.211304
    61  N   -0.256634
    62  H    0.070431
    63  C    0.150726
    64  N   -0.296571
    65  H    0.030484
    66  C    0.130576
    67  N   -0.265697
    68  C    0.036598
    69  C    0.189370
    70  N   -0.311795
 Sum of Mulliken charges =  -0.00000

 Dipole moment (field-independent basis, Debye):
    X=              7.7411    Y=              5.2529    Z=              3.2688  Tot=              9.9097
 Quadrupole moment (field-independent basis, Debye-Ang):
   XX=           -148.2792   YY=           -219.5175   ZZ=           -253.5468
   XY=              2.6247   XZ=             11.8721   YZ=            -10.9588

 Normal termination of Gaussian 16 at Wed Jan 24 13:32:14 2018.
