 Gaussian 16, Revision A.03,
 Gaussian 16:  EM64L-G16RevA.03 25-Dec-2016

 ---------------------------------------
 #p wb97xd/cc-pvdz sp scf=(maxcycles=20)
 ---------------------------------------

 ------------------
 Base pair stacking
 ------------------
 Symbolic Z-matrix:
 Charge =  0 Multiplicity = 1

                         Standard orientation:
 ---------------------------------------------------------------------
 Center     Atomic      Atomic             Coordinates (Angstroms)
 Number     Number       Type             X           Y           Z
 ---------------------------------------------------------------------
      1          7           0        4.576134   -2.178925   -1.754999
      2          6           0        5.965176   -1.818497   -2.099469
      3          6           0        2.398212   -2.123033   -1.453598
      4          7           0        2.816090   -3.377420   -1.033364
      5          6           0        4.111484   -3.360888   -1.231750
      6          1           0        4.782999   -4.191395   -1.012054
      7          7           0        1.060706   -0.251543   -1.974725
      8          6           0        2.187918    0.347634   -2.372164
      9          1           0        2.067795    1.363910   -2.745014
     10          7           0        3.435378   -0.117894   -2.378144
     11          6           0        3.471925   -1.373079   -1.901068
     12          6           0        1.130834   -1.514297   -1.499723
     13          7           0        0.006716   -2.114084   -1.102504
     14          1           0        0.011527   -3.048302   -0.744102
     15          1           0       -0.878073   -1.650341   -1.149604
     16          1           0        6.313922   -2.452180   -2.790114
     17          1           0        5.988707   -0.886923   -2.461056
     18          1           0        6.538075   -1.871334   -1.281545
     19          7           0        4.715749    2.812007    0.818306
     20          6           0        3.384384    2.515217    0.983925
     21          6           0        5.261521    4.152478    0.525090
     22          7           0        0.064566    3.531473    1.072194
     23          1           0       -0.830900    3.113879    1.223879
     24          1           0        0.081468    4.514776    0.888992
     25          7           0        2.359326    3.391252    0.907228
     26          6           0        1.192566    2.806292    1.112431
     27          7           0        1.039219    1.466096    1.372956
     28          1           0        0.108598    1.105343    1.517058
     29          6           0        2.079734    0.546193    1.456471
     30          8           0        1.833247   -0.642203    1.696682
     31          6           0        3.339384    1.159828    1.238244
     32          7           0        4.616804    0.616620    1.232417
     33          6           0        5.398532    1.631172    0.979822
     34          1           0        6.484624    1.573487    0.900146
     35          1           0        5.753682    4.130906   -0.344451
     36          1           0        4.511396    4.809803    0.465962
     37          1           0        5.886731    4.426607    1.255010
     38          1           0       -4.811320   -0.177964    1.501644
     39          1           0       -4.614102   -0.134920    3.252044
     40          1           0       -3.663418    0.944948    2.231534
     41          1           0       -2.611778   -4.391873    2.244292
     42          6           0       -2.366099   -3.331220    2.190525
     43          8           0       -0.035811   -3.695344    1.936933
     44          6           0       -1.000425   -2.936252    2.026944
     45          1           0        0.152507   -1.254070    1.855677
     46          7           0       -0.799617   -1.571790    1.970768
     47          8           0       -1.479655    0.594827    1.994101
     48          6           0       -1.755452   -0.590489    2.054322
     49          1           0       -4.373951   -2.645286    2.399886
     50          6           0       -3.320727   -2.397333    2.275116
     51          6           0       -4.103751   -0.038302    2.305327
     52          7           0       -3.048111   -1.050489    2.211275
     53          1           0       -5.655371    3.866833   -2.759322
     54          1           0       -4.255521    3.960614   -1.926419
     55          1           0       -5.678692    4.178410   -1.157508
     56          1           0       -3.544915   -2.904677   -0.578012
     57          1           0       -5.182258   -2.439615   -0.691768
     58          7           0       -4.216779   -2.179434   -0.728871
     59          6           0       -3.842928   -0.920954   -0.968944
     60          6           0       -4.208099    1.385880   -1.423803
     61          7           0       -2.904332    1.706324   -1.467884
     62          1           0       -1.076113    0.802218   -1.265847
     63          6           0       -2.151481    0.630425   -1.247522
     64          7           0       -2.524020   -0.630876   -1.006887
     65          1           0       -7.403736    1.856385   -1.560603
     66          6           0       -6.399799    1.441617   -1.465582
     67          7           0       -6.134143    0.182647   -1.216397
     68          6           0       -4.747964    0.133632   -1.187297
     69          6           0       -5.212089    3.673734   -1.883981
     70          7           0       -5.281008    2.226603   -1.602842
 ---------------------------------------------------------------------

 SCF Done:  E(RwB97XD) =  -2048.74720707     A.U. after   15 cycles

 The electronic state is 1-A.
 Alpha  occ. eigenvalues --  -19.25537 -19.21763 -19.20633 -14.52493 -14.52170
 Alpha  occ. eigenvalues --  -14.48998 -14.48824 -14.47850 -14.47465 -14.46910
 Alpha  occ. eigenvalues --  -14.46716 -14.45489 -14.44785 -14.44589 -14.42336
 Alpha  occ. eigenvalues --  -14.42122 -14.41159 -14.40462 -14.40456 -14.40067
 Alpha  occ. eigenvalues --  -10.45169 -10.41321 -10.40361 -10.39878 -10.38283
 Alpha  occ. eigenvalues --  -10.38065 -10.37847 -10.37381 -10.36067 -10.35178
 Alpha  occ. eigenvalues --  -10.34770 -10.34513 -10.33857 -10.33585 -10.33226
 Alpha  occ. eigenvalues --  -10.32909 -10.32673 -10.32660 -10.31126 -10.31027
 Alpha  occ. eigenvalues --  -10.30042 -10.28268 -10.27908  -1.19097  -1.15284
 Alpha  occ. eigenvalues --   -1.13266  -1.12773  -1.10741  -1.10493  -1.09726
 Alpha  occ. eigenvalues --   -1.09038  -1.08622  -1.05206  -1.04701  -1.02144
 Alpha  occ. eigenvalues --   -1.01085  -1.00155  -0.99800  -0.98647  -0.97216
 Alpha  occ. eigenvalues --   -0.96778  -0.96177  -0.92399  -0.90964  -0.87786
 Alpha  occ. eigenvalues --   -0.85968  -0.84289  -0.83302  -0.83204  -0.82674
 Alpha  occ. eigenvalues --   -0.81574  -0.78690  -0.77287  -0.75081  -0.74754
 Alpha  occ. eigenvalues --   -0.73705  -0.73084  -0.72430  -0.70704  -0.70503
 Alpha  occ. eigenvalues --   -0.67472  -0.67114  -0.66317  -0.65833  -0.64516
 Alpha  occ. eigenvalues --   -0.64423  -0.63732  -0.62694  -0.62279  -0.61862
 Alpha  occ. eigenvalues --   -0.60794  -0.60410  -0.60043  -0.59463  -0.59359
 Alpha  occ. eigenvalues --   -0.59207  -0.58420  -0.56798  -0.56141  -0.55837
 Alpha  occ. eigenvalues --   -0.55427  -0.55407  -0.55158  -0.54605  -0.54231
 Alpha  occ. eigenvalues --   -0.53797  -0.53637  -0.53561  -0.53075  -0.52950
 Alpha  occ. eigenvalues --   -0.52788  -0.52162  -0.51079  -0.50292  -0.50153
 Alpha  occ. eigenvalues --   -0.49997  -0.49616  -0.49473  -0.49229  -0.48858
 Alpha  occ. eigenvalues --   -0.48417  -0.48332  -0.48094  -0.47882  -0.47277
 Alpha  occ. eigenvalues --   -0.46367  -0.45682  -0.45409  -0.44409  -0.43657
 Alpha  occ. eigenvalues --   -0.40855  -0.40754  -0.39197  -0.37936  -0.37792
 Alpha  occ. eigenvalues --   -0.37429  -0.37383  -0.36501  -0.35584  -0.35076
 Alpha  occ. eigenvalues --   -0.34645  -0.34082  -0.33118  -0.32959  -0.32783
 Alpha  occ. eigenvalues --   -0.32699  -0.32621  -0.31979  -0.31904  -0.30351
 Alpha  occ. eigenvalues --   -0.30284  -0.29979  -0.25760  -0.25259
 Alpha virt. eigenvalues --    0.02851   0.04169   0.06641   0.08435   0.08838
 Alpha virt. eigenvalues --    0.09164   0.09690   0.10424   0.11343   0.11429
 Alpha virt. eigenvalues --    0.13546   0.14398   0.14584   0.14813   0.15097

 Mulliken charges:
               1
     1  N   -0.312232
     2  C    0.183545
     3  C    0.055316
     4  N   -0.255186
     5  C    0.143632
     6  H    0.026133
     7  N   -0.298782
     8  C    0.131321
     9  H    0.009847
    10  N   -0.284119
    11  C    0.259128
    12  C    0.094427
    13  N   -0.069508
    14  H    0.114437
    15  H    0.082328
    16  H    0.020557
    17  H    0.030846
    18  H    0.030041
    19  N   -0.311170
    20  C    0.253417
    21  C    0.180880
    22  N   -0.123086
    23  H    0.118453
    24  H    0.117761
    25  N   -0.312516
    26  C    0.249490
    27  N   -0.146985
    28  H    0.119205
    29  C    0.193223
    30  O   -0.320768
    31  C   -0.012122
    32  N   -0.231041
    33  C    0.126797
    34  H    0.022496
    35  H    0.028130
    36  H    0.029733
    37  H    0.024945
    38  H    0.061849
    39  H    0.059170
    40  H    0.075150
    41  H    0.027665
    42  C   -0.122044
    43  O   -0.259665
    44  C    0.167024
    45  H    0.134116
    46  N   -0.124283
    47  O   -0.349995
    48  C    0.353018
    49  H    0.041408
    50  C    0.164905
    51  C    0.036721
    52  N   -0.278643
    53  H    0.034270
    54  H    0.041252
    55  H    0.029598
    56  H    0.117135
    57  H    0.117547
    58  N   -0.062214
    59  C    0.086186
    60  C    0.252626
    61  N   -0.274275
    62  H    0.034614
    63  C    0.178324
    64  N   -0.315901
    65  H    0.039346
    66  C    0.140286
    67  N   -0.263294
    68  C    0.021843
    69  C    0.180330
    70  N   -0.312643
 Sum of Mulliken charges =  -0.00000

 Dipole moment (field-independent basis, Debye):
    X=             -8.4699    Y=              6.6218    Z=             -0.2982  Tot=             10.7553
 Quadrupole moment (field-independent basis, Debye-Ang):
   XX=           -166.3758   YY=           -214.5524   ZZ=           -249.8313
   XY=              4.9249   XZ=            -14.7134   YZ=              3.3964

 Normal termination of Gaussian 16 at Wed Jan 24 14:05:51 2018.
