 Gaussian 16, Revision A.03,
 Gaussian 16:  EM64L-G16RevA.03 25-Dec-2016

 ---------------------------------------
 #p wb97xd/cc-pvdz sp scf=(maxcycles=20)
 ---------------------------------------

 ------------------
 Base pair stacking
 ------------------
 Symbolic Z-matrix:
 Charge =  0 Multiplicity = 1

                         Standard orientation:
 ---------------------------------------------------------------------
 Center     Atomic      Atomic             Coordinates (Angstroms)
 Number     Number       Type             X           Y           Z
 ---------------------------------------------------------------------
      1          7           0        4.577852   -2.056527   -1.762863
      2          6           0        5.977289   -1.658439   -2.010025
      3          6           0        2.391104   -2.033324   -1.528545
      4          7           0        2.795690   -3.334263   -1.266652
      5          6           0        4.096938   -3.296176   -1.418306
      6          1           0        4.761376   -4.151143   -1.289899
      7          7           0        1.070309   -0.103879   -1.837911
      8          6           0        2.209662    0.538891   -2.114160
      9          1           0        2.101252    1.596402   -2.351210
     10          7           0        3.456946    0.073675   -2.141415
     11          6           0        3.478536   -1.234236   -1.835892
     12          6           0        1.125534   -1.419133   -1.534357
     13          7           0       -0.010712   -2.062498   -1.258306
     14          1           0       -0.017140   -3.036307   -1.028367
     15          1           0       -0.893777   -1.593290   -1.271930
     16          1           0        6.349153   -2.195208   -2.767504
     17          1           0        6.012147   -0.686925   -2.242548
     18          1           0        6.522826   -1.822507   -1.188150
     19          7           0        4.723314    2.734451    0.848108
     20          6           0        3.389644    2.429637    0.976523
     21          6           0        5.267508    4.072566    0.541546
     22          7           0        0.060498    3.417759    0.930829
     23          1           0       -0.836056    2.995772    1.062616
     24          1           0        0.075413    4.396630    0.725131
     25          7           0        2.360549    3.294382    0.845279
     26          6           0        1.192454    2.703890    1.025493
     27          7           0        1.041539    1.368807    1.312378
     28          1           0        0.109633    1.003156    1.434072
     29          6           0        2.086221    0.460508    1.451979
     30          8           0        1.841642   -0.724126    1.711897
     31          6           0        3.347352    1.080186    1.261144
     32          7           0        4.628675    0.548521    1.310430
     33          6           0        5.410021    1.563895    1.059966
     34          1           0        6.498599    1.514145    1.017667
     35          1           0        5.788516    4.035152   -0.310482
     36          1           0        4.514386    4.721564    0.442118
     37          1           0        5.865783    4.369267    1.285082
     38          1           0       -4.796330   -0.324386    1.286127
     39          1           0       -4.657879   -0.238747    3.040593
     40          1           0       -3.682639    0.825537    2.026894
     41          1           0       -2.588175   -4.499863    2.200463
     42          6           0       -2.349575   -3.438583    2.129831
     43          8           0       -0.009225   -3.787540    1.962174
     44          6           0       -0.982505   -3.035265    2.002264
     45          1           0        0.161627   -1.347220    1.829573
     46          7           0       -0.791156   -1.670726    1.920554
     47          8           0       -1.489382    0.489637    1.870203
     48          6           0       -1.757277   -0.696391    1.949243
     49          1           0       -4.368852   -2.766048    2.256357
     50          6           0       -3.314129   -2.511602    2.160700
     51          6           0       -4.117094   -0.159654    2.109267
     52          7           0       -3.050621   -1.164215    2.074139
     53          1           0       -5.618907    4.107718   -2.284161
     54          1           0       -4.247468    4.083816   -1.400596
     55          1           0       -5.695481    4.202004   -0.656693
     56          1           0       -3.577228   -2.902855   -0.961665
     57          1           0       -5.210221   -2.420582   -1.065902
     58          7           0       -4.244224   -2.161411   -1.036008
     59          6           0       -3.863475   -0.883530   -1.092837
     60          6           0       -4.214959    1.464800   -1.246247
     61          7           0       -2.910667    1.783350   -1.204061
     62          1           0       -1.089526    0.853458   -1.064936
     63          6           0       -2.164795    0.684801   -1.105199
     64          7           0       -2.544247   -0.595950   -1.048144
     65          1           0       -7.404630    1.961407   -1.423856
     66          6           0       -6.404117    1.533875   -1.352289
     67          7           0       -6.145997    0.251877   -1.265451
     68          6           0       -4.761509    0.194193   -1.197572
     69          6           0       -5.204731    3.797443   -1.428486
     70          7           0       -5.281926    2.325956   -1.346224
 ---------------------------------------------------------------------

 SCF Done:  E(RwB97XD) =  -2048.74939853     A.U. after   15 cycles

 The electronic state is 1-A.
 Alpha  occ. eigenvalues --  -19.25356 -19.21522 -19.20515 -14.52618 -14.51970
 Alpha  occ. eigenvalues --  -14.48994 -14.48877 -14.48034 -14.47298 -14.46733
 Alpha  occ. eigenvalues --  -14.46514 -14.45588 -14.44907 -14.44763 -14.42671
 Alpha  occ. eigenvalues --  -14.41996 -14.41053 -14.40699 -14.40657 -14.40283
 Alpha  occ. eigenvalues --  -10.44974 -10.41158 -10.40507 -10.39644 -10.38163
 Alpha  occ. eigenvalues --  -10.38149 -10.37585 -10.37511 -10.36251 -10.35424
 Alpha  occ. eigenvalues --  -10.34551 -10.34374 -10.33988 -10.33489 -10.33445
 Alpha  occ. eigenvalues --  -10.33010 -10.32872 -10.32834 -10.31036 -10.30839
 Alpha  occ. eigenvalues --  -10.30138 -10.28135 -10.28129  -1.18932  -1.15407
 Alpha  occ. eigenvalues --   -1.13123  -1.12534  -1.10692  -1.10611  -1.09849
 Alpha  occ. eigenvalues --   -1.08856  -1.08470  -1.05348  -1.04929  -1.01955
 Alpha  occ. eigenvalues --   -1.01203  -1.00403  -0.99618  -0.98507  -0.97362
 Alpha  occ. eigenvalues --   -0.96653  -0.96386  -0.92624  -0.90736  -0.87924
 Alpha  occ. eigenvalues --   -0.86104  -0.84160  -0.83393  -0.83119  -0.82556
 Alpha  occ. eigenvalues --   -0.81737  -0.78483  -0.77417  -0.75227  -0.74616
 Alpha  occ. eigenvalues --   -0.73537  -0.72889  -0.72649  -0.70851  -0.70694
 Alpha  occ. eigenvalues --   -0.67321  -0.67231  -0.66124  -0.66048  -0.64622
 Alpha  occ. eigenvalues --   -0.64303  -0.63566  -0.62553  -0.62504  -0.61703
 Alpha  occ. eigenvalues --   -0.60909  -0.60555  -0.60195  -0.59621  -0.59228
 Alpha  occ. eigenvalues --   -0.59112  -0.58234  -0.56718  -0.56339  -0.55688
 Alpha  occ. eigenvalues --   -0.55573  -0.55553  -0.55358  -0.54723  -0.54093
 Alpha  occ. eigenvalues --   -0.53904  -0.53530  -0.53433  -0.53077  -0.52929
 Alpha  occ. eigenvalues --   -0.52552  -0.51994  -0.51240  -0.50309  -0.50235
 Alpha  occ. eigenvalues --   -0.50071  -0.49760  -0.49563  -0.49093  -0.48733
 Alpha  occ. eigenvalues --   -0.48613  -0.48156  -0.47944  -0.47759  -0.47136
 Alpha  occ. eigenvalues --   -0.46547  -0.45650  -0.45371  -0.44472  -0.43545
 Alpha  occ. eigenvalues --   -0.41024  -0.40972  -0.39041  -0.38066  -0.37941
 Alpha  occ. eigenvalues --   -0.37322  -0.37255  -0.36684  -0.35402  -0.35202
 Alpha  occ. eigenvalues --   -0.34823  -0.33964  -0.33186  -0.33123  -0.32836
 Alpha  occ. eigenvalues --   -0.32521  -0.32508  -0.31858  -0.31618  -0.30497
 Alpha  occ. eigenvalues --   -0.30430  -0.30174  -0.25893  -0.25219
 Alpha virt. eigenvalues --    0.03112   0.04003   0.06496   0.08237   0.08983
 Alpha virt. eigenvalues --    0.09309   0.09807   0.10313   0.11162   0.11458
 Alpha virt. eigenvalues --    0.13423   0.14535   0.14596   0.14767   0.14907

 Mulliken charges:
               1
     1  N   -0.312110
     2  C    0.184084
     3  C    0.057437
     4  N   -0.258519
     5  C    0.144070
     6  H    0.026885
     7  N   -0.294460
     8  C    0.127954
     9  H    0.011963
    10  N   -0.279943
    11  C    0.259320
    12  C    0.091368
    13  N   -0.069223
    14  H    0.113503
    15  H    0.081595
    16  H    0.020433
    17  H    0.030712
    18  H    0.031121
    19  N   -0.310509
    20  C    0.253797
    21  C    0.181030
    22  N   -0.120988
    23  H    0.118657
    24  H    0.116889
    25  N   -0.311836
    26  C    0.244949
    27  N   -0.139235
    28  H    0.116170
    29  C    0.185244
    30  O   -0.321230
    31  C   -0.008282
    32  N   -0.231604
    33  C    0.125648
    34  H    0.021599
    35  H    0.027864
    36  H    0.029467
    37  H    0.024544
    38  H    0.063102
    39  H    0.058621
    40  H    0.075742
    41  H    0.027418
    42  C   -0.118996
    43  O   -0.260091
    44  C    0.170589
    45  H    0.134420
    46  N   -0.126093
    47  O   -0.348092
    48  C    0.353551
    49  H    0.041452
    50  C    0.164009
    51  C    0.035182
    52  N   -0.279085
    53  H    0.034610
    54  H    0.039573
    55  H    0.030353
    56  H    0.118168
    57  H    0.118783
    58  N   -0.062275
    59  C    0.079197
    60  C    0.252359
    61  N   -0.275892
    62  H    0.029248
    63  C    0.181641
    64  N   -0.313268
    65  H    0.039843
    66  C    0.140008
    67  N   -0.260536
    68  C    0.019885
    69  C    0.180738
    70  N   -0.312527
 Sum of Mulliken charges =  -0.00000

 Dipole moment (field-independent basis, Debye):
    X=             -8.4912    Y=              6.4030    Z=             -0.9483  Tot=             10.6770
 Quadrupole moment (field-independent basis, Debye-Ang):
   XX=           -166.1812   YY=           -215.0346   ZZ=           -251.5723
   XY=              5.6768   XZ=            -15.2911   YZ=              6.4094

 Normal termination of Gaussian 16 at Wed Jan 24 09:51:36 2018.
