 Gaussian 16, Revision A.03,
 Gaussian 16:  EM64L-G16RevA.03 25-Dec-2016

 ---------------------------------------
 #p wb97xd/cc-pvdz sp scf=(maxcycles=20)
 ---------------------------------------

 ------------------
 Base pair stacking
 ------------------
 Symbolic Z-matrix:
 Charge =  0 Multiplicity = 1

                         Standard orientation:
 ---------------------------------------------------------------------
 Center     Atomic      Atomic             Coordinates (Angstroms)
 Number     Number       Type             X           Y           Z
 ---------------------------------------------------------------------
      1          7           0       -6.444281   -1.638041    0.583093
      2          6           0       -7.839170   -1.156937    0.554182
      3          6           0       -4.257702   -1.747799    0.793125
      4          7           0       -4.676241   -3.017652    0.422975
      5          6           0       -5.976832   -2.900703    0.311252
      6          1           0       -6.650364   -3.711031    0.030791
      7          7           0       -2.916352    0.091757    1.409373
      8          6           0       -4.048550    0.800531    1.467263
      9          1           0       -3.928760    1.846158    1.747573
     10          7           0       -5.300619    0.413405    1.231977
     11          6           0       -5.336309   -0.886639    0.895801
     12          6           0       -2.985748   -1.213553    1.068175
     13          7           0       -1.856660   -1.922725    1.009856
     14          1           0       -1.860737   -2.892053    0.761649
     15          1           0       -0.968698   -1.509514    1.212155
     16          1           0       -8.386937   -1.679135    1.207978
     17          1           0       -7.863536   -0.188155    0.799158
     18          1           0       -8.216169   -1.276343   -0.364287
     19          7           0       -2.726203    2.905970   -1.716405
     20          6           0       -1.417866    2.516916   -1.558527
     21          6           0       -3.225498    4.290546   -1.596596
     22          7           0        1.897898    3.312132   -0.898909
     23          1           0        2.771244    2.831357   -0.825711
     24          1           0        1.911044    4.301647   -0.752596
     25          7           0       -0.376979    3.327596   -1.269726
     26          6           0        0.759730    2.660093   -1.180549
     27          7           0        0.870743    1.302540   -1.360104
     28          1           0        1.780611    0.876507   -1.272954
     29          6           0       -0.186774    0.448826   -1.657903
     30          8           0        0.021018   -0.762498   -1.800289
     31          6           0       -1.414525    1.151469   -1.756894
     32          7           0       -2.695007    0.692534   -2.033743
     33          6           0       -3.437686    1.765592   -1.999220
     34          1           0       -4.514094    1.781638   -2.173404
     35          1           0       -3.905182    4.339440   -0.865532
     36          1           0       -2.463301    4.900137   -1.382788
     37          1           0       -3.643763    4.571670   -2.459635
     38          1           0        6.457095   -0.719300   -0.074363
     39          1           0        6.672617   -0.741537   -1.822994
     40          1           0        5.593651    0.441692   -1.083286
     41          1           0        4.186459   -4.811521   -1.189947
     42          6           0        4.013139   -3.735901   -1.224983
     43          8           0        1.667000   -3.937427   -1.511585
     44          6           0        2.679148   -3.246840   -1.395618
     45          1           0        1.643817   -1.487887   -1.545586
     46          7           0        2.570995   -1.871126   -1.426437
     47          8           0        3.394427    0.243963   -1.351835
     48          6           0        3.589367   -0.958174   -1.312520
     49          1           0        6.059722   -3.190815   -0.979662
     50          6           0        5.027109   -2.870178   -1.111005
     51          6           0        5.966118   -0.570209   -1.024511
     52          7           0        4.846233   -1.507062   -1.150634
     53          1           0        3.779012    3.873542    3.294202
     54          1           0        2.615166    3.946132    2.153015
     55          1           0        4.187913    3.983556    1.718085
     56          1           0        1.641127   -2.979248    1.414240
     57          1           0        3.244736   -2.600749    1.856140
     58          7           0        2.321447   -2.281690    1.639435
     59          6           0        2.012245   -0.983444    1.650564
     60          6           0        2.461832    1.336373    1.929964
     61          7           0        1.213753    1.735859    1.634803
     62          1           0       -0.592864    0.922775    1.109800
     63          6           0        0.440434    0.687132    1.360852
     64          7           0        0.748252   -0.613905    1.349171
     65          1           0        5.573404    1.631505    2.756543
     66          6           0        4.584737    1.267923    2.474957
     67          7           0        4.275162    0.005650    2.306098
     68          6           0        2.931926    0.034981    1.960294
     69          6           0        3.528730    3.600493    2.365335
     70          7           0        3.535018    2.128222    2.263530
 ---------------------------------------------------------------------

 SCF Done:  E(RwB97XD) =  -2048.74400311     A.U. after   15 cycles

 The electronic state is 1-A.
 Alpha  occ. eigenvalues --  -19.26019 -19.22348 -19.20713 -14.52608 -14.51917
 Alpha  occ. eigenvalues --  -14.48798 -14.48607 -14.47977 -14.47402 -14.46968
 Alpha  occ. eigenvalues --  -14.46903 -14.44950 -14.43463 -14.43359 -14.42147
 Alpha  occ. eigenvalues --  -14.42025 -14.41256 -14.40807 -14.40739 -14.39984
 Alpha  occ. eigenvalues --  -10.45640 -10.41313 -10.40417 -10.39153 -10.38297
 Alpha  occ. eigenvalues --  -10.38079 -10.37478 -10.36465 -10.35227 -10.35184
 Alpha  occ. eigenvalues --  -10.34953 -10.34413 -10.33925 -10.33657 -10.33257
 Alpha  occ. eigenvalues --  -10.33184 -10.32929 -10.31959 -10.31373 -10.30916
 Alpha  occ. eigenvalues --  -10.30853 -10.28344 -10.28168  -1.19589  -1.14592
 Alpha  occ. eigenvalues --   -1.13339  -1.13306  -1.11178  -1.10628  -1.09495
 Alpha  occ. eigenvalues --   -1.08687  -1.08487  -1.04795  -1.04068  -1.02669
 Alpha  occ. eigenvalues --   -1.00423  -1.00248  -0.99928  -0.98620  -0.96813
 Alpha  occ. eigenvalues --   -0.96605  -0.96033  -0.92452  -0.91281  -0.87014
 Alpha  occ. eigenvalues --   -0.85447  -0.84159  -0.83780  -0.83700  -0.82539
 Alpha  occ. eigenvalues --   -0.82165  -0.79082  -0.76375  -0.74698  -0.74097
 Alpha  occ. eigenvalues --   -0.73793  -0.73531  -0.72732  -0.70886  -0.69780
 Alpha  occ. eigenvalues --   -0.67500  -0.66716  -0.66144  -0.66129  -0.64599
 Alpha  occ. eigenvalues --   -0.63868  -0.63633  -0.62795  -0.62532  -0.61870
 Alpha  occ. eigenvalues --   -0.60156  -0.59983  -0.59874  -0.59678  -0.59236
 Alpha  occ. eigenvalues --   -0.58923  -0.58529  -0.56730  -0.56391  -0.56245
 Alpha  occ. eigenvalues --   -0.56113  -0.55275  -0.54934  -0.54630  -0.54505
 Alpha  occ. eigenvalues --   -0.53758  -0.53638  -0.53071  -0.53044  -0.52805
 Alpha  occ. eigenvalues --   -0.52492  -0.52182  -0.51623  -0.50576  -0.50260
 Alpha  occ. eigenvalues --   -0.50050  -0.49589  -0.49305  -0.48994  -0.48750
 Alpha  occ. eigenvalues --   -0.48601  -0.48418  -0.48276  -0.47877  -0.47499
 Alpha  occ. eigenvalues --   -0.46792  -0.45673  -0.44867  -0.44300  -0.43782
 Alpha  occ. eigenvalues --   -0.40975  -0.40088  -0.39573  -0.37474  -0.37325
 Alpha  occ. eigenvalues --   -0.37215  -0.37007  -0.36806  -0.35906  -0.34328
 Alpha  occ. eigenvalues --   -0.34031  -0.33571  -0.33457  -0.33269  -0.33180
 Alpha  occ. eigenvalues --   -0.32724  -0.32464  -0.32207  -0.31867  -0.30711
 Alpha  occ. eigenvalues --   -0.30221  -0.29235  -0.25712  -0.25389
 Alpha virt. eigenvalues --    0.02733   0.04718   0.07431   0.08136   0.08684
 Alpha virt. eigenvalues --    0.09093   0.09522   0.11077   0.11382   0.11691
 Alpha virt. eigenvalues --    0.12561   0.14218   0.14491   0.14698   0.14945

 Mulliken charges:
               1
     1  N   -0.311763
     2  C    0.181022
     3  C    0.039871
     4  N   -0.259244
     5  C    0.133830
     6  H    0.025891
     7  N   -0.293059
     8  C    0.135558
     9  H    0.008133
    10  N   -0.292303
    11  C    0.244465
    12  C    0.123179
    13  N   -0.054021
    14  H    0.110414
    15  H    0.089015
    16  H    0.024979
    17  H    0.033336
    18  H    0.025769
    19  N   -0.312242
    20  C    0.246304
    21  C    0.181032
    22  N   -0.111085
    23  H    0.114616
    24  H    0.115074
    25  N   -0.301805
    26  C    0.229241
    27  N   -0.130075
    28  H    0.113588
    29  C    0.158279
    30  O   -0.318364
    31  C    0.008714
    32  N   -0.224899
    33  C    0.129960
    34  H    0.027845
    35  H    0.029745
    36  H    0.028051
    37  H    0.024581
    38  H    0.063982
    39  H    0.058094
    40  H    0.072764
    41  H    0.031205
    42  C   -0.112707
    43  O   -0.267090
    44  C    0.157815
    45  H    0.134879
    46  N   -0.122569
    47  O   -0.347376
    48  C    0.351969
    49  H    0.049106
    50  C    0.169614
    51  C    0.042087
    52  N   -0.288725
    53  H    0.034807
    54  H    0.041699
    55  H    0.021503
    56  H    0.128697
    57  H    0.113787
    58  N   -0.063754
    59  C    0.084793
    60  C    0.228744
    61  N   -0.261683
    62  H    0.044357
    63  C    0.165156
    64  N   -0.300761
    65  H    0.032575
    66  C    0.135152
    67  N   -0.267508
    68  C    0.034614
    69  C    0.173878
    70  N   -0.312734
 Sum of Mulliken charges =  -0.00000

 Dipole moment (field-independent basis, Debye):
    X=              8.5247    Y=              5.6499    Z=              1.9776  Tot=             10.4165
 Quadrupole moment (field-independent basis, Debye-Ang):
   XX=           -152.5673   YY=           -216.6981   ZZ=           -252.3338
   XY=             -0.4542   XZ=              6.7809   YZ=             -7.0363

 Normal termination of Gaussian 16 at Thu Jan 25 02:40:45 2018.
