 Gaussian 16, Revision A.03,
 Gaussian 16:  EM64L-G16RevA.03 25-Dec-2016

 ---------------------------------------
 #p wb97xd/cc-pvdz sp scf=(maxcycles=20)
 ---------------------------------------

 ------------------
 Base pair stacking
 ------------------
 Symbolic Z-matrix:
 Charge =  0 Multiplicity = 1

                         Standard orientation:
 ---------------------------------------------------------------------
 Center     Atomic      Atomic             Coordinates (Angstroms)
 Number     Number       Type             X           Y           Z
 ---------------------------------------------------------------------
      1          7           0       -6.197258   -1.740544    0.729920
      2          6           0       -7.598891   -1.290017    0.832261
      3          6           0       -4.001836   -1.832512    0.824638
      4          7           0       -4.418601   -3.045353    0.295427
      5          6           0       -5.724589   -2.941398    0.259545
      6          1           0       -6.398573   -3.717698   -0.103841
      7          7           0       -2.660195   -0.071305    1.637703
      8          6           0       -3.798718    0.597735    1.846783
      9          1           0       -3.681271    1.595114    2.268337
     10          7           0       -5.054643    0.221495    1.614397
     11          6           0       -5.086981   -1.017910    1.097424
     12          6           0       -2.726351   -1.315926    1.116520
     13          7           0       -1.590941   -1.985376    0.907098
     14          1           0       -1.592433   -2.909350    0.523060
     15          1           0       -0.700621   -1.586365    1.126796
     16          1           0       -8.107546   -1.911521    1.428234
     17          1           0       -7.625959   -0.366734    1.214272
     18          1           0       -8.016897   -1.285436   -0.076167
     19          7           0       -2.990135    3.042852   -1.629580
     20          6           0       -1.676647    2.649166   -1.541059
     21          6           0       -3.475729    4.431421   -1.500061
     22          7           0        1.674702    3.435871   -1.081428
     23          1           0        2.548681    2.951597   -1.051541
     24          1           0        1.700488    4.427127   -0.949293
     25          7           0       -0.617480    3.458182   -1.322651
     26          6           0        0.519513    2.786070   -1.289279
     27          7           0        0.614177    1.425736   -1.456749
     28          1           0        1.525645    0.996202   -1.415737
     29          6           0       -0.462297    0.573655   -1.682624
     30          8           0       -0.268258   -0.640477   -1.820429
     31          6           0       -1.690590    1.281251   -1.721090
     32          7           0       -2.986746    0.825327   -1.918656
     33          6           0       -3.721536    1.902551   -1.856320
     34          1           0       -4.806035    1.921861   -1.969307
     35          1           0       -4.112527    4.493350   -0.732304
     36          1           0       -2.699929    5.039826   -1.338014
     37          1           0       -3.941123    4.703409   -2.341629
     38          1           0        6.255650   -0.607857   -0.463449
     39          1           0        6.371331   -0.654014   -2.221039
     40          1           0        5.341354    0.544293   -1.437086
     41          1           0        3.907326   -4.702559   -1.393692
     42          6           0        3.737020   -3.626601   -1.433150
     43          8           0        1.377516   -3.819790   -1.583382
     44          6           0        2.397641   -3.132961   -1.534268
     45          1           0        1.363196   -1.370816   -1.648638
     46          7           0        2.293958   -1.757230   -1.577228
     47          8           0        3.129576    0.354388   -1.577680
     48          6           0        3.321152   -0.848116   -1.533492
     49          1           0        5.796607   -3.088894   -1.311710
     50          6           0        4.759622   -2.764689   -1.388477
     51          6           0        5.712121   -0.468650   -1.386087
     52          7           0        4.582768   -1.401298   -1.435928
     53          1           0        4.060066    3.545235    3.745080
     54          1           0        2.842882    3.754779    2.678945
     55          1           0        4.392689    3.887207    2.184353
     56          1           0        1.937161   -3.014010    1.000085
     57          1           0        3.554047   -2.668246    1.419877
     58          7           0        2.616989   -2.341298    1.292375
     59          6           0        2.289586   -1.064746    1.503038
     60          6           0        2.717641    1.200696    2.091499
     61          7           0        1.451302    1.611483    1.912379
     62          1           0       -0.365850    0.843160    1.357204
     63          6           0        0.681471    0.596219    1.525725
     64          7           0        1.007509   -0.683040    1.314175
     65          1           0        5.859967    1.441305    2.812635
     66          6           0        4.864608    1.100554    2.526127
     67          7           0        4.566037   -0.131117    2.192186
     68          6           0        3.207731   -0.081448    1.914214
     69          6           0        3.770395    3.401959    2.798739
     70          7           0        3.793555    1.959647    2.486970
 ---------------------------------------------------------------------

 SCF Done:  E(RwB97XD) =  -2048.74494851     A.U. after   15 cycles

 The electronic state is 1-A.
 Alpha  occ. eigenvalues --  -19.26138 -19.22697 -19.20765 -14.52769 -14.51937
 Alpha  occ. eigenvalues --  -14.48857 -14.48313 -14.48033 -14.47448 -14.47108
 Alpha  occ. eigenvalues --  -14.46949 -14.45037 -14.43621 -14.43612 -14.42189
 Alpha  occ. eigenvalues --  -14.41686 -14.40931 -14.40891 -14.40436 -14.39728
 Alpha  occ. eigenvalues --  -10.45758 -10.41408 -10.40681 -10.39251 -10.38362
 Alpha  occ. eigenvalues --  -10.38264 -10.37535 -10.36571 -10.35206 -10.35080
 Alpha  occ. eigenvalues --  -10.34915 -10.34454 -10.33613 -10.33534 -10.33342
 Alpha  occ. eigenvalues --  -10.32868 -10.32639 -10.32083 -10.31568 -10.30980
 Alpha  occ. eigenvalues --  -10.30637 -10.28210 -10.28018  -1.19711  -1.14647
 Alpha  occ. eigenvalues --   -1.13652  -1.13354  -1.10870  -1.10684  -1.09652
 Alpha  occ. eigenvalues --   -1.08731  -1.08629  -1.04506  -1.04205  -1.02807
 Alpha  occ. eigenvalues --   -1.00462  -0.99972  -0.99925  -0.98683  -0.96672
 Alpha  occ. eigenvalues --   -0.96529  -0.96134  -0.92159  -0.91472  -0.87061
 Alpha  occ. eigenvalues --   -0.85427  -0.84214  -0.83790  -0.83493  -0.82594
 Alpha  occ. eigenvalues --   -0.81889  -0.79255  -0.76451  -0.74751  -0.74183
 Alpha  occ. eigenvalues --   -0.73851  -0.73668  -0.72433  -0.70587  -0.69849
 Alpha  occ. eigenvalues --   -0.67559  -0.66845  -0.66224  -0.65832  -0.64726
 Alpha  occ. eigenvalues --   -0.63954  -0.63701  -0.62843  -0.62234  -0.61913
 Alpha  occ. eigenvalues --   -0.60170  -0.59963  -0.59903  -0.59798  -0.59162
 Alpha  occ. eigenvalues --   -0.58923  -0.58589  -0.56710  -0.56219  -0.56129
 Alpha  occ. eigenvalues --   -0.55995  -0.55013  -0.54788  -0.54694  -0.54471
 Alpha  occ. eigenvalues --   -0.53841  -0.53682  -0.53127  -0.53122  -0.53001
 Alpha  occ. eigenvalues --   -0.52606  -0.52242  -0.51372  -0.50367  -0.50288
 Alpha  occ. eigenvalues --   -0.49791  -0.49743  -0.49317  -0.49162  -0.48857
 Alpha  occ. eigenvalues --   -0.48523  -0.48424  -0.48289  -0.47818  -0.47573
 Alpha  occ. eigenvalues --   -0.46511  -0.45717  -0.44566  -0.44409  -0.44177
 Alpha  occ. eigenvalues --   -0.40645  -0.40160  -0.39682  -0.37442  -0.37384
 Alpha  occ. eigenvalues --   -0.37356  -0.36917  -0.36700  -0.36056  -0.34457
 Alpha  occ. eigenvalues --   -0.34080  -0.33811  -0.33629  -0.33060  -0.33007
 Alpha  occ. eigenvalues --   -0.32711  -0.32543  -0.32410  -0.31933  -0.30444
 Alpha  occ. eigenvalues --   -0.29963  -0.29406  -0.25694  -0.25122
 Alpha virt. eigenvalues --    0.02454   0.04608   0.07370   0.08434   0.08527
 Alpha virt. eigenvalues --    0.09067   0.09604   0.11087   0.11555   0.11896
 Alpha virt. eigenvalues --    0.12580   0.14388   0.14738   0.14814   0.15160

 Mulliken charges:
               1
     1  N   -0.312124
     2  C    0.181080
     3  C    0.044272
     4  N   -0.258417
     5  C    0.133614
     6  H    0.024824
     7  N   -0.296119
     8  C    0.137148
     9  H    0.008003
    10  N   -0.293189
    11  C    0.245356
    12  C    0.119115
    13  N   -0.051926
    14  H    0.112602
    15  H    0.088608
    16  H    0.024389
    17  H    0.032874
    18  H    0.024996
    19  N   -0.312479
    20  C    0.249785
    21  C    0.180885
    22  N   -0.118634
    23  H    0.114042
    24  H    0.116028
    25  N   -0.308773
    26  C    0.242338
    27  N   -0.142455
    28  H    0.115748
    29  C    0.178513
    30  O   -0.320676
    31  C   -0.002702
    32  N   -0.225766
    33  C    0.131813
    34  H    0.026655
    35  H    0.029782
    36  H    0.028427
    37  H    0.024695
    38  H    0.064702
    39  H    0.058405
    40  H    0.073094
    41  H    0.031322
    42  C   -0.108719
    43  O   -0.265438
    44  C    0.138751
    45  H    0.135018
    46  N   -0.111598
    47  O   -0.344964
    48  C    0.344227
    49  H    0.049968
    50  C    0.163994
    51  C    0.041112
    52  N   -0.282716
    53  H    0.033600
    54  H    0.043148
    55  H    0.023826
    56  H    0.130243
    57  H    0.114746
    58  N   -0.061428
    59  C    0.077552
    60  C    0.241417
    61  N   -0.267291
    62  H    0.040060
    63  C    0.167415
    64  N   -0.303614
    65  H    0.033782
    66  C    0.136965
    67  N   -0.269348
    68  C    0.033829
    69  C    0.178660
    70  N   -0.313051
 Sum of Mulliken charges =  -0.00000

 Dipole moment (field-independent basis, Debye):
    X=              8.8924    Y=              5.8641    Z=              1.2547  Tot=             10.7255
 Quadrupole moment (field-independent basis, Debye-Ang):
   XX=           -154.7428   YY=           -215.7940   ZZ=           -250.8672
   XY=             -1.9861   XZ=              3.9695   YZ=             -3.7258

 Normal termination of Gaussian 16 at Wed Jan 24 16:13:55 2018.
