 Gaussian 16, Revision A.03,
 Gaussian 16:  EM64L-G16RevA.03 25-Dec-2016

 ---------------------------------------
 #p wb97xd/cc-pvdz sp scf=(maxcycles=20)
 ---------------------------------------

 ------------------
 Base pair stacking
 ------------------
 Symbolic Z-matrix:
 Charge =  0 Multiplicity = 1

                         Standard orientation:
 ---------------------------------------------------------------------
 Center     Atomic      Atomic             Coordinates (Angstroms)
 Number     Number       Type             X           Y           Z
 ---------------------------------------------------------------------
      1          7           0       -6.634773   -1.574145    0.471643
      2          6           0       -8.010479   -1.088831    0.248302
      3          6           0       -4.466895   -1.669915    0.830022
      4          7           0       -4.904567   -2.983648    0.744813
      5          6           0       -6.193119   -2.873376    0.532316
      6          1           0       -6.875753   -3.714956    0.411055
      7          7           0       -3.103453    0.239081    1.074405
      8          6           0       -4.214496    0.961425    0.897216
      9          1           0       -4.077219    2.041380    0.930381
     10          7           0       -5.463777    0.551933    0.686216
     11          6           0       -5.522075   -0.789903    0.663620
     12          6           0       -3.195293   -1.108456    1.046184
     13          7           0       -2.087345   -1.831235    1.222851
     14          1           0       -2.108445   -2.831536    1.209712
     15          1           0       -1.198928   -1.397742    1.374281
     16          1           0       -8.608166   -1.431779    0.973104
     17          1           0       -8.017622   -0.089329    0.256755
     18          1           0       -8.341768   -1.415361   -0.636916
     19          7           0       -2.555862    2.714785   -1.668121
     20          6           0       -1.252855    2.342266   -1.441340
     21          6           0       -3.098751    4.075898   -1.485496
     22          7           0        1.983677    3.154681   -0.478732
     23          1           0        2.861629    2.688006   -0.375496
     24          1           0        1.960115    4.130581   -0.260132
     25          7           0       -0.257542    3.150559   -1.016988
     26          6           0        0.886692    2.501995   -0.891701
     27          7           0        1.046140    1.164227   -1.160892
     28          1           0        1.958043    0.751841   -1.037040
     29          6           0        0.036035    0.313346   -1.598574
     30          8           0        0.285405   -0.879389   -1.812870
     31          6           0       -1.199168    0.995790   -1.737878
     32          7           0       -2.443450    0.532321   -2.142684
     33          6           0       -3.214551    1.584166   -2.085835
     34          1           0       -4.275364    1.590837   -2.338625
     35          1           0       -3.831201    4.055990   -0.805850
     36          1           0       -2.370509    4.683521   -1.171284
     37          1           0       -3.459892    4.411905   -2.354680
     38          1           0        6.574414   -0.831571    0.389378
     39          1           0        6.917964   -0.718765   -1.335129
     40          1           0        5.757029    0.383312   -0.594154
     41          1           0        4.499742   -4.875359   -1.188597
     42          6           0        4.301295   -3.803956   -1.158048
     43          8           0        1.988546   -4.032168   -1.633711
     44          6           0        2.971009   -3.331320   -1.392142
     45          1           0        1.903660   -1.587943   -1.490742
     46          7           0        2.829356   -1.959678   -1.330644
     47          8           0        3.589336    0.160575   -1.040562
     48          6           0        3.812343   -1.036835   -1.074454
     49          1           0        6.309404   -3.236346   -0.720873
     50          6           0        5.281129   -2.928298   -0.905566
     51          6           0        6.150612   -0.622205   -0.581515
     52          7           0        5.067939   -1.570071   -0.859201
     53          1           0        3.597067    4.239846    2.408268
     54          1           0        2.498228    4.061127    1.215491
     55          1           0        4.092230    3.966688    0.877382
     56          1           0        1.349435   -2.824086    2.069636
     57          1           0        2.938360   -2.380351    2.503835
     58          7           0        2.038257   -2.105245    2.164186
     59          6           0        1.769506   -0.835919    1.851529
     60          6           0        2.275701    1.475799    1.603658
     61          7           0        1.058098    1.816248    1.149841
     62          1           0       -0.742584    0.934269    0.725243
     63          6           0        0.268097    0.746386    1.085079
     64          7           0        0.535410   -0.525760    1.397775
     65          1           0        5.346716    1.902762    2.519491
     66          6           0        4.363540    1.500501    2.273541
     67          7           0        4.024180    0.239809    2.388273
     68          6           0        2.702748    0.210366    1.966744
     69          6           0        3.388026    3.759347    1.556553
     70          7           0        3.353825    2.304892    1.804311
 ---------------------------------------------------------------------

 SCF Done:  E(RwB97XD) =  -2048.65540108     A.U. after   15 cycles

 The electronic state is 1-A.
 Alpha  occ. eigenvalues --  -19.25916 -19.21989 -19.20609 -14.52444 -14.52306
 Alpha  occ. eigenvalues --  -14.49030 -14.48690 -14.47921 -14.47677 -14.46271
 Alpha  occ. eigenvalues --  -14.45591 -14.45138 -14.43597 -14.42603 -14.42510
 Alpha  occ. eigenvalues --  -14.41901 -14.41719 -14.41230 -14.40641 -14.40439
 Alpha  occ. eigenvalues --  -10.45523 -10.41244 -10.40115 -10.39315 -10.38131
 Alpha  occ. eigenvalues --  -10.37823 -10.37739 -10.36568 -10.35742 -10.35164
 Alpha  occ. eigenvalues --  -10.34947 -10.34375 -10.34303 -10.33983 -10.33660
 Alpha  occ. eigenvalues --  -10.33431 -10.33066 -10.32083 -10.31155 -10.31138
 Alpha  occ. eigenvalues --  -10.30849 -10.28841 -10.28004  -1.19488  -1.15179
 Alpha  occ. eigenvalues --   -1.13394  -1.13020  -1.11625  -1.10543  -1.09340
 Alpha  occ. eigenvalues --   -1.09187  -1.08448  -1.05284  -1.04180  -1.02529
 Alpha  occ. eigenvalues --   -1.01410  -1.00774  -0.99615  -0.98516  -0.97261
 Alpha  occ. eigenvalues --   -0.96564  -0.96251  -0.92947  -0.91066  -0.87498
 Alpha  occ. eigenvalues --   -0.86172  -0.84217  -0.84024  -0.83611  -0.82579
 Alpha  occ. eigenvalues --   -0.82490  -0.78898  -0.76844  -0.74909  -0.74424
 Alpha  occ. eigenvalues --   -0.73728  -0.73380  -0.73212  -0.71377  -0.70256
 Alpha  occ. eigenvalues --   -0.67591  -0.66768  -0.66623  -0.66472  -0.64476
 Alpha  occ. eigenvalues --   -0.64260  -0.63764  -0.63065  -0.62862  -0.62509
 Alpha  occ. eigenvalues --   -0.60624  -0.60417  -0.60306  -0.59642  -0.59523
 Alpha  occ. eigenvalues --   -0.59200  -0.58353  -0.57456  -0.56785  -0.56608
 Alpha  occ. eigenvalues --   -0.56049  -0.55931  -0.55665  -0.54699  -0.54304
 Alpha  occ. eigenvalues --   -0.53870  -0.53426  -0.53195  -0.52886  -0.52771
 Alpha  occ. eigenvalues --   -0.52386  -0.52098  -0.51996  -0.51029  -0.50476
 Alpha  occ. eigenvalues --   -0.50093  -0.49648  -0.49412  -0.49112  -0.48748
 Alpha  occ. eigenvalues --   -0.48654  -0.48483  -0.48269  -0.48104  -0.47378
 Alpha  occ. eigenvalues --   -0.47227  -0.46104  -0.45313  -0.43972  -0.42913
 Alpha  occ. eigenvalues --   -0.41487  -0.39935  -0.39461  -0.37768  -0.37498
 Alpha  occ. eigenvalues --   -0.37262  -0.37185  -0.36614  -0.35850  -0.34597
 Alpha  occ. eigenvalues --   -0.34142  -0.33804  -0.33717  -0.33160  -0.32619
 Alpha  occ. eigenvalues --   -0.32342  -0.31975  -0.31766  -0.31495  -0.31110
 Alpha  occ. eigenvalues --   -0.30607  -0.28542  -0.26143  -0.25241
 Alpha virt. eigenvalues --    0.03048   0.04008   0.07382   0.07587   0.08655
 Alpha virt. eigenvalues --    0.09062   0.09321   0.10637   0.11545   0.12206
 Alpha virt. eigenvalues --    0.12760   0.13920   0.13987   0.14619   0.14881

 Mulliken charges:
               1
     1  N   -0.312273
     2  C    0.181034
     3  C    0.036738
     4  N   -0.260477
     5  C    0.134980
     6  H    0.027486
     7  N   -0.288939
     8  C    0.133959
     9  H    0.007525
    10  N   -0.289541
    11  C    0.246928
    12  C    0.124618
    13  N   -0.057984
    14  H    0.107617
    15  H    0.087521
    16  H    0.025623
    17  H    0.033888
    18  H    0.027256
    19  N   -0.307604
    20  C    0.226426
    21  C    0.180948
    22  N   -0.092586
    23  H    0.115582
    24  H    0.104840
    25  N   -0.273384
    26  C    0.189593
    27  N   -0.108389
    28  H    0.118631
    29  C    0.129014
    30  O   -0.315695
    31  C    0.025093
    32  N   -0.220788
    33  C    0.121162
    34  H    0.028736
    35  H    0.026968
    36  H    0.027579
    37  H    0.024898
    38  H    0.062676
    39  H    0.058149
    40  H    0.072877
    41  H    0.031558
    42  C   -0.113271
    43  O   -0.264290
    44  C    0.176389
    45  H    0.134362
    46  N   -0.135974
    47  O   -0.347141
    48  C    0.359466
    49  H    0.047740
    50  C    0.170613
    51  C    0.042245
    52  N   -0.293693
    53  H    0.033551
    54  H    0.038268
    55  H    0.018344
    56  H    0.122678
    57  H    0.115592
    58  N   -0.068584
    59  C    0.099693
    60  C    0.219650
    61  N   -0.272169
    62  H    0.067262
    63  C    0.167350
    64  N   -0.299897
    65  H    0.032944
    66  C    0.135205
    67  N   -0.263848
    68  C    0.036519
    69  C    0.168583
    70  N   -0.319840
 Sum of Mulliken charges =  -0.00000

 Dipole moment (field-independent basis, Debye):
    X=              7.7213    Y=              5.2394    Z=              3.5088  Tot=              9.9690
 Quadrupole moment (field-independent basis, Debye-Ang):
   XX=           -150.7568   YY=           -219.8523   ZZ=           -254.7699
   XY=              1.0111   XZ=              8.9185   YZ=            -11.4914

 Normal termination of Gaussian 16 at Wed Jan 24 17:23:06 2018.
