 Gaussian 16, Revision A.03,
 Gaussian 16:  EM64L-G16RevA.03 25-Dec-2016

 ---------------------------------------
 #p wb97xd/cc-pvdz sp scf=(maxcycles=20)
 ---------------------------------------

 ------------------
 Base pair stacking
 ------------------
 Symbolic Z-matrix:
 Charge =  0 Multiplicity = 1

                         Standard orientation:
 ---------------------------------------------------------------------
 Center     Atomic      Atomic             Coordinates (Angstroms)
 Number     Number       Type             X           Y           Z
 ---------------------------------------------------------------------
      1          7           0       -6.886784   -1.546344    0.309129
      2          6           0       -8.256798   -1.060208    0.054658
      3          6           0       -4.726693   -1.643371    0.711494
      4          7           0       -5.165199   -2.956910    0.627533
      5          6           0       -6.449022   -2.845886    0.388477
      6          1           0       -7.130781   -3.687100    0.259993
      7          7           0       -3.364602    0.264918    0.968594
      8          6           0       -4.470444    0.987933    0.763760
      9          1           0       -4.331706    2.067864    0.791469
     10          7           0       -5.716070    0.579148    0.530931
     11          6           0       -5.776581   -0.762711    0.517357
     12          6           0       -3.458551   -1.082626    0.948778
     13          7           0       -2.355797   -1.806078    1.153041
     14          1           0       -2.378625   -2.806409    1.147073
     15          1           0       -1.469719   -1.373067    1.318901
     16          1           0       -8.869520   -1.396515    0.769952
     17          1           0       -8.262106   -0.060658    0.055386
     18          1           0       -8.570972   -1.392875   -0.834509
     19          7           0       -2.269481    2.694439   -1.696636
     20          6           0       -0.972007    2.321262   -1.441038
     21          6           0       -2.813194    4.057903   -1.535236
     22          7           0        2.246262    3.135031   -0.420108
     23          1           0        3.121039    2.667538   -0.295793
     24          1           0        2.220271    4.112607   -0.209431
     25          7           0        0.016236    3.130931   -1.003009
     26          6           0        1.156446    2.481237   -0.849961
     27          7           0        1.318568    1.141160   -1.105743
     28          1           0        2.226988    0.728061   -0.960556
     29          6           0        0.315718    0.288832   -1.557071
     30          8           0        0.566940   -0.905961   -1.757281
     31          6           0       -0.915101    0.972466   -1.726221
     32          7           0       -2.151960    0.508218   -2.152289
     33          6           0       -2.921943    1.561884   -2.118852
     34          1           0       -3.977492    1.568577   -2.392839
     35          1           0       -3.559120    4.044530   -0.870251
     36          1           0       -2.090165    4.666562   -1.211147
     37          1           0       -3.156233    4.387937   -2.414004
     38          1           0        6.810779   -0.852935    0.569835
     39          1           0        7.188934   -0.753922   -1.148257
     40          1           0        6.015632    0.355915   -0.439033
     41          1           0        4.759973   -4.904816   -1.018567
     42          6           0        4.563097   -3.832845   -1.000131
     43          8           0        2.259866   -4.060417   -1.520179
     44          6           0        3.238707   -3.359556   -1.264350
     45          1           0        2.177020   -1.615018   -1.397496
     46          7           0        3.098578   -1.987218   -1.216110
     47          8           0        3.856850    0.133774   -0.926987
     48          6           0        4.078101   -1.064269   -0.947327
     49          1           0        6.563199   -3.265617   -0.527216
     50          6           0        5.539445   -2.957091   -0.734758
     51          6           0        6.406877   -0.650199   -0.410898
     52          7           0        5.328079   -1.598160   -0.702973
     53          1           0        3.315896    4.263385    2.405762
     54          1           0        2.240753    4.077611    1.192639
     55          1           0        3.841000    3.977659    0.887192
     56          1           0        1.061394   -2.798759    2.075870
     57          1           0        2.642210   -2.354654    2.538369
     58          7           0        1.749621   -2.080501    2.178721
     59          6           0        1.489706   -0.813100    1.851122
     60          6           0        2.005359    1.495733    1.595887
     61          7           0        0.797743    1.834951    1.115256
     62          1           0       -0.995849    0.953081    0.661438
     63          6           0        0.007064    0.766074    1.042831
     64          7           0        0.265536   -0.504131    1.370455
     65          1           0        5.058312    1.924000    2.569667
     66          6           0        4.079439    1.521694    2.307179
     67          7           0        3.735348    0.262534    2.424656
     68          6           0        2.422541    0.232309    1.977037
     69          6           0        3.122955    3.776801    1.553702
     70          7           0        3.080909    2.324332    1.811763
 ---------------------------------------------------------------------

 SCF Done:  E(RwB97XD) =  -2048.62429679     A.U. after   15 cycles

 The electronic state is 1-A.
 Alpha  occ. eigenvalues --  -19.25902 -19.21997 -19.20419 -14.52468 -14.52220
 Alpha  occ. eigenvalues --  -14.49183 -14.48588 -14.47927 -14.47609 -14.45853
 Alpha  occ. eigenvalues --  -14.45736 -14.44995 -14.43582 -14.42766 -14.42715
 Alpha  occ. eigenvalues --  -14.41881 -14.41393 -14.41337 -14.40606 -14.40594
 Alpha  occ. eigenvalues --  -10.45533 -10.41319 -10.40125 -10.39305 -10.37975
 Alpha  occ. eigenvalues --  -10.37835 -10.37693 -10.36405 -10.35891 -10.35300
 Alpha  occ. eigenvalues --  -10.34700 -10.34532 -10.34199 -10.33825 -10.33782
 Alpha  occ. eigenvalues --  -10.33595 -10.33080 -10.32143 -10.31256 -10.31142
 Alpha  occ. eigenvalues --  -10.30788 -10.29015 -10.27940  -1.19476  -1.15387
 Alpha  occ. eigenvalues --   -1.13223  -1.13024  -1.11786  -1.10456  -1.09352
 Alpha  occ. eigenvalues --   -1.09139  -1.08606  -1.05445  -1.04096  -1.02564
 Alpha  occ. eigenvalues --   -1.02161  -1.00920  -0.99338  -0.98301  -0.97404
 Alpha  occ. eigenvalues --   -0.96476  -0.96300  -0.93104  -0.91087  -0.87780
 Alpha  occ. eigenvalues --   -0.86320  -0.84365  -0.83902  -0.83689  -0.82715
 Alpha  occ. eigenvalues --   -0.82431  -0.78912  -0.76775  -0.74829  -0.74276
 Alpha  occ. eigenvalues --   -0.73982  -0.73400  -0.73361  -0.71532  -0.70254
 Alpha  occ. eigenvalues --   -0.67933  -0.66853  -0.66763  -0.66499  -0.64686
 Alpha  occ. eigenvalues --   -0.64369  -0.63763  -0.63216  -0.62917  -0.62788
 Alpha  occ. eigenvalues --   -0.60782  -0.60481  -0.60311  -0.59750  -0.59523
 Alpha  occ. eigenvalues --   -0.59207  -0.58913  -0.57133  -0.56857  -0.56734
 Alpha  occ. eigenvalues --   -0.56046  -0.55762  -0.55651  -0.54492  -0.54249
 Alpha  occ. eigenvalues --   -0.53772  -0.53358  -0.53166  -0.52748  -0.52631
 Alpha  occ. eigenvalues --   -0.52447  -0.52134  -0.51943  -0.51151  -0.50610
 Alpha  occ. eigenvalues --   -0.50019  -0.49744  -0.49421  -0.49248  -0.48739
 Alpha  occ. eigenvalues --   -0.48661  -0.48244  -0.48141  -0.47941  -0.47395
 Alpha  occ. eigenvalues --   -0.47282  -0.45747  -0.45475  -0.44018  -0.42560
 Alpha  occ. eigenvalues --   -0.41650  -0.39604  -0.39320  -0.37882  -0.37643
 Alpha  occ. eigenvalues --   -0.37036  -0.36963  -0.36472  -0.35703  -0.34877
 Alpha  occ. eigenvalues --   -0.34010  -0.33880  -0.33260  -0.33152  -0.32896
 Alpha  occ. eigenvalues --   -0.32448  -0.32061  -0.31948  -0.31671  -0.31308
 Alpha  occ. eigenvalues --   -0.30821  -0.28865  -0.26263  -0.24702
 Alpha virt. eigenvalues --    0.03047   0.03738   0.07147   0.07424   0.08344
 Alpha virt. eigenvalues --    0.09380   0.09612   0.10464   0.11275   0.12447
 Alpha virt. eigenvalues --    0.12810   0.13829   0.13982   0.14369   0.15087

 Mulliken charges:
               1
     1  N   -0.311910
     2  C    0.180969
     3  C    0.034023
     4  N   -0.260186
     5  C    0.135065
     6  H    0.028052
     7  N   -0.287392
     8  C    0.128930
     9  H    0.008812
    10  N   -0.287566
    11  C    0.245356
    12  C    0.125532
    13  N   -0.058491
    14  H    0.107494
    15  H    0.088113
    16  H    0.025966
    17  H    0.034769
    18  H    0.027360
    19  N   -0.308548
    20  C    0.217871
    21  C    0.181845
    22  N   -0.090395
    23  H    0.118877
    24  H    0.101681
    25  N   -0.259636
    26  C    0.161030
    27  N   -0.099612
    28  H    0.118830
    29  C    0.130458
    30  O   -0.317884
    31  C    0.008339
    32  N   -0.219109
    33  C    0.124428
    34  H    0.030347
    35  H    0.025680
    36  H    0.027095
    37  H    0.024794
    38  H    0.061850
    39  H    0.058920
    40  H    0.072034
    41  H    0.031742
    42  C   -0.113146
    43  O   -0.264610
    44  C    0.177090
    45  H    0.135297
    46  N   -0.138865
    47  O   -0.347823
    48  C    0.362146
    49  H    0.047801
    50  C    0.171453
    51  C    0.043564
    52  N   -0.295769
    53  H    0.019839
    54  H    0.042520
    55  H   -0.001618
    56  H    0.122937
    57  H    0.116072
    58  N   -0.067834
    59  C    0.109147
    60  C    0.213461
    61  N   -0.258118
    62  H    0.078092
    63  C    0.156119
    64  N   -0.296476
    65  H    0.031923
    66  C    0.132855
    67  N   -0.264990
    68  C    0.037092
    69  C    0.205771
    70  N   -0.319464
 Sum of Mulliken charges =  -0.00000

 Dipole moment (field-independent basis, Debye):
    X=              7.5934    Y=              5.0951    Z=              3.7586  Tot=              9.8867
 Quadrupole moment (field-independent basis, Debye-Ang):
   XX=           -148.3847   YY=           -220.5921   ZZ=           -254.3112
   XY=              2.5879   XZ=             11.6633   YZ=            -11.8679

 Normal termination of Gaussian 16 at Wed Jan 24 18:08:57 2018.
