 Gaussian 16, Revision A.03,
 Gaussian 16:  EM64L-G16RevA.03 25-Dec-2016

 ---------------------------------------
 #p wb97xd/cc-pvdz sp scf=(maxcycles=20)
 ---------------------------------------

 ------------------
 Base pair stacking
 ------------------
 Symbolic Z-matrix:
 Charge =  0 Multiplicity = 1

                         Standard orientation:
 ---------------------------------------------------------------------
 Center     Atomic      Atomic             Coordinates (Angstroms)
 Number     Number       Type             X           Y           Z
 ---------------------------------------------------------------------
      1          7           0       -6.927600   -1.544236    0.272572
      2          6           0       -8.306997   -1.051250    0.092964
      3          6           0       -4.760279   -1.656180    0.629617
      4          7           0       -5.185194   -2.958467    0.410027
      5          6           0       -6.473929   -2.838895    0.203699
      6          1           0       -7.148111   -3.670034   -0.005195
      7          7           0       -3.415883    0.230552    1.072077
      8          6           0       -4.533023    0.957055    0.963594
      9          1           0       -4.406089    2.029322    1.106372
     10          7           0       -5.777577    0.559740    0.706421
     11          6           0       -5.823096   -0.773405    0.548055
     12          6           0       -3.494874   -1.107994    0.907392
     13          7           0       -2.380813   -1.834910    1.015308
     14          1           0       -2.392406   -2.828905    0.901045
     15          1           0       -1.497108   -1.410937    1.213944
     16          1           0       -8.904134   -1.471111    0.776582
     17          1           0       -8.323613   -0.057832    0.202354
     18          1           0       -8.631848   -1.289590   -0.822275
     19          7           0       -2.195111    2.766243   -1.758086
     20          6           0       -0.897722    2.383885   -1.515947
     21          6           0       -2.713492    4.144621   -1.648368
     22          7           0        2.356770    3.190850   -0.611040
     23          1           0        3.226966    2.715201   -0.485555
     24          1           0        2.351105    4.177516   -0.446160
     25          7           0        0.113371    3.196608   -1.140136
     26          6           0        1.246772    2.535890   -0.983643
     27          7           0        1.381782    1.182810   -1.179677
     28          1           0        2.286961    0.761880   -1.036718
     29          6           0        0.355102    0.327108   -1.566413
     30          8           0        0.582788   -0.879774   -1.715924
     31          6           0       -0.868729    1.022468   -1.738445
     32          7           0       -2.122686    0.559438   -2.112723
     33          6           0       -2.875185    1.626187   -2.110822
     34          1           0       -3.936873    1.637620   -2.359753
     35          1           0       -3.443062    4.174801   -0.966008
     36          1           0       -1.973403    4.755659   -1.370565
     37          1           0       -3.072735    4.438839   -2.533346
     38          1           0        6.881691   -0.821845    0.457612
     39          1           0        7.219247   -0.809646   -1.271710
     40          1           0        6.080980    0.351539   -0.588060
     41          1           0        4.730073   -4.908922   -0.888840
     42          6           0        4.550358   -3.834122   -0.916349
     43          8           0        2.231856   -4.047419   -1.370410
     44          6           0        3.227407   -3.351737   -1.171170
     45          1           0        2.189982   -1.597908   -1.361304
     46          7           0        3.109821   -1.976514   -1.184432
     47          8           0        3.907733    0.142774   -1.013739
     48          6           0        4.109811   -1.058423   -0.982764
     49          1           0        6.569977   -3.278757   -0.518203
     50          6           0        5.546367   -2.963286   -0.715785
     51          6           0        6.457145   -0.658534   -0.521752
     52          7           0        5.356954   -1.601034   -0.743149
     53          1           0        3.241458    4.136270    2.834918
     54          1           0        2.148854    4.069151    1.625038
     55          1           0        3.744945    4.023771    1.286601
     56          1           0        1.061995   -2.877219    1.773562
     57          1           0        2.645008   -2.465342    2.257833
     58          7           0        1.743632   -2.165440    1.943507
     59          6           0        1.464063   -0.873489    1.759472
     60          6           0        1.949315    1.455927    1.748878
     61          7           0        0.730257    1.829504    1.326079
     62          1           0       -1.060394    0.978767    0.806067
     63          6           0       -0.049335    0.764584    1.149814
     64          7           0        0.228808   -0.530184    1.333603
     65          1           0        5.012692    1.815796    2.717592
     66          6           0        4.034295    1.431615    2.427631
     67          7           0        3.706436    0.162767    2.412765
     68          6           0        2.386939    0.164165    1.984219
     69          6           0        3.040173    3.742479    1.938025
     70          7           0        3.018793    2.270170    2.037363
 ---------------------------------------------------------------------

 SCF Done:  E(RwB97XD) =  -2048.71749312     A.U. after   15 cycles

 The electronic state is 1-A.
 Alpha  occ. eigenvalues --  -19.25943 -19.22136 -19.20642 -14.52527 -14.51745
 Alpha  occ. eigenvalues --  -14.49045 -14.48809 -14.47998 -14.47126 -14.46983
 Alpha  occ. eigenvalues --  -14.46637 -14.44644 -14.43123 -14.42722 -14.42452
 Alpha  occ. eigenvalues --  -14.41942 -14.41732 -14.41204 -14.40800 -14.40415
 Alpha  occ. eigenvalues --  -10.45587 -10.41374 -10.40252 -10.38862 -10.38260
 Alpha  occ. eigenvalues --  -10.37925 -10.37268 -10.36089 -10.35686 -10.35335
 Alpha  occ. eigenvalues --  -10.34418 -10.34403 -10.34386 -10.33664 -10.33612
 Alpha  occ. eigenvalues --  -10.33393 -10.33293 -10.31725 -10.31221 -10.31160
 Alpha  occ. eigenvalues --  -10.30907 -10.28844 -10.28218  -1.19516  -1.14498
 Alpha  occ. eigenvalues --   -1.13303  -1.13147  -1.11640  -1.10641  -1.09415
 Alpha  occ. eigenvalues --   -1.08840  -1.08168  -1.05254  -1.03729  -1.02620
 Alpha  occ. eigenvalues --   -1.00752  -1.00709  -0.99732  -0.98546  -0.97242
 Alpha  occ. eigenvalues --   -0.96606  -0.95761  -0.92905  -0.91165  -0.86901
 Alpha  occ. eigenvalues --   -0.85425  -0.84218  -0.84193  -0.83744  -0.82581
 Alpha  occ. eigenvalues --   -0.82573  -0.78987  -0.76146  -0.74765  -0.73987
 Alpha  occ. eigenvalues --   -0.73790  -0.73473  -0.73182  -0.71347  -0.69578
 Alpha  occ. eigenvalues --   -0.67661  -0.66667  -0.66580  -0.65937  -0.64567
 Alpha  occ. eigenvalues --   -0.63887  -0.63499  -0.62956  -0.62812  -0.62323
 Alpha  occ. eigenvalues --   -0.60491  -0.59862  -0.59755  -0.59609  -0.59412
 Alpha  occ. eigenvalues --   -0.58923  -0.58657  -0.56961  -0.56749  -0.56617
 Alpha  occ. eigenvalues --   -0.56045  -0.55668  -0.55338  -0.54593  -0.54395
 Alpha  occ. eigenvalues --   -0.53747  -0.53459  -0.53141  -0.52907  -0.52550
 Alpha  occ. eigenvalues --   -0.52354  -0.52003  -0.51955  -0.50999  -0.50449
 Alpha  occ. eigenvalues --   -0.50218  -0.49526  -0.49439  -0.48929  -0.48833
 Alpha  occ. eigenvalues --   -0.48690  -0.48353  -0.48135  -0.47830  -0.47466
 Alpha  occ. eigenvalues --   -0.47237  -0.45587  -0.45333  -0.44123  -0.42891
 Alpha  occ. eigenvalues --   -0.41462  -0.39694  -0.39470  -0.37715  -0.37461
 Alpha  occ. eigenvalues --   -0.37265  -0.36744  -0.36540  -0.35742  -0.34776
 Alpha  occ. eigenvalues --   -0.33855  -0.33726  -0.33315  -0.33285  -0.32965
 Alpha  occ. eigenvalues --   -0.32704  -0.32362  -0.32069  -0.31877  -0.31184
 Alpha  occ. eigenvalues --   -0.30632  -0.28881  -0.26063  -0.25357
 Alpha virt. eigenvalues --    0.02965   0.04637   0.07543   0.07651   0.08355
 Alpha virt. eigenvalues --    0.09465   0.09572   0.10678   0.11306   0.12306
 Alpha virt. eigenvalues --    0.12804   0.13789   0.14393   0.14669   0.14721

 Mulliken charges:
               1
     1  N   -0.311412
     2  C    0.180956
     3  C    0.032879
     4  N   -0.259471
     5  C    0.134315
     6  H    0.027487
     7  N   -0.288714
     8  C    0.129005
     9  H    0.009441
    10  N   -0.288895
    11  C    0.243223
    12  C    0.125509
    13  N   -0.056586
    14  H    0.108168
    15  H    0.088782
    16  H    0.025852
    17  H    0.034697
    18  H    0.026656
    19  N   -0.309991
    20  C    0.230540
    21  C    0.181469
    22  N   -0.103907
    23  H    0.117817
    24  H    0.113208
    25  N   -0.277285
    26  C    0.197902
    27  N   -0.108232
    28  H    0.116620
    29  C    0.142026
    30  O   -0.317652
    31  C    0.003572
    32  N   -0.220008
    33  C    0.129074
    34  H    0.030976
    35  H    0.028927
    36  H    0.027646
    37  H    0.024841
    38  H    0.062177
    39  H    0.059023
    40  H    0.072595
    41  H    0.031720
    42  C   -0.113900
    43  O   -0.266876
    44  C    0.172655
    45  H    0.136180
    46  N   -0.136797
    47  O   -0.349236
    48  C    0.362500
    49  H    0.048413
    50  C    0.173012
    51  C    0.043624
    52  N   -0.295497
    53  H    0.032186
    54  H    0.043166
    55  H    0.003851
    56  H    0.124488
    57  H    0.114469
    58  N   -0.065085
    59  C    0.104583
    60  C    0.217164
    61  N   -0.256521
    62  H    0.063730
    63  C    0.147991
    64  N   -0.296448
    65  H    0.029562
    66  C    0.129369
    67  N   -0.266400
    68  C    0.034018
    69  C    0.179599
    70  N   -0.308743
 Sum of Mulliken charges =  -0.00000

 Dipole moment (field-independent basis, Debye):
    X=              7.9152    Y=              5.3492    Z=              2.8399  Tot=              9.9664
 Quadrupole moment (field-independent basis, Debye-Ang):
   XX=           -148.1611   YY=           -218.7499   ZZ=           -252.7343
   XY=              2.5286   XZ=             12.0301   YZ=            -10.0288

 Normal termination of Gaussian 16 at Thu Jan 25 03:49:10 2018.
