 Gaussian 16, Revision A.03,
 Gaussian 16:  EM64L-G16RevA.03 25-Dec-2016

 ---------------------------------------
 #p wb97xd/cc-pvdz sp scf=(maxcycles=20)
 ---------------------------------------

 ------------------
 Base pair stacking
 ------------------
 Symbolic Z-matrix:
 Charge =  0 Multiplicity = 1

                         Standard orientation:
 ---------------------------------------------------------------------
 Center     Atomic      Atomic             Coordinates (Angstroms)
 Number     Number       Type             X           Y           Z
 ---------------------------------------------------------------------
      1          7           0       -5.904295   -1.843151    0.939994
      2          6           0       -7.306471   -1.411425    1.099751
      3          6           0       -3.705990   -1.910344    0.955709
      4          7           0       -4.127367   -3.118549    0.419590
      5          6           0       -5.434905   -3.029715    0.431582
      6          1           0       -6.112434   -3.807503    0.078135
      7          7           0       -2.356578   -0.147803    1.752862
      8          6           0       -3.494547    0.503682    2.013965
      9          1           0       -3.373633    1.494777    2.449138
     10          7           0       -4.753538    0.116525    1.819138
     11          6           0       -4.790019   -1.113826    1.281238
     12          6           0       -2.426946   -1.383692    1.211840
     13          7           0       -1.292099   -2.035608    0.950487
     14          1           0       -1.296645   -2.952594    0.550051
     15          1           0       -0.399176   -1.629873    1.145927
     16          1           0       -7.786586   -2.049470    1.701889
     17          1           0       -7.330529   -0.495438    1.499163
     18          1           0       -7.756403   -1.395775    0.206828
     19          7           0       -3.329833    3.050901   -1.492644
     20          6           0       -2.009641    2.671548   -1.457563
     21          6           0       -3.826344    4.431010   -1.320962
     22          7           0        1.346689    3.490279   -1.101961
     23          1           0        2.226644    3.016108   -1.111645
     24          1           0        1.365837    4.479278   -0.952877
     25          7           0       -0.952702    3.489262   -1.261933
     26          6           0        0.192353    2.830401   -1.280776
     27          7           0        0.296538    1.474486   -1.476120
     28          1           0        1.213731    1.055289   -1.474994
     29          6           0       -0.777468    0.613642   -1.679382
     30          8           0       -0.574591   -0.595433   -1.845911
     31          6           0       -2.014345    1.306969   -1.661763
     32          7           0       -3.311386    0.839047   -1.821817
     33          6           0       -4.055758    1.906071   -1.714139
     34          1           0       -5.143717    1.914323   -1.788523
     35          1           0       -4.436239    4.471654   -0.530282
     36          1           0       -3.052294    5.045733   -1.175322
     37          1           0       -4.324324    4.712240   -2.140569
     38          1           0        5.992471   -0.508317   -0.718996
     39          1           0        6.046373   -0.521933   -2.480126
     40          1           0        5.031194    0.649810   -1.638814
     41          1           0        3.659546   -4.613872   -1.640105
     42          6           0        3.475688   -3.539522   -1.654040
     43          8           0        1.114711   -3.758400   -1.724612
     44          6           0        2.128023   -3.060319   -1.698993
     45          1           0        1.070146   -1.309006   -1.744911
     46          7           0        2.007200   -1.685391   -1.713318
     47          8           0        2.818136    0.435811   -1.704903
     48          6           0        3.024862   -0.764893   -1.689284
     49          1           0        5.532024   -2.979281   -1.595430
     50          6           0        4.489332   -2.666287   -1.629763
     51          6           0        5.415066   -0.359339   -1.619259
     52          7           0        4.295367   -1.304488   -1.646234
     53          1           0        4.392383    3.511491    3.687644
     54          1           0        3.135907    3.725221    2.668979
     55          1           0        4.665623    3.885040    2.122644
     56          1           0        2.248588   -3.023186    0.900589
     57          1           0        3.875263   -2.665464    1.269430
     58          7           0        2.930621   -2.347623    1.180922
     59          6           0        2.596338   -1.079027    1.426086
     60          6           0        3.019081    1.180612    2.040096
     61          7           0        1.742599    1.579243    1.913128
     62          1           0       -0.084186    0.799054    1.408409
     63          6           0        0.971195    0.561794    1.535472
     64          7           0        1.304112   -0.709507    1.289421
     65          1           0        6.182027    1.446233    2.654441
     66          6           0        5.181101    1.098643    2.397010
     67          7           0        4.884965   -0.130424    2.051507
     68          6           0        3.517191   -0.092196    1.822456
     69          6           0        4.071053    3.381528    2.749640
     70          7           0        4.099604    1.945338    2.411152
 ---------------------------------------------------------------------

 SCF Done:  E(RwB97XD) =  -2048.74551473     A.U. after   15 cycles

 The electronic state is 1-A.
 Alpha  occ. eigenvalues --  -19.26079 -19.22620 -19.20719 -14.52694 -14.52116
 Alpha  occ. eigenvalues --  -14.48845 -14.48168 -14.48040 -14.47872 -14.47071
 Alpha  occ. eigenvalues --  -14.46842 -14.45235 -14.43887 -14.43866 -14.42140
 Alpha  occ. eigenvalues --  -14.41636 -14.40892 -14.40773 -14.40342 -14.39693
 Alpha  occ. eigenvalues --  -10.45701 -10.41357 -10.40599 -10.39540 -10.38321
 Alpha  occ. eigenvalues --  -10.38167 -10.37721 -10.36798 -10.35306 -10.35093
 Alpha  occ. eigenvalues --  -10.34838 -10.34412 -10.33647 -10.33471 -10.33348
 Alpha  occ. eigenvalues --  -10.32740 -10.32552 -10.32320 -10.31508 -10.30980
 Alpha  occ. eigenvalues --  -10.30524 -10.28174 -10.27895  -1.19650  -1.14846
 Alpha  occ. eigenvalues --   -1.13561  -1.13310  -1.10726  -1.10661  -1.09586
 Alpha  occ. eigenvalues --   -1.08912  -1.08677  -1.04495  -1.04411  -1.02760
 Alpha  occ. eigenvalues --   -1.00674  -0.99894  -0.99838  -0.98648  -0.96658
 Alpha  occ. eigenvalues --   -0.96527  -0.96274  -0.92091  -0.91408  -0.87265
 Alpha  occ. eigenvalues --   -0.85596  -0.84187  -0.83709  -0.83370  -0.82576
 Alpha  occ. eigenvalues --   -0.81775  -0.79197  -0.76685  -0.74721  -0.74424
 Alpha  occ. eigenvalues --   -0.73794  -0.73611  -0.72337  -0.70489  -0.70083
 Alpha  occ. eigenvalues --   -0.67507  -0.66783  -0.66486  -0.65732  -0.64676
 Alpha  occ. eigenvalues --   -0.63979  -0.63883  -0.62799  -0.62142  -0.61863
 Alpha  occ. eigenvalues --   -0.60312  -0.60086  -0.59954  -0.59742  -0.59246
 Alpha  occ. eigenvalues --   -0.59064  -0.58515  -0.56689  -0.56170  -0.56053
 Alpha  occ. eigenvalues --   -0.55861  -0.55055  -0.54814  -0.54638  -0.54357
 Alpha  occ. eigenvalues --   -0.53804  -0.53649  -0.53321  -0.53139  -0.53094
 Alpha  occ. eigenvalues --   -0.52539  -0.52446  -0.51270  -0.50330  -0.50177
 Alpha  occ. eigenvalues --   -0.49741  -0.49675  -0.49436  -0.49106  -0.48766
 Alpha  occ. eigenvalues --   -0.48633  -0.48424  -0.48294  -0.47783  -0.47519
 Alpha  occ. eigenvalues --   -0.46408  -0.45747  -0.44791  -0.44412  -0.44121
 Alpha  occ. eigenvalues --   -0.40537  -0.40365  -0.39626  -0.37467  -0.37382
 Alpha  occ. eigenvalues --   -0.37352  -0.37155  -0.36582  -0.36157  -0.34582
 Alpha  occ. eigenvalues --   -0.34110  -0.33890  -0.33658  -0.32965  -0.32912
 Alpha  occ. eigenvalues --   -0.32708  -0.32503  -0.32368  -0.31935  -0.30348
 Alpha  occ. eigenvalues --   -0.29901  -0.29627  -0.25687  -0.24981
 Alpha virt. eigenvalues --    0.02523   0.04313   0.07449   0.08178   0.08548
 Alpha virt. eigenvalues --    0.09191   0.09674   0.10861   0.11626   0.11929
 Alpha virt. eigenvalues --    0.12657   0.14457   0.14615   0.14898   0.15221

 Mulliken charges:
               1
     1  N   -0.312790
     2  C    0.181225
     3  C    0.047626
     4  N   -0.258123
     5  C    0.134763
     6  H    0.024562
     7  N   -0.297221
     8  C    0.137736
     9  H    0.007849
    10  N   -0.292847
    11  C    0.249833
    12  C    0.114968
    13  N   -0.053430
    14  H    0.113486
    15  H    0.085069
    16  H    0.023899
    17  H    0.032308
    18  H    0.025155
    19  N   -0.312070
    20  C    0.249442
    21  C    0.180752
    22  N   -0.117603
    23  H    0.113795
    24  H    0.116109
    25  N   -0.310194
    26  C    0.243160
    27  N   -0.147575
    28  H    0.120205
    29  C    0.186820
    30  O   -0.321284
    31  C   -0.007567
    32  N   -0.225943
    33  C    0.132472
    34  H    0.024881
    35  H    0.029603
    36  H    0.028582
    37  H    0.024594
    38  H    0.063417
    39  H    0.058660
    40  H    0.072749
    41  H    0.030538
    42  C   -0.112072
    43  O   -0.264545
    44  C    0.144013
    45  H    0.133692
    46  N   -0.111960
    47  O   -0.342962
    48  C    0.338075
    49  H    0.048699
    50  C    0.161222
    51  C    0.039997
    52  N   -0.278898
    53  H    0.033991
    54  H    0.042760
    55  H    0.025606
    56  H    0.130004
    57  H    0.115245
    58  N   -0.058117
    59  C    0.077328
    60  C    0.246752
    61  N   -0.270511
    62  H    0.039986
    63  C    0.165996
    64  N   -0.305228
    65  H    0.035388
    66  C    0.138197
    67  N   -0.270621
    68  C    0.034228
    69  C    0.178857
    70  N   -0.312733
 Sum of Mulliken charges =  -0.00000

 Dipole moment (field-independent basis, Debye):
    X=              8.8807    Y=              6.0039    Z=              1.1229  Tot=             10.7784
 Quadrupole moment (field-independent basis, Debye-Ang):
   XX=           -156.8462   YY=           -215.4230   ZZ=           -251.0942
   XY=             -2.6122   XZ=              0.5218   YZ=             -3.0539

 Normal termination of Gaussian 16 at Wed Jan 24 15:38:40 2018.
