 Gaussian 16, Revision A.03,
 Gaussian 16:  EM64L-G16RevA.03 25-Dec-2016

 ---------------------------------------
 #p wb97xd/cc-pvdz sp scf=(maxcycles=20)
 ---------------------------------------

 ------------------
 Base pair stacking
 ------------------
 Symbolic Z-matrix:
 Charge =  0 Multiplicity = 1

                         Standard orientation:
 ---------------------------------------------------------------------
 Center     Atomic      Atomic             Coordinates (Angstroms)
 Number     Number       Type             X           Y           Z
 ---------------------------------------------------------------------
      1          7           0       -6.168121   -1.707887    0.783462
      2          6           0       -7.566539   -1.236671    0.803063
      3          6           0       -3.975500   -1.804448    0.926333
      4          7           0       -4.396183   -3.072147    0.551245
      5          6           0       -5.700311   -2.963236    0.480183
      6          1           0       -6.376352   -3.774567    0.208774
      7          7           0       -2.629003    0.036283    1.527664
      8          6           0       -3.763830    0.735867    1.629317
      9          1           0       -3.642912    1.778404    1.920442
     10          7           0       -5.019696    0.342823    1.426287
     11          6           0       -5.056479   -0.952729    1.073252
     12          6           0       -2.699591   -1.264712    1.170556
     13          7           0       -1.567881   -1.964710    1.068553
     14          1           0       -1.572695   -2.930546    0.807107
     15          1           0       -0.677122   -1.547804    1.249897
     16          1           0       -8.090773   -1.771790    1.465635
     17          1           0       -7.590246   -0.271556    1.062124
     18          1           0       -7.970153   -1.346240   -0.105281
     19          7           0       -3.047279    2.924264   -1.624515
     20          6           0       -1.732125    2.542696   -1.511333
     21          6           0       -3.552335    4.303363   -1.470522
     22          7           0        1.596383    3.353113   -0.940359
     23          1           0        2.474844    2.877804   -0.900074
     24          1           0        1.607069    4.340600   -0.780752
     25          7           0       -0.688666    3.356960   -1.242593
     26          6           0        0.454806    2.696659   -1.196819
     27          7           0        0.569771    1.342547   -1.398514
     28          1           0        1.484776    0.922050   -1.344607
     29          6           0       -0.490283    0.485256   -1.676349
     30          8           0       -0.278481   -0.722444   -1.841749
     31          6           0       -1.725292    1.180158   -1.728704
     32          7           0       -3.010310    0.715674   -1.973423
     33          6           0       -3.759029    1.782677   -1.901724
     34          1           0       -4.840281    1.793206   -2.043345
     35          1           0       -4.210046    4.337241   -0.718820
     36          1           0       -2.788284    4.915546   -1.271192
     37          1           0       -3.998284    4.593216   -2.316642
     38          1           0        6.206120   -0.655668   -0.309019
     39          1           0        6.369124   -0.652348   -2.063463
     40          1           0        5.304715    0.512677   -1.275353
     41          1           0        3.931368   -4.748769   -1.412922
     42          6           0        3.749628   -3.674070   -1.427769
     43          8           0        1.397385   -3.888865   -1.646730
     44          6           0        2.407756   -3.192521   -1.551530
     45          1           0        1.356227   -1.439325   -1.645912
     46          7           0        2.289199   -1.817346   -1.559937
     47          8           0        3.099834    0.302510   -1.480610
     48          6           0        3.304188   -0.898589   -1.463895
     49          1           0        5.798837   -3.117391   -1.236318
     50          6           0        4.760546   -2.802571   -1.332193
     51          6           0        5.685780   -0.497174   -1.241860
     52          7           0        4.569125   -1.440405   -1.347402
     53          1           0        4.093639    3.840908    3.263494
     54          1           0        2.895547    3.920593    2.158815
     55          1           0        4.454200    3.975518    1.677517
     56          1           0        1.947713   -3.000964    1.353206
     57          1           0        3.561224   -2.616807    1.752083
     58          7           0        2.629657   -2.301582    1.567605
     59          6           0        2.311936   -1.005917    1.606068
     60          6           0        2.753654    1.313081    1.904144
     61          7           0        1.494517    1.707412    1.652105
     62          1           0       -0.321392    0.888362    1.170201
     63          6           0        0.720594    0.656891    1.386873
     64          7           0        1.036925   -0.641569    1.347860
     65          1           0        5.886539    1.619695    2.641144
     66          6           0        4.892397    1.252750    2.384264
     67          7           0        4.586636   -0.009328    2.207209
     68          6           0        3.233440    0.014880    1.902241
     69          6           0        3.817441    3.578799    2.338821
     70          7           0        3.830863    2.108138    2.216395
 ---------------------------------------------------------------------

 SCF Done:  E(RwB97XD) =  -2048.74607799     A.U. after   15 cycles

 The electronic state is 1-A.
 Alpha  occ. eigenvalues --  -19.25975 -19.22294 -19.20655 -14.52554 -14.52120
 Alpha  occ. eigenvalues --  -14.48756 -14.48456 -14.47915 -14.47789 -14.46941
 Alpha  occ. eigenvalues --  -14.46703 -14.45180 -14.43768 -14.43690 -14.42068
 Alpha  occ. eigenvalues --  -14.41965 -14.41094 -14.40779 -14.40616 -14.39915
 Alpha  occ. eigenvalues --  -10.45585 -10.41210 -10.40354 -10.39450 -10.38235
 Alpha  occ. eigenvalues --  -10.38016 -10.37675 -10.36722 -10.35239 -10.35126
 Alpha  occ. eigenvalues --  -10.35041 -10.34336 -10.33793 -10.33774 -10.33246
 Alpha  occ. eigenvalues --  -10.33033 -10.32812 -10.32203 -10.31340 -10.30895
 Alpha  occ. eigenvalues --  -10.30745 -10.28197 -10.28093  -1.19539  -1.14811
 Alpha  occ. eigenvalues --   -1.13279  -1.13234  -1.11024  -1.10579  -1.09436
 Alpha  occ. eigenvalues --   -1.08818  -1.08566  -1.04694  -1.04369  -1.02601
 Alpha  occ. eigenvalues --   -1.00644  -1.00140  -0.99786  -0.98565  -0.96699
 Alpha  occ. eigenvalues --   -0.96566  -0.96303  -0.92357  -0.91225  -0.87236
 Alpha  occ. eigenvalues --   -0.85639  -0.84094  -0.83644  -0.83602  -0.82491
 Alpha  occ. eigenvalues --   -0.82041  -0.79025  -0.76622  -0.74630  -0.74366
 Alpha  occ. eigenvalues --   -0.73693  -0.73464  -0.72617  -0.70765  -0.70028
 Alpha  occ. eigenvalues --   -0.67403  -0.66641  -0.66409  -0.66022  -0.64535
 Alpha  occ. eigenvalues --   -0.63895  -0.63801  -0.62737  -0.62429  -0.61758
 Alpha  occ. eigenvalues --   -0.60239  -0.60093  -0.59994  -0.59615  -0.59273
 Alpha  occ. eigenvalues --   -0.59108  -0.58407  -0.56670  -0.56299  -0.56111
 Alpha  occ. eigenvalues --   -0.56060  -0.55234  -0.54979  -0.54612  -0.54436
 Alpha  occ. eigenvalues --   -0.53712  -0.53697  -0.53144  -0.53017  -0.52988
 Alpha  occ. eigenvalues --   -0.52414  -0.52391  -0.51516  -0.50450  -0.50208
 Alpha  occ. eigenvalues --   -0.49948  -0.49529  -0.49438  -0.48937  -0.48711
 Alpha  occ. eigenvalues --   -0.48543  -0.48509  -0.48284  -0.47767  -0.47428
 Alpha  occ. eigenvalues --   -0.46667  -0.45658  -0.44711  -0.44425  -0.44045
 Alpha  occ. eigenvalues --   -0.40838  -0.40350  -0.39524  -0.37511  -0.37364
 Alpha  occ. eigenvalues --   -0.37283  -0.36959  -0.36874  -0.35992  -0.34580
 Alpha  occ. eigenvalues --   -0.34037  -0.33644  -0.33402  -0.33199  -0.33078
 Alpha  occ. eigenvalues --   -0.32660  -0.32419  -0.32167  -0.31834  -0.30595
 Alpha  occ. eigenvalues --   -0.30138  -0.29528  -0.25712  -0.25154
 Alpha virt. eigenvalues --    0.02793   0.04454   0.07384   0.08301   0.08491
 Alpha virt. eigenvalues --    0.09205   0.09648   0.10921   0.11381   0.11711
 Alpha virt. eigenvalues --    0.12486   0.14336   0.14459   0.14653   0.15101

 Mulliken charges:
               1
     1  N   -0.312361
     2  C    0.181133
     3  C    0.044172
     4  N   -0.259391
     5  C    0.134427
     6  H    0.025512
     7  N   -0.293603
     8  C    0.137880
     9  H    0.007881
    10  N   -0.292673
    11  C    0.247860
    12  C    0.120025
    13  N   -0.054458
    14  H    0.111053
    15  H    0.086731
    16  H    0.024547
    17  H    0.032617
    18  H    0.025807
    19  N   -0.312093
    20  C    0.248620
    21  C    0.180774
    22  N   -0.107851
    23  H    0.113592
    24  H    0.114371
    25  N   -0.305757
    26  C    0.232000
    27  N   -0.138373
    28  H    0.116997
    29  C    0.170788
    30  O   -0.320138
    31  C    0.002230
    32  N   -0.225952
    33  C    0.131282
    34  H    0.025657
    35  H    0.029787
    36  H    0.028103
    37  H    0.024355
    38  H    0.063485
    39  H    0.057999
    40  H    0.072212
    41  H    0.030705
    42  C   -0.110992
    43  O   -0.265682
    44  C    0.156397
    45  H    0.134193
    46  N   -0.119937
    47  O   -0.344989
    48  C    0.344750
    49  H    0.048594
    50  C    0.165253
    51  C    0.040730
    52  N   -0.285126
    53  H    0.035141
    54  H    0.040468
    55  H    0.024525
    56  H    0.129010
    57  H    0.115158
    58  N   -0.062566
    59  C    0.078293
    60  C    0.237304
    61  N   -0.266535
    62  H    0.039682
    63  C    0.166156
    64  N   -0.301898
    65  H    0.034355
    66  C    0.136899
    67  N   -0.268061
    68  C    0.036560
    69  C    0.175963
    70  N   -0.313597
 Sum of Mulliken charges =  -0.00000

 Dipole moment (field-independent basis, Debye):
    X=              8.5937    Y=              5.7719    Z=              1.8761  Tot=             10.5208
 Quadrupole moment (field-independent basis, Debye-Ang):
   XX=           -154.6679   YY=           -216.1978   ZZ=           -252.7807
   XY=             -1.4015   XZ=              3.5789   YZ=             -6.5057

 Normal termination of Gaussian 16 at Thu Jan 25 01:54:59 2018.
