 Gaussian 16, Revision A.03,
 Gaussian 16:  EM64L-G16RevA.03 25-Dec-2016

 ---------------------------------------
 #p wb97xd/cc-pvdz sp scf=(maxcycles=20)
 ---------------------------------------

 ------------------
 Base pair stacking
 ------------------
 Symbolic Z-matrix:
 Charge =  0 Multiplicity = 1

                         Standard orientation:
 ---------------------------------------------------------------------
 Center     Atomic      Atomic             Coordinates (Angstroms)
 Number     Number       Type             X           Y           Z
 ---------------------------------------------------------------------
      1          7           0       -5.579799   -1.916714    1.184574
      2          6           0       -6.981740   -1.490529    1.360445
      3          6           0       -3.381304   -1.961220    1.140371
      4          7           0       -3.803817   -3.201775    0.685130
      5          6           0       -5.111416   -3.125312    0.729981
      6          1           0       -5.789737   -3.928401    0.440362
      7          7           0       -2.030146   -0.143387    1.798233
      8          6           0       -3.167658    0.510489    2.055314
      9          1           0       -3.045839    1.525645    2.430659
     10          7           0       -4.427140    0.100577    1.918986
     11          6           0       -4.464730   -1.158381    1.452066
     12          6           0       -2.101638   -1.408395    1.329500
     13          7           0       -0.967258   -2.062754    1.072280
     14          1           0       -0.972624   -3.000810    0.724087
     15          1           0       -0.073859   -1.637873    1.218774
     16          1           0       -7.437235   -2.098396    2.010992
     17          1           0       -7.004975   -0.553816    1.708497
     18          1           0       -7.456957   -1.529595    0.481442
     19          7           0       -3.700058    2.971388   -1.349384
     20          6           0       -2.373344    2.613854   -1.354979
     21          6           0       -4.214837    4.338641   -1.134140
     22          7           0        0.976800    3.481320   -1.062041
     23          1           0        1.863927    3.022525   -1.103882
     24          1           0        0.983325    4.466890   -0.890824
     25          7           0       -1.325515    3.444811   -1.166287
     26          6           0       -0.170579    2.806098   -1.227953
     27          7           0       -0.048937    1.456894   -1.456788
     28          1           0        0.874774    1.053447   -1.487478
     29          6           0       -1.113311    0.582709   -1.653674
     30          8           0       -0.894734   -0.618680   -1.852742
     31          6           0       -2.360617    1.254329   -1.590231
     32          7           0       -3.653339    0.768149   -1.729537
     33          6           0       -4.412273    1.819668   -1.579434
     34          1           0       -5.501737    1.811082   -1.627257
     35          1           0       -4.805701    4.351100   -0.328198
     36          1           0       -3.447654    4.963015   -0.993222
     37          1           0       -4.737370    4.629750   -1.934790
     38          1           0        5.695724   -0.445303   -0.883418
     39          1           0        5.706541   -0.418341   -2.645181
     40          1           0        4.693213    0.716727   -1.752904
     41          1           0        3.408715   -4.568153   -1.841666
     42          6           0        3.206926   -3.497039   -1.826509
     43          8           0        0.848842   -3.754398   -1.844920
     44          6           0        1.850863   -3.039939   -1.827834
     45          1           0        0.763510   -1.306279   -1.807976
     46          7           0        1.707114   -1.667289   -1.807703
     47          8           0        2.483020    0.466672   -1.770290
     48          6           0        2.709786   -0.730389   -1.787216
     49          1           0        5.254577   -2.903387   -1.804857
     50          6           0        4.206356   -2.607465   -1.806762
     51          6           0        5.093989   -0.285935   -1.765791
     52          7           0        3.989680   -1.249146   -1.787302
     53          1           0        4.728514    3.685390    3.329019
     54          1           0        3.441290    3.829044    2.336794
     55          1           0        4.952969    3.972966    1.738312
     56          1           0        2.581695   -3.016587    0.975241
     57          1           0        4.213963   -2.622649    1.276233
     58          7           0        3.263604   -2.319619    1.197467
     59          6           0        2.921871   -1.042605    1.380840
     60          6           0        3.335890    1.252069    1.854938
     61          7           0        2.051833    1.630298    1.742879
     62          1           0        0.220546    0.804959    1.335703
     63          6           0        1.281750    0.585651    1.445228
     64          7           0        1.622128   -0.694129    1.261167
     65          1           0        6.511725    1.583019    2.361636
     66          6           0        5.507953    1.211642    2.153138
     67          7           0        5.216266   -0.037779    1.885672
     68          6           0        3.842203   -0.025991    1.694535
     69          6           0        4.382224    3.499683    2.409463
     70          7           0        4.417652    2.047082    2.151188
 ---------------------------------------------------------------------

 SCF Done:  E(RwB97XD) =  -2048.74734500     A.U. after   15 cycles

 The electronic state is 1-A.
 Alpha  occ. eigenvalues --  -19.25867 -19.22260 -19.20606 -14.52501 -14.52353
 Alpha  occ. eigenvalues --  -14.48788 -14.48264 -14.48117 -14.47880 -14.46940
 Alpha  occ. eigenvalues --  -14.46650 -14.45451 -14.44202 -14.44172 -14.42024
 Alpha  occ. eigenvalues --  -14.41810 -14.40853 -14.40729 -14.40388 -14.39804
 Alpha  occ. eigenvalues --  -10.45503 -10.41233 -10.40325 -10.39874 -10.38217
 Alpha  occ. eigenvalues --  -10.38010 -10.37952 -10.37080 -10.35590 -10.34932
 Alpha  occ. eigenvalues --  -10.34927 -10.34325 -10.33834 -10.33442 -10.33306
 Alpha  occ. eigenvalues --  -10.32740 -10.32595 -10.32594 -10.31308 -10.30942
 Alpha  occ. eigenvalues --  -10.30464 -10.28089 -10.27911  -1.19451  -1.15094
 Alpha  occ. eigenvalues --   -1.13239  -1.13195  -1.10690  -1.10583  -1.09421
 Alpha  occ. eigenvalues --   -1.09189  -1.08553  -1.04778  -1.04498  -1.02545
 Alpha  occ. eigenvalues --   -1.00921  -0.99922  -0.99730  -0.98548  -0.96778
 Alpha  occ. eigenvalues --   -0.96592  -0.96318  -0.92180  -0.91221  -0.87519
 Alpha  occ. eigenvalues --   -0.85822  -0.84107  -0.83539  -0.83351  -0.82510
 Alpha  occ. eigenvalues --   -0.81765  -0.79009  -0.76955  -0.74742  -0.74603
 Alpha  occ. eigenvalues --   -0.73652  -0.73413  -0.72378  -0.70532  -0.70337
 Alpha  occ. eigenvalues --   -0.67379  -0.66784  -0.66585  -0.65773  -0.64517
 Alpha  occ. eigenvalues --   -0.64208  -0.63802  -0.62686  -0.62193  -0.61744
 Alpha  occ. eigenvalues --   -0.60505  -0.60162  -0.60118  -0.59596  -0.59313
 Alpha  occ. eigenvalues --   -0.59239  -0.58356  -0.56637  -0.56110  -0.55998
 Alpha  occ. eigenvalues --   -0.55793  -0.55248  -0.54937  -0.54489  -0.54213
 Alpha  occ. eigenvalues --   -0.53713  -0.53679  -0.53448  -0.53203  -0.52988
 Alpha  occ. eigenvalues --   -0.52695  -0.52375  -0.51262  -0.50235  -0.50154
 Alpha  occ. eigenvalues --   -0.49853  -0.49574  -0.49502  -0.49044  -0.48919
 Alpha  occ. eigenvalues --   -0.48452  -0.48377  -0.48302  -0.47686  -0.47375
 Alpha  occ. eigenvalues --   -0.46421  -0.45721  -0.45226  -0.44344  -0.43861
 Alpha  occ. eigenvalues --   -0.40646  -0.40564  -0.39448  -0.37596  -0.37490
 Alpha  occ. eigenvalues --   -0.37289  -0.37223  -0.36586  -0.35982  -0.34731
 Alpha  occ. eigenvalues --   -0.34295  -0.33878  -0.33371  -0.32965  -0.32884
 Alpha  occ. eigenvalues --   -0.32692  -0.32426  -0.32250  -0.31875  -0.30371
 Alpha  occ. eigenvalues --   -0.29980  -0.29852  -0.25603  -0.25038
 Alpha virt. eigenvalues --    0.02615   0.04165   0.07189   0.08291   0.08537
 Alpha virt. eigenvalues --    0.09300   0.09788   0.10571   0.11563   0.11767
 Alpha virt. eigenvalues --    0.12680   0.14457   0.14537   0.14944   0.15131

 Mulliken charges:
               1
     1  N   -0.313180
     2  C    0.181601
     3  C    0.049352
     4  N   -0.258239
     5  C    0.136970
     6  H    0.024921
     7  N   -0.298529
     8  C    0.136910
     9  H    0.008310
    10  N   -0.290803
    11  C    0.255586
    12  C    0.111126
    13  N   -0.056781
    14  H    0.113334
    15  H    0.082383
    16  H    0.023371
    17  H    0.031675
    18  H    0.026101
    19  N   -0.311492
    20  C    0.249655
    21  C    0.180663
    22  N   -0.114731
    23  H    0.113136
    24  H    0.115656
    25  N   -0.310235
    26  C    0.241004
    27  N   -0.149430
    28  H    0.123216
    29  C    0.191026
    30  O   -0.321886
    31  C   -0.011827
    32  N   -0.225907
    33  C    0.132440
    34  H    0.022764
    35  H    0.029374
    36  H    0.028643
    37  H    0.024339
    38  H    0.061619
    39  H    0.059174
    40  H    0.072318
    41  H    0.029433
    42  C   -0.117666
    43  O   -0.264695
    44  C    0.159037
    45  H    0.132072
    46  N   -0.115830
    47  O   -0.342256
    48  C    0.335313
    49  H    0.046239
    50  C    0.162916
    51  C    0.038751
    52  N   -0.277798
    53  H    0.034630
    54  H    0.041463
    55  H    0.027309
    56  H    0.125993
    57  H    0.114687
    58  N   -0.055288
    59  C    0.082208
    60  C    0.250462
    61  N   -0.273280
    62  H    0.040603
    63  C    0.165270
    64  N   -0.306149
    65  H    0.037200
    66  C    0.138736
    67  N   -0.270076
    68  C    0.031045
    69  C    0.179016
    70  N   -0.312973
 Sum of Mulliken charges =  -0.00000

 Dipole moment (field-independent basis, Debye):
    X=              8.7670    Y=              6.0958    Z=              1.2226  Tot=             10.7477
 Quadrupole moment (field-independent basis, Debye-Ang):
   XX=           -158.6444   YY=           -215.2406   ZZ=           -252.0960
   XY=             -2.9780   XZ=             -3.5604   YZ=             -3.9865

 Normal termination of Gaussian 16 at Wed Jan 24 11:48:38 2018.
