 Gaussian 16, Revision A.03,
 Gaussian 16:  EM64L-G16RevA.03 25-Dec-2016

 ---------------------------------------
 #p wb97xd/cc-pvdz sp scf=(maxcycles=20)
 ---------------------------------------

 ------------------
 Base pair stacking
 ------------------
 Symbolic Z-matrix:
 Charge =  0 Multiplicity = 1

                         Standard orientation:
 ---------------------------------------------------------------------
 Center     Atomic      Atomic             Coordinates (Angstroms)
 Number     Number       Type             X           Y           Z
 ---------------------------------------------------------------------
      1          7           0       -7.216324   -1.510055    0.064377
      2          6           0       -8.606413   -1.023676   -0.030982
      3          6           0       -5.044566   -1.631160    0.390131
      4          7           0       -5.445621   -2.892614   -0.025325
      5          6           0       -6.737971   -2.769166   -0.204952
      6          1           0       -7.397358   -3.571928   -0.536194
      7          7           0       -3.733951    0.192240    1.111571
      8          6           0       -4.865872    0.903743    1.121223
      9          1           0       -4.758831    1.943683    1.426740
     10          7           0       -6.104348    0.525294    0.811614
     11          6           0       -6.125018   -0.768298    0.450188
     12          6           0       -3.788027   -1.106403    0.743223
     13          7           0       -2.659192   -1.818297    0.732944
     14          1           0       -2.652234   -2.782926    0.467141
     15          1           0       -1.782446   -1.411907    0.990454
     16          1           0       -9.190006   -1.555783    0.582582
     17          1           0       -8.641599   -0.059438    0.230047
     18          1           0       -8.933518   -1.125045   -0.970510
     19          7           0       -1.814697    2.850025   -1.847370
     20          6           0       -0.523202    2.449629   -1.602839
     21          6           0       -2.292299    4.247317   -1.834012
     22          7           0        2.771842    3.228209   -0.829412
     23          1           0        3.631216    2.738363   -0.685259
     24          1           0        2.797094    4.224359   -0.741222
     25          7           0        0.518105    3.258895   -1.311629
     26          6           0        1.636104    2.579313   -1.127610
     27          7           0        1.729327    1.211808   -1.221173
     28          1           0        2.625554    0.776827   -1.064546
     29          6           0        0.671004    0.359317   -1.519646
     30          8           0        0.861915   -0.861604   -1.580010
     31          6           0       -0.536763    1.074898   -1.719977
     32          7           0       -1.811123    0.621352   -2.031759
     33          6           0       -2.533707    1.706630   -2.097022
     34          1           0       -3.600013    1.729938   -2.324434
     35          1           0       -3.005200    4.351032   -1.141324
     36          1           0       -1.529584    4.855974   -1.619388
     37          1           0       -2.663147    4.483153   -2.731594
     38          1           0        7.207397   -0.821163    0.453963
     39          1           0        7.506107   -0.951498   -1.277635
     40          1           0        6.415977    0.291447   -0.662783
     41          1           0        4.914191   -4.934869   -0.528481
     42          6           0        4.763581   -3.860561   -0.635319
     43          8           0        2.430449   -4.040238   -1.024281
     44          6           0        3.449026   -3.360700   -0.899713
     45          1           0        2.456298   -1.597070   -1.203701
     46          7           0        3.369099   -1.987699   -1.016837
     47          8           0        4.228763    0.114229   -1.026751
     48          6           0        4.398300   -1.086443   -0.907132
     49          1           0        6.806195   -3.335522   -0.322470
     50          6           0        5.787476   -3.006375   -0.522983
     51          6           0        6.765555   -0.721112   -0.526256
     52          7           0        5.635098   -1.645275   -0.651712
     53          1           0        2.859051    3.915946    3.424270
     54          1           0        1.758778    4.013305    2.223437
     55          1           0        3.352815    4.053203    1.874831
     56          1           0        0.809004   -2.894080    1.306171
     57          1           0        2.387317   -2.529229    1.840890
     58          7           0        1.477880   -2.203083    1.580546
     59          6           0        1.171734   -0.904194    1.598776
     60          6           0        1.611287    1.408586    1.944577
     61          7           0        0.381975    1.817688    1.589825
     62          1           0       -1.395627    1.020532    0.953201
     63          6           0       -0.377991    0.776794    1.255318
     64          7           0       -0.073209   -0.524867    1.236404
     65          1           0        4.674335    1.677879    2.943242
     66          6           0        3.701452    1.322894    2.602059
     67          7           0        3.398334    0.064980    2.393600
     68          6           0        2.075836    0.105233    1.976347
     69          6           0        2.658662    3.660714    2.478391
     70          7           0        2.666814    2.190517    2.350078
 ---------------------------------------------------------------------

 SCF Done:  E(RwB97XD) =  -2048.74381851     A.U. after   15 cycles

 The electronic state is 1-A.
 Alpha  occ. eigenvalues --  -19.26091 -19.22491 -19.20998 -14.52725 -14.51029
 Alpha  occ. eigenvalues --  -14.49022 -14.48984 -14.48227 -14.47631 -14.47375
 Alpha  occ. eigenvalues --  -14.46211 -14.44061 -14.42455 -14.42434 -14.42388
 Alpha  occ. eigenvalues --  -14.42219 -14.41676 -14.41065 -14.41014 -14.40294
 Alpha  occ. eigenvalues --  -10.45767 -10.41728 -10.40565 -10.38629 -10.38128
 Alpha  occ. eigenvalues --  -10.38102 -10.36597 -10.35554 -10.35538 -10.35534
 Alpha  occ. eigenvalues --  -10.34621 -10.34326 -10.34021 -10.33583 -10.33505
 Alpha  occ. eigenvalues --  -10.33249 -10.32834 -10.31408 -10.31106 -10.31038
 Alpha  occ. eigenvalues --  -10.31000 -10.28761 -10.28458  -1.19681  -1.13823
 Alpha  occ. eigenvalues --   -1.13515  -1.13476  -1.11577  -1.10888  -1.09619
 Alpha  occ. eigenvalues --   -1.09112  -1.07422  -1.05137  -1.03035  -1.02834
 Alpha  occ. eigenvalues --   -1.00558  -1.00490  -0.99452  -0.98896  -0.97153
 Alpha  occ. eigenvalues --   -0.96843  -0.95012  -0.92770  -0.91367  -0.86119
 Alpha  occ. eigenvalues --   -0.84554  -0.84423  -0.84135  -0.83953  -0.82754
 Alpha  occ. eigenvalues --   -0.82497  -0.79198  -0.75410  -0.74978  -0.74196
 Alpha  occ. eigenvalues --   -0.73699  -0.73113  -0.73063  -0.71231  -0.68791
 Alpha  occ. eigenvalues --   -0.67888  -0.66874  -0.66458  -0.65152  -0.64777
 Alpha  occ. eigenvalues --   -0.64080  -0.63046  -0.62908  -0.62536  -0.62307
 Alpha  occ. eigenvalues --   -0.60317  -0.59834  -0.59824  -0.59081  -0.58970
 Alpha  occ. eigenvalues --   -0.58764  -0.58075  -0.56861  -0.56616  -0.56570
 Alpha  occ. eigenvalues --   -0.56267  -0.55495  -0.54729  -0.54651  -0.53976
 Alpha  occ. eigenvalues --   -0.53869  -0.53629  -0.53261  -0.52739  -0.52386
 Alpha  occ. eigenvalues --   -0.52079  -0.51840  -0.51325  -0.50916  -0.50488
 Alpha  occ. eigenvalues --   -0.50334  -0.49747  -0.49254  -0.49182  -0.48899
 Alpha  occ. eigenvalues --   -0.48567  -0.48509  -0.48078  -0.47775  -0.47466
 Alpha  occ. eigenvalues --   -0.47125  -0.45329  -0.45255  -0.44369  -0.43095
 Alpha  occ. eigenvalues --   -0.41342  -0.39708  -0.39237  -0.37736  -0.37587
 Alpha  occ. eigenvalues --   -0.37353  -0.36515  -0.35942  -0.35802  -0.35103
 Alpha  occ. eigenvalues --   -0.33725  -0.33685  -0.33641  -0.33070  -0.32993
 Alpha  occ. eigenvalues --   -0.32489  -0.32303  -0.32279  -0.32140  -0.31150
 Alpha  occ. eigenvalues --   -0.30488  -0.28293  -0.25954  -0.25795
 Alpha virt. eigenvalues --    0.02730   0.05571   0.07790   0.08098   0.08396
 Alpha virt. eigenvalues --    0.09176   0.09396   0.10823   0.11473   0.12382
 Alpha virt. eigenvalues --    0.12800   0.13841   0.14366   0.14779   0.15377

 Mulliken charges:
               1
     1  N   -0.310748
     2  C    0.180968
     3  C    0.028708
     4  N   -0.258590
     5  C    0.133291
     6  H    0.027096
     7  N   -0.290242
     8  C    0.129804
     9  H    0.010275
    10  N   -0.288915
    11  C    0.240761
    12  C    0.121650
    13  N   -0.053061
    14  H    0.108444
    15  H    0.089629
    16  H    0.025913
    17  H    0.035247
    18  H    0.025894
    19  N   -0.309283
    20  C    0.252714
    21  C    0.182417
    22  N   -0.116784
    23  H    0.116166
    24  H    0.118641
    25  N   -0.293441
    26  C    0.219268
    27  N   -0.123196
    28  H    0.119740
    29  C    0.166479
    30  O   -0.321820
    31  C   -0.016915
    32  N   -0.217917
    33  C    0.130719
    34  H    0.031612
    35  H    0.030599
    36  H    0.027832
    37  H    0.025079
    38  H    0.061956
    39  H    0.060408
    40  H    0.073767
    41  H    0.032625
    42  C   -0.110367
    43  O   -0.271291
    44  C    0.163081
    45  H    0.135469
    46  N   -0.135386
    47  O   -0.351866
    48  C    0.366447
    49  H    0.049597
    50  C    0.175789
    51  C    0.042755
    52  N   -0.297524
    53  H    0.031175
    54  H    0.045235
    55  H    0.003613
    56  H    0.124938
    57  H    0.114150
    58  N   -0.053432
    59  C    0.099759
    60  C    0.233865
    61  N   -0.261040
    62  H    0.040278
    63  C    0.158734
    64  N   -0.297335
    65  H    0.025934
    66  C    0.125582
    67  N   -0.266711
    68  C    0.025310
    69  C    0.181004
    70  N   -0.304553
 Sum of Mulliken charges =  -0.00000

 Dipole moment (field-independent basis, Debye):
    X=              8.4282    Y=              5.4062    Z=              1.6900  Tot=             10.1546
 Quadrupole moment (field-independent basis, Debye-Ang):
   XX=           -145.3602   YY=           -217.7807   ZZ=           -249.5957
   XY=              3.1546   XZ=             14.3628   YZ=             -7.2586

 Normal termination of Gaussian 16 at Wed Jan 24 14:39:45 2018.
