 Gaussian 16, Revision A.03,
 Gaussian 16:  EM64L-G16RevA.03 25-Dec-2016

 ---------------------------------------
 #p wb97xd/cc-pvdz sp scf=(maxcycles=20)
 ---------------------------------------

 ------------------
 Base pair stacking
 ------------------
 Symbolic Z-matrix:
 Charge =  0 Multiplicity = 1

                         Standard orientation:
 ---------------------------------------------------------------------
 Center     Atomic      Atomic             Coordinates (Angstroms)
 Number     Number       Type             X           Y           Z
 ---------------------------------------------------------------------
      1          7           0       -6.374110   -1.610766    0.649978
      2          6           0       -7.756304   -1.128166    0.463877
      3          6           0       -4.197912   -1.702324    0.955079
      4          7           0       -4.633490   -3.016758    0.869895
      5          6           0       -5.927137   -2.908984    0.689488
      6          1           0       -6.609924   -3.751793    0.577989
      7          7           0       -2.834819    0.209096    1.181820
      8          6           0       -3.952037    0.929202    1.037369
      9          1           0       -3.817313    2.009309    1.075912
     10          7           0       -5.204791    0.517339    0.853319
     11          6           0       -5.259506   -0.824448    0.821326
     12          6           0       -2.923188   -1.138458    1.144978
     13          7           0       -1.809079   -1.859009    1.288988
     14          1           0       -1.827422   -2.859237    1.268300
     15          1           0       -0.918589   -1.423841    1.422383
     16          1           0       -8.335227   -1.478837    1.200123
     17          1           0       -7.766305   -0.128792    0.480555
     18          1           0       -8.107905   -1.448695   -0.415689
     19          7           0       -2.852616    2.731238   -1.615586
     20          6           0       -1.543359    2.361172   -1.423366
     21          6           0       -3.395099    4.089072   -1.408931
     22          7           0        1.713001    3.176427   -0.532749
     23          1           0        2.594625    2.711807   -0.454512
     24          1           0        1.691740    4.150456   -0.305779
     25          7           0       -0.540564    3.169292   -1.016693
     26          6           0        0.608362    2.523487   -0.924331
     27          7           0        0.765341    1.188433   -1.208065
     28          1           0        1.681242    0.778049   -1.109609
     29          6           0       -0.252430    0.337789   -1.628057
     30          8           0       -0.004669   -0.852380   -1.857927
     31          6           0       -1.492741    1.017287   -1.731961
     32          7           0       -2.745024    0.553010   -2.110301
     33          6           0       -3.517743    1.601850   -2.026368
     34          1           0       -4.584380    1.607077   -2.253377
     35          1           0       -4.110830    4.061351   -0.711965
     36          1           0       -2.661337    4.696539   -1.107522
     37          1           0       -3.778188    4.430818   -2.266399
     38          1           0        6.335598   -0.801637    0.192011
     39          1           0        6.636978   -0.673952   -1.539321
     40          1           0        5.490947    0.418389   -0.761653
     41          1           0        4.235770   -4.839455   -1.367901
     42          6           0        4.034833   -3.768974   -1.323928
     43          8           0        1.711967   -4.000930   -1.745388
     44          6           0        2.697843   -3.298819   -1.521994
     45          1           0        1.623070   -1.558203   -1.580721
     46          7           0        2.553500   -1.928186   -1.446033
     47          8           0        3.313782    0.192155   -1.157326
     48          6           0        3.539566   -1.004215   -1.206252
     49          1           0        6.051180   -3.198327   -0.930849
     50          6           0        5.017802   -2.892166   -1.088158
     51          6           0        5.887793   -0.585910   -0.766638
     52          7           0        4.801631   -1.535055   -1.025710
     53          1           0        3.883704    4.220910    2.385579
     54          1           0        2.756886    4.048149    1.218296
     55          1           0        4.342524    3.961609    0.841015
     56          1           0        1.650213   -2.847374    2.044433
     57          1           0        3.247809   -2.401940    2.443669
     58          7           0        2.338913   -2.127068    2.128099
     59          6           0        2.058785   -0.856169    1.832270
     60          6           0        2.551744    1.459093    1.590878
     61          7           0        1.322476    1.799178    1.169386
     62          1           0       -0.485234    0.914753    0.781323
     63          6           0        0.534427    0.727288    1.115111
     64          7           0        0.813125   -0.546427    1.410994
     65          1           0        5.642694    1.888732    2.435639
     66          6           0        4.655091    1.485253    2.210287
     67          7           0        4.322474    0.222585    2.323022
     68          6           0        2.991325    0.192197    1.933335
     69          6           0        3.655595    3.746558    1.535313
     70          7           0        3.631857    2.290055    1.772100
 ---------------------------------------------------------------------

 SCF Done:  E(RwB97XD) =  -2048.67460980     A.U. after   15 cycles

 The electronic state is 1-A.
 Alpha  occ. eigenvalues --  -19.25898 -19.21930 -19.20689 -14.52391 -14.52348
 Alpha  occ. eigenvalues --  -14.48858 -14.48762 -14.47857 -14.47729 -14.46676
 Alpha  occ. eigenvalues --  -14.45715 -14.45194 -14.43574 -14.42481 -14.42335
 Alpha  occ. eigenvalues --  -14.42207 -14.41539 -14.41046 -14.40714 -14.40269
 Alpha  occ. eigenvalues --  -10.45480 -10.40910 -10.40057 -10.39297 -10.38190
 Alpha  occ. eigenvalues --  -10.37772 -10.37698 -10.36626 -10.35581 -10.35081
 Alpha  occ. eigenvalues --  -10.34989 -10.34358 -10.34340 -10.34202 -10.33472
 Alpha  occ. eigenvalues --  -10.33241 -10.33195 -10.31977 -10.31100 -10.31042
 Alpha  occ. eigenvalues --  -10.30899 -10.28651 -10.28116  -1.19464  -1.15034
 Alpha  occ. eigenvalues --   -1.13434  -1.12967  -1.11446  -1.10623  -1.09299
 Alpha  occ. eigenvalues --   -1.09124  -1.08384  -1.05118  -1.04275  -1.02460
 Alpha  occ. eigenvalues --   -1.01004  -1.00613  -0.99789  -0.98654  -0.97100
 Alpha  occ. eigenvalues --   -0.96623  -0.96177  -0.92786  -0.91009  -0.87427
 Alpha  occ. eigenvalues --   -0.86059  -0.84107  -0.84042  -0.83498  -0.82524
 Alpha  occ. eigenvalues --   -0.82428  -0.78846  -0.76774  -0.74790  -0.74663
 Alpha  occ. eigenvalues --   -0.73607  -0.73321  -0.73051  -0.71208  -0.70241
 Alpha  occ. eigenvalues --   -0.67477  -0.66654  -0.66478  -0.66437  -0.64441
 Alpha  occ. eigenvalues --   -0.64185  -0.63752  -0.62969  -0.62872  -0.62054
 Alpha  occ. eigenvalues --   -0.60537  -0.60432  -0.60234  -0.59517  -0.59474
 Alpha  occ. eigenvalues --   -0.59264  -0.58158  -0.57327  -0.56594  -0.56451
 Alpha  occ. eigenvalues --   -0.56036  -0.55908  -0.55558  -0.54975  -0.54287
 Alpha  occ. eigenvalues --   -0.54032  -0.53597  -0.53076  -0.52970  -0.52789
 Alpha  occ. eigenvalues --   -0.52326  -0.52195  -0.51866  -0.50898  -0.50327
 Alpha  occ. eigenvalues --   -0.50147  -0.49441  -0.49377  -0.48860  -0.48778
 Alpha  occ. eigenvalues --   -0.48743  -0.48294  -0.48242  -0.48128  -0.47397
 Alpha  occ. eigenvalues --   -0.47038  -0.46212  -0.45126  -0.43882  -0.43386
 Alpha  occ. eigenvalues --   -0.41312  -0.40590  -0.39482  -0.37836  -0.37550
 Alpha  occ. eigenvalues --   -0.37328  -0.37299  -0.36555  -0.35928  -0.34710
 Alpha  occ. eigenvalues --   -0.34239  -0.33697  -0.33558  -0.33122  -0.32663
 Alpha  occ. eigenvalues --   -0.32464  -0.31918  -0.31834  -0.30938  -0.30704
 Alpha  occ. eigenvalues --   -0.30252  -0.28689  -0.26051  -0.25079
 Alpha virt. eigenvalues --    0.03113   0.04395   0.07432   0.07852   0.08537
 Alpha virt. eigenvalues --    0.09224   0.09383   0.10824   0.11304   0.11925
 Alpha virt. eigenvalues --    0.12688   0.13983   0.14143   0.14576   0.14834

 Mulliken charges:
               1
     1  N   -0.312731
     2  C    0.181160
     3  C    0.039487
     4  N   -0.260849
     5  C    0.134994
     6  H    0.026892
     7  N   -0.287683
     8  C    0.140337
     9  H    0.006417
    10  N   -0.292084
    11  C    0.248839
    12  C    0.122121
    13  N   -0.057865
    14  H    0.107717
    15  H    0.086367
    16  H    0.025230
    17  H    0.032819
    18  H    0.027163
    19  N   -0.306113
    20  C    0.236083
    21  C    0.180257
    22  N   -0.076189
    23  H    0.109365
    24  H    0.112307
    25  N   -0.286328
    26  C    0.201468
    27  N   -0.118620
    28  H    0.119349
    29  C    0.141329
    30  O   -0.316608
    31  C    0.027587
    32  N   -0.222122
    33  C    0.121463
    34  H    0.026525
    35  H    0.029172
    36  H    0.027730
    37  H    0.024811
    38  H    0.063012
    39  H    0.057537
    40  H    0.072494
    41  H    0.031249
    42  C   -0.112551
    43  O   -0.263835
    44  C    0.175503
    45  H    0.133296
    46  N   -0.131735
    47  O   -0.346106
    48  C    0.354972
    49  H    0.047551
    50  C    0.169215
    51  C    0.041169
    52  N   -0.291422
    53  H    0.039264
    54  H    0.022917
    55  H    0.031470
    56  H    0.122051
    57  H    0.115340
    58  N   -0.068488
    59  C    0.089166
    60  C    0.235212
    61  N   -0.292138
    62  H    0.041878
    63  C    0.178983
    64  N   -0.302186
    65  H    0.033229
    66  C    0.132921
    67  N   -0.262790
    68  C    0.035974
    69  C    0.165492
    70  N   -0.318441
 Sum of Mulliken charges =  -0.00000

 Dipole moment (field-independent basis, Debye):
    X=              7.8256    Y=              5.5106    Z=              3.1458  Tot=             10.0748
 Quadrupole moment (field-independent basis, Debye-Ang):
   XX=           -152.8883   YY=           -218.7996   ZZ=           -255.3473
   XY=             -0.1320   XZ=              5.7743   YZ=            -11.3026

 Normal termination of Gaussian 16 at Wed Jan 24 16:37:00 2018.
