 Gaussian 16, Revision A.03,
 Gaussian 16:  EM64L-G16RevA.03 25-Dec-2016

 ---------------------------------------
 #p wb97xd/cc-pvdz sp scf=(maxcycles=20)
 ---------------------------------------

 ------------------
 Base pair stacking
 ------------------
 Symbolic Z-matrix:
 Charge =  0 Multiplicity = 1

                         Standard orientation:
 ---------------------------------------------------------------------
 Center     Atomic      Atomic             Coordinates (Angstroms)
 Number     Number       Type             X           Y           Z
 ---------------------------------------------------------------------
      1          7           0        4.592006   -1.914232   -1.721669
      2          6           0        6.001777   -1.489494   -1.822497
      3          6           0        2.396241   -1.915804   -1.595511
      4          7           0        2.788210   -3.246035   -1.555761
      5          6           0        4.095381   -3.191849   -1.633353
      6          1           0        4.753225   -4.061433   -1.630430
      7          7           0        1.091118    0.048704   -1.612517
      8          6           0        2.242379    0.721495   -1.710115
      9          1           0        2.145168    1.805367   -1.755267
     10          7           0        3.489829    0.258603   -1.760074
     11          6           0        3.497095   -1.083220   -1.697691
     12          6           0        1.132074   -1.300265   -1.551735
     13          7           0       -0.016083   -1.973623   -1.454286
     14          1           0       -0.033276   -2.972944   -1.406527
     15          1           0       -0.897718   -1.502412   -1.425723
     16          1           0        6.411579   -1.882277   -2.645880
     17          1           0        6.047485   -0.492203   -1.871800
     18          1           0        6.505517   -1.805224   -1.018403
     19          7           0        4.720886    2.644968    0.839771
     20          6           0        3.385816    2.329240    0.916959
     21          6           0        5.265365    3.972260    0.489712
     22          7           0        0.052735    3.268058    0.650571
     23          1           0       -0.844710    2.841464    0.759438
     24          1           0        0.067444    4.234757    0.393679
     25          7           0        2.355370    3.171698    0.687818
     26          6           0        1.186122    2.575711    0.840330
     27          7           0        1.035346    1.255783    1.190433
     28          1           0        0.102494    0.884428    1.284435
     29          6           0        2.081407    0.370498    1.431034
     30          8           0        1.836838   -0.801928    1.741448
     31          6           0        3.343793    0.996332    1.271054
     32          7           0        4.626657    0.485543    1.413310
     33          6           0        5.408632    1.496772    1.148456
     34          1           0        6.498430    1.459699    1.163810
     35          1           0        5.829587    3.896847   -0.331737
     36          1           0        4.511261    4.604741    0.317772
     37          1           0        5.821623    4.316089    1.245473
     38          1           0       -4.774714   -0.515867    0.960768
     39          1           0       -4.726972   -0.335474    2.712863
     40          1           0       -3.712933    0.686781    1.693999
     41          1           0       -2.570626   -4.606506    2.207890
     42          6           0       -2.340343   -3.547312    2.092564
     43          8           0        0.009187   -3.872716    2.062045
     44          6           0       -0.973027   -3.132712    2.012615
     45          1           0        0.159904   -1.440752    1.807540
     46          7           0       -0.792682   -1.771943    1.867596
     47          8           0       -1.510988    0.372989    1.666316
     48          6           0       -1.769603   -0.810721    1.795238
     49          1           0       -4.370679   -2.896615    2.080879
     50          6           0       -3.315285   -2.633242    2.025003
     51          6           0       -4.140233   -0.298489    1.807086
     52          7           0       -3.062449   -1.288869    1.879696
     53          1           0       -5.570610    4.326994   -1.613003
     54          1           0       -4.245209    4.130914   -0.681886
     55          1           0       -5.728800    4.123644   -0.001465
     56          1           0       -3.592326   -2.824050   -1.492782
     57          1           0       -5.218415   -2.317201   -1.587906
     58          7           0       -4.255333   -2.075919   -1.463466
     59          6           0       -3.873232   -0.812329   -1.267225
     60          6           0       -4.218421    1.527474   -1.006685
     61          7           0       -2.918142    1.822058   -0.842611
     62          1           0       -1.105541    0.867153   -0.785609
     63          6           0       -2.177301    0.717682   -0.909120
     64          7           0       -2.558121   -0.548785   -1.105604
     65          1           0       -7.395557    2.074856   -1.248250
     66          6           0       -6.399555    1.633068   -1.206497
     67          7           0       -6.145102    0.354607   -1.342421
     68          6           0       -4.765728    0.273915   -1.217814
     69          6           0       -5.199639    3.862460   -0.808891
     70          7           0       -5.279706    2.401334   -1.000476
 ---------------------------------------------------------------------

 SCF Done:  E(RwB97XD) =  -2048.74480706     A.U. after   15 cycles

 The electronic state is 1-A.
 Alpha  occ. eigenvalues --  -19.25178 -19.21297 -19.20390 -14.52779 -14.51804
 Alpha  occ. eigenvalues --  -14.49221 -14.48693 -14.48273 -14.47170 -14.46460
 Alpha  occ. eigenvalues --  -14.46209 -14.45709 -14.45054 -14.45002 -14.43038
 Alpha  occ. eigenvalues --  -14.41859 -14.41019 -14.40872 -14.40854 -14.40485
 Alpha  occ. eigenvalues --  -10.44785 -10.40927 -10.40707 -10.39433 -10.38267
 Alpha  occ. eigenvalues --  -10.37955 -10.37677 -10.37330 -10.36542 -10.35703
 Alpha  occ. eigenvalues --  -10.34238 -10.34148 -10.34130 -10.33731 -10.33348
 Alpha  occ. eigenvalues --  -10.33110 -10.33091 -10.32939 -10.30907 -10.30644
 Alpha  occ. eigenvalues --  -10.30261 -10.28412 -10.27903  -1.18848  -1.15567
 Alpha  occ. eigenvalues --   -1.12949  -1.12333  -1.10943  -1.10427  -1.10056
 Alpha  occ. eigenvalues --   -1.08707  -1.08281  -1.05569  -1.05204  -1.01800
 Alpha  occ. eigenvalues --   -1.01354  -1.00701  -0.99366  -0.98326  -0.97584
 Alpha  occ. eigenvalues --   -0.96652  -0.96474  -0.92887  -0.90532  -0.88129
 Alpha  occ. eigenvalues --   -0.86282  -0.83983  -0.83628  -0.82960  -0.82391
 Alpha  occ. eigenvalues --   -0.81940  -0.78304  -0.77606  -0.75462  -0.74433
 Alpha  occ. eigenvalues --   -0.73310  -0.72929  -0.72730  -0.71073  -0.70929
 Alpha  occ. eigenvalues --   -0.67460  -0.67073  -0.66323  -0.65962  -0.64819
 Alpha  occ. eigenvalues --   -0.64135  -0.63432  -0.62787  -0.62424  -0.61482
 Alpha  occ. eigenvalues --   -0.61093  -0.60775  -0.60458  -0.59885  -0.59189
 Alpha  occ. eigenvalues --   -0.58961  -0.57975  -0.56858  -0.56435  -0.55852
 Alpha  occ. eigenvalues --   -0.55709  -0.55625  -0.55581  -0.54932  -0.54126
 Alpha  occ. eigenvalues --   -0.53842  -0.53615  -0.53258  -0.53214  -0.52766
 Alpha  occ. eigenvalues --   -0.52250  -0.51877  -0.51442  -0.50476  -0.50400
 Alpha  occ. eigenvalues --   -0.49982  -0.49864  -0.49710  -0.48966  -0.48868
 Alpha  occ. eigenvalues --   -0.48574  -0.47974  -0.47810  -0.47624  -0.46994
 Alpha  occ. eigenvalues --   -0.46778  -0.45670  -0.45196  -0.44376  -0.43390
 Alpha  occ. eigenvalues --   -0.41282  -0.41209  -0.38955  -0.38202  -0.38163
 Alpha  occ. eigenvalues --   -0.37424  -0.37118  -0.36681  -0.35427  -0.35179
 Alpha  occ. eigenvalues --   -0.35081  -0.34078  -0.33406  -0.33205  -0.32723
 Alpha  occ. eigenvalues --   -0.32361  -0.32341  -0.31711  -0.31312  -0.30628
 Alpha  occ. eigenvalues --   -0.30517  -0.30279  -0.26253  -0.24901
 Alpha virt. eigenvalues --    0.03322   0.03797   0.06343   0.07947   0.09105
 Alpha virt. eigenvalues --    0.09437   0.09875   0.10180   0.10863   0.11625
 Alpha virt. eigenvalues --    0.13330   0.14373   0.14610   0.14698   0.15077

 Mulliken charges:
               1
     1  N   -0.312310
     2  C    0.184941
     3  C    0.060489
     4  N   -0.262714
     5  C    0.143809
     6  H    0.027515
     7  N   -0.285831
     8  C    0.118330
     9  H    0.018218
    10  N   -0.271223
    11  C    0.259442
    12  C    0.085381
    13  N   -0.068815
    14  H    0.109960
    15  H    0.080887
    16  H    0.020229
    17  H    0.030391
    18  H    0.032297
    19  N   -0.307618
    20  C    0.245909
    21  C    0.181387
    22  N   -0.111575
    23  H    0.116379
    24  H    0.115396
    25  N   -0.303157
    26  C    0.219753
    27  N   -0.117081
    28  H    0.112572
    29  C    0.166335
    30  O   -0.320289
    31  C    0.004512
    32  N   -0.230813
    33  C    0.122315
    34  H    0.020345
    35  H    0.027198
    36  H    0.028887
    37  H    0.023971
    38  H    0.066043
    39  H    0.056654
    40  H    0.077742
    41  H    0.027903
    42  C   -0.116138
    43  O   -0.261270
    44  C    0.176840
    45  H    0.134652
    46  N   -0.128473
    47  O   -0.344478
    48  C    0.353211
    49  H    0.042408
    50  C    0.164072
    51  C    0.034071
    52  N   -0.278997
    53  H    0.034931
    54  H    0.037328
    55  H    0.031687
    56  H    0.118963
    57  H    0.120396
    58  N   -0.061650
    59  C    0.068271
    60  C    0.246851
    61  N   -0.278441
    62  H    0.011300
    63  C    0.199562
    64  N   -0.309244
    65  H    0.040280
    66  C    0.138967
    67  N   -0.256481
    68  C    0.018276
    69  C    0.181438
    70  N   -0.312098
 Sum of Mulliken charges =  -0.00000

 Dipole moment (field-independent basis, Debye):
    X=             -8.5060    Y=              6.0974    Z=             -1.9506  Tot=             10.6459
 Quadrupole moment (field-independent basis, Debye-Ang):
   XX=           -165.9261   YY=           -216.7228   ZZ=           -253.4487
   XY=              6.6746   XZ=            -16.1472   YZ=             10.2907

 Normal termination of Gaussian 16 at Wed Jan 24 18:20:42 2018.
