 Gaussian 16, Revision A.03,
 Gaussian 16:  EM64L-G16RevA.03 25-Dec-2016

 ---------------------------------------
 #p wb97xd/cc-pvdz sp scf=(maxcycles=20)
 ---------------------------------------

 ------------------
 Base pair stacking
 ------------------
 Symbolic Z-matrix:
 Charge =  0 Multiplicity = 1

                         Standard orientation:
 ---------------------------------------------------------------------
 Center     Atomic      Atomic             Coordinates (Angstroms)
 Number     Number       Type             X           Y           Z
 ---------------------------------------------------------------------
      1          7           0       -6.472515   -1.655139    0.530905
      2          6           0       -7.872522   -1.191005    0.581724
      3          6           0       -4.281927   -1.763713    0.694694
      4          7           0       -4.693192   -2.982813    0.175672
      5          6           0       -5.996487   -2.868607    0.097764
      6          1           0       -6.665995   -3.645953   -0.271597
      7          7           0       -2.950004    0.001238    1.515575
      8          6           0       -4.088338    0.683660    1.677064
      9          1           0       -3.974882    1.687818    2.083327
     10          7           0       -5.339901    0.313643    1.413279
     11          6           0       -5.367548   -0.935012    0.918781
     12          6           0       -3.011371   -1.252418    1.015927
     13          7           0       -1.876144   -1.935219    0.853996
     14          1           0       -1.874189   -2.866262    0.487418
     15          1           0       -0.989406   -1.539617    1.093460
     16          1           0       -8.404700   -1.796825    1.173291
     17          1           0       -7.902968   -0.260451    0.945422
     18          1           0       -8.262527   -1.200107   -0.339051
     19          7           0       -2.664724    3.016742   -1.735380
     20          6           0       -1.358138    2.613790   -1.599238
     21          6           0       -3.141573    4.411542   -1.646776
     22          7           0        1.984528    3.380899   -1.051651
     23          1           0        2.852806    2.889968   -0.985903
     24          1           0        2.015156    4.374227   -0.937312
     25          7           0       -0.298922    3.417879   -1.363532
     26          6           0        0.830446    2.736998   -1.282717
     27          7           0        0.917976    1.372992   -1.421781
     28          1           0        1.823876    0.936676   -1.344785
     29          6           0       -0.158696    0.525853   -1.664666
     30          8           0        0.028563   -0.692247   -1.773762
     31          6           0       -1.378844    1.242879   -1.754038
     32          7           0       -2.672397    0.794192   -1.982774
     33          6           0       -3.399056    1.878533   -1.963152
     34          1           0       -4.479380    1.904802   -2.109733
     35          1           0       -3.800957    4.493336   -0.900227
     36          1           0       -2.365660    5.016371   -1.472374
     37          1           0       -3.578582    4.671446   -2.507170
     38          1           0        6.507994   -0.688716   -0.217903
     39          1           0        6.676904   -0.769106   -1.969945
     40          1           0        5.634248    0.452430   -1.240507
     41          1           0        4.152550   -4.780440   -1.143238
     42          6           0        3.993186   -3.704031   -1.207994
     43          8           0        1.637745   -3.880214   -1.426978
     44          6           0        2.662012   -3.201166   -1.359396
     45          1           0        1.647393   -1.432881   -1.538344
     46          7           0        2.572024   -1.825664   -1.431181
     47          8           0        3.426184    0.278470   -1.445384
     48          6           0        3.605527   -0.924548   -1.372896
     49          1           0        6.052852   -3.181425   -1.033415
     50          6           0        5.021637   -2.850040   -1.148022
     51          6           0        5.994174   -0.562443   -1.159237
     52          7           0        4.858561   -1.486353   -1.226322
     53          1           0        3.734909    3.600499    3.760468
     54          1           0        2.552793    3.800022    2.653729
     55          1           0        4.118112    3.910050    2.204592
     56          1           0        1.638103   -2.991497    1.074478
     57          1           0        3.244446   -2.651421    1.537212
     58          7           0        2.314693   -2.319101    1.374912
     59          6           0        1.992468   -1.036076    1.551556
     60          6           0        2.422652    1.236418    2.110499
     61          7           0        1.166110    1.654364    1.884934
     62          1           0       -0.640051    0.890939    1.288652
     63          6           0        0.399374    0.638460    1.493837
     64          7           0        0.720237   -0.647276    1.316316
     65          1           0        5.543512    1.464261    2.923183
     66          6           0        4.554355    1.126504    2.612652
     67          7           0        4.255089   -0.108719    2.292747
     68          6           0        2.906408   -0.052923    1.972302
     69          6           0        3.473021    3.441762    2.808516
     70          7           0        3.492747    1.993662    2.524592
 ---------------------------------------------------------------------

 SCF Done:  E(RwB97XD) =  -2048.74367869     A.U. after   15 cycles

 The electronic state is 1-A.
 Alpha  occ. eigenvalues --  -19.26154 -19.22717 -19.20810 -14.52819 -14.51719
 Alpha  occ. eigenvalues --  -14.48882 -14.48469 -14.48084 -14.47144 -14.47089
 Alpha  occ. eigenvalues --  -14.46984 -14.44795 -14.43324 -14.43275 -14.42244
 Alpha  occ. eigenvalues --  -14.41765 -14.41104 -14.40905 -14.40560 -14.39806
 Alpha  occ. eigenvalues --  -10.45791 -10.41479 -10.40736 -10.38916 -10.38409
 Alpha  occ. eigenvalues --  -10.38345 -10.37321 -10.36308 -10.35334 -10.35027
 Alpha  occ. eigenvalues --  -10.34779 -10.34508 -10.33774 -10.33380 -10.33346
 Alpha  occ. eigenvalues --  -10.33024 -10.32754 -10.31819 -10.31598 -10.30988
 Alpha  occ. eigenvalues --  -10.30749 -10.28263 -10.28173  -1.19745  -1.14411
 Alpha  occ. eigenvalues --   -1.13698  -1.13407  -1.11032  -1.10718  -1.09702
 Alpha  occ. eigenvalues --   -1.08796  -1.08298  -1.04614  -1.03893  -1.02855
 Alpha  occ. eigenvalues --   -1.00216  -1.00069  -1.00040  -0.98724  -0.96698
 Alpha  occ. eigenvalues --   -0.96651  -0.95842  -0.92261  -0.91523  -0.86820
 Alpha  occ. eigenvalues --   -0.85217  -0.84255  -0.83877  -0.83635  -0.82623
 Alpha  occ. eigenvalues --   -0.82020  -0.79307  -0.76180  -0.74796  -0.73920
 Alpha  occ. eigenvalues --   -0.73896  -0.73722  -0.72557  -0.70713  -0.69574
 Alpha  occ. eigenvalues --   -0.67625  -0.66918  -0.65958  -0.65915  -0.64780
 Alpha  occ. eigenvalues --   -0.63994  -0.63412  -0.62889  -0.62347  -0.61984
 Alpha  occ. eigenvalues --   -0.60064  -0.59951  -0.59867  -0.59688  -0.59048
 Alpha  occ. eigenvalues --   -0.58719  -0.58668  -0.56743  -0.56253  -0.56225
 Alpha  occ. eigenvalues --   -0.56132  -0.55065  -0.54786  -0.54694  -0.54438
 Alpha  occ. eigenvalues --   -0.53884  -0.53712  -0.53160  -0.52948  -0.52797
 Alpha  occ. eigenvalues --   -0.52663  -0.52012  -0.51484  -0.50421  -0.50406
 Alpha  occ. eigenvalues --   -0.49892  -0.49797  -0.49214  -0.49173  -0.49002
 Alpha  occ. eigenvalues --   -0.48482  -0.48439  -0.48172  -0.47845  -0.47631
 Alpha  occ. eigenvalues --   -0.46637  -0.45687  -0.44724  -0.44528  -0.43711
 Alpha  occ. eigenvalues --   -0.40787  -0.39912  -0.39713  -0.37485  -0.37424
 Alpha  occ. eigenvalues --   -0.37243  -0.36839  -0.36671  -0.35845  -0.34402
 Alpha  occ. eigenvalues --   -0.33965  -0.33830  -0.33392  -0.33155  -0.33070
 Alpha  occ. eigenvalues --   -0.32790  -0.32585  -0.32445  -0.31950  -0.30574
 Alpha  occ. eigenvalues --   -0.30052  -0.29105  -0.25687  -0.25331
 Alpha virt. eigenvalues --    0.02409   0.04886   0.07380   0.08317   0.08629
 Alpha virt. eigenvalues --    0.09071   0.09521   0.11253   0.11500   0.11847
 Alpha virt. eigenvalues --    0.12569   0.14242   0.14740   0.14883   0.15104

 Mulliken charges:
               1
     1  N   -0.311501
     2  C    0.181001
     3  C    0.039536
     4  N   -0.258390
     5  C    0.132960
     6  H    0.025239
     7  N   -0.294999
     8  C    0.135287
     9  H    0.008408
    10  N   -0.292693
    11  C    0.242275
    12  C    0.122526
    13  N   -0.051921
    14  H    0.111745
    15  H    0.091017
    16  H    0.024818
    17  H    0.033506
    18  H    0.025042
    19  N   -0.312500
    20  C    0.248946
    21  C    0.181104
    22  N   -0.121023
    23  H    0.114437
    24  H    0.116305
    25  N   -0.306591
    26  C    0.241612
    27  N   -0.137152
    28  H    0.113252
    29  C    0.169083
    30  O   -0.319785
    31  C    0.001843
    32  N   -0.224651
    33  C    0.131008
    34  H    0.028409
    35  H    0.029901
    36  H    0.028328
    37  H    0.024831
    38  H    0.064982
    39  H    0.058601
    40  H    0.073540
    41  H    0.031831
    42  C   -0.109199
    43  O   -0.268044
    44  C    0.138799
    45  H    0.135697
    46  N   -0.113183
    47  O   -0.347530
    48  C    0.351566
    49  H    0.050564
    50  C    0.169897
    51  C    0.042424
    52  N   -0.287096
    53  H    0.032890
    54  H    0.043634
    55  H    0.021376
    56  H    0.129522
    57  H    0.112156
    58  N   -0.060594
    59  C    0.084219
    60  C    0.236864
    61  N   -0.264443
    62  H    0.042364
    63  C    0.166144
    64  N   -0.300827
    65  H    0.031979
    66  C    0.134941
    67  N   -0.268990
    68  C    0.029016
    69  C    0.178899
    70  N   -0.313211
 Sum of Mulliken charges =  -0.00000

 Dipole moment (field-independent basis, Debye):
    X=              8.8803    Y=              5.7261    Z=              1.3372  Tot=             10.6507
 Quadrupole moment (field-independent basis, Debye-Ang):
   XX=           -152.4230   YY=           -216.2271   ZZ=           -250.4969
   XY=             -1.1888   XZ=              7.0603   YZ=             -4.4164

 Normal termination of Gaussian 16 at Wed Jan 24 17:00:06 2018.
