 Gaussian 16, Revision A.03,
 Gaussian 16:  EM64L-G16RevA.03 25-Dec-2016

 ---------------------------------------
 #p wb97xd/cc-pvdz sp scf=(maxcycles=20)
 ---------------------------------------

 ------------------
 Base pair stacking
 ------------------
 Symbolic Z-matrix:
 Charge =  0 Multiplicity = 1

                         Standard orientation:
 ---------------------------------------------------------------------
 Center     Atomic      Atomic             Coordinates (Angstroms)
 Number     Number       Type             X           Y           Z
 ---------------------------------------------------------------------
      1          7           0       -5.592397   -1.956539    1.153946
      2          6           0       -6.993289   -1.548076    1.374529
      3          6           0       -3.394405   -1.991323    1.083454
      4          7           0       -3.819083   -3.197561    0.545526
      5          6           0       -5.126297   -3.128320    0.609526
      6          1           0       -5.805928   -3.910749    0.270644
      7          7           0       -2.040224   -0.220960    1.854786
      8          6           0       -3.176327    0.409619    2.169778
      9          1           0       -3.052688    1.395824    2.615153
     10          7           0       -4.436303    0.006743    2.017929
     11          6           0       -4.476170   -1.215898    1.462970
     12          6           0       -2.113989   -1.449604    1.297936
     13          7           0       -0.981013   -2.080648    0.982798
     14          1           0       -0.988083   -2.991558    0.568774
     15          1           0       -0.087027   -1.664650    1.149727
     16          1           0       -7.440438   -2.202039    1.984915
     17          1           0       -7.014820   -0.638582    1.788633
     18          1           0       -7.477841   -1.525869    0.500053
     19          7           0       -3.678955    3.035493   -1.330189
     20          6           0       -2.353126    2.675296   -1.352122
     21          6           0       -4.188022    4.405383   -1.118167
     22          7           0        1.002501    3.538373   -1.114236
     23          1           0        1.888080    3.077520   -1.165292
     24          1           0        1.013343    4.525237   -0.950782
     25          7           0       -1.301131    3.505614   -1.185012
     26          6           0       -0.148404    2.864172   -1.258343
     27          7           0       -0.032591    1.513000   -1.478426
     28          1           0        0.889839    1.107492   -1.519299
     29          6           0       -1.101319    0.639412   -1.653165
     30          8           0       -0.887875   -0.563906   -1.846039
     31          6           0       -2.346331    1.313978   -1.576978
     32          7           0       -3.641822    0.829284   -1.693856
     33          6           0       -4.396557    1.883431   -1.541004
     34          1           0       -5.486604    1.876636   -1.573050
     35          1           0       -4.767168    4.425236   -0.303922
     36          1           0       -3.417726    5.029297   -0.993171
     37          1           0       -4.721507    4.691311   -1.913430
     38          1           0        5.716194   -0.396067   -0.973154
     39          1           0        5.701636   -0.382752   -2.735041
     40          1           0        4.703413    0.761187   -1.837101
     41          1           0        3.407911   -4.521675   -1.866321
     42          6           0        3.208356   -3.450084   -1.856576
     43          8           0        0.849781   -3.702906   -1.838999
     44          6           0        1.853269   -2.990320   -1.841904
     45          1           0        0.769552   -1.254411   -1.819830
     46          7           0        1.712395   -1.617275   -1.830361
     47          8           0        2.492738    0.515372   -1.820689
     48          6           0        2.717006   -0.682232   -1.831594
     49          1           0        5.257219   -2.860318   -1.869046
     50          6           0        4.209627   -2.562358   -1.858138
     51          6           0        5.102091   -0.242335   -1.847973
     52          7           0        3.995780   -1.203502   -1.846097
     53          1           0        4.726145    3.508984    3.582805
     54          1           0        3.428022    3.719123    2.616990
     55          1           0        4.932859    3.909715    2.014334
     56          1           0        2.568759   -3.014721    0.780576
     57          1           0        4.203304   -2.638408    1.091592
     58          7           0        3.251497   -2.333343    1.044649
     59          6           0        2.908973   -1.073636    1.322088
     60          6           0        3.323065    1.182681    1.953999
     61          7           0        2.037054    1.564154    1.882719
     62          1           0        0.203301    0.764514    1.437198
     63          6           0        1.266101    0.541093    1.519604
     64          7           0        1.607257   -0.721340    1.241293
     65          1           0        6.503438    1.486061    2.449376
     66          6           0        5.498296    1.127521    2.225578
     67          7           0        5.206474   -0.100545    1.872929
     68          6           0        3.830408   -0.079226    1.697640
     69          6           0        4.370395    3.388186    2.656064
     70          7           0        4.406212    1.957769    2.294643
 ---------------------------------------------------------------------

 SCF Done:  E(RwB97XD) =  -2048.74504001     A.U. after   15 cycles

 The electronic state is 1-A.
 Alpha  occ. eigenvalues --  -19.25987 -19.22474 -19.20680 -14.52622 -14.52254
 Alpha  occ. eigenvalues --  -14.48857 -14.48142 -14.48037 -14.48009 -14.47033
 Alpha  occ. eigenvalues --  -14.46781 -14.45370 -14.44108 -14.44061 -14.42111
 Alpha  occ. eigenvalues --  -14.41641 -14.40921 -14.40634 -14.40289 -14.39696
 Alpha  occ. eigenvalues --  -10.45625 -10.41334 -10.40501 -10.39770 -10.38293
 Alpha  occ. eigenvalues --  -10.38134 -10.37866 -10.36981 -10.35492 -10.35029
 Alpha  occ. eigenvalues --  -10.34808 -10.34404 -10.33722 -10.33370 -10.33350
 Alpha  occ. eigenvalues --  -10.32649 -10.32508 -10.32501 -10.31428 -10.30998
 Alpha  occ. eigenvalues --  -10.30407 -10.28167 -10.27810  -1.19568  -1.15000
 Alpha  occ. eigenvalues --   -1.13430  -1.13280  -1.10656  -1.10604  -1.09541
 Alpha  occ. eigenvalues --   -1.09109  -1.08648  -1.04691  -1.04390  -1.02687
 Alpha  occ. eigenvalues --   -1.00830  -0.99849  -0.99795  -0.98628  -0.96687
 Alpha  occ. eigenvalues --   -0.96663  -0.96221  -0.92066  -0.91363  -0.87424
 Alpha  occ. eigenvalues --   -0.85719  -0.84185  -0.83653  -0.83267  -0.82579
 Alpha  occ. eigenvalues --   -0.81680  -0.79148  -0.76868  -0.74719  -0.74610
 Alpha  occ. eigenvalues --   -0.73755  -0.73545  -0.72274  -0.70435  -0.70251
 Alpha  occ. eigenvalues --   -0.67479  -0.66774  -0.66638  -0.65666  -0.64632
 Alpha  occ. eigenvalues --   -0.64131  -0.63892  -0.62767  -0.62080  -0.61841
 Alpha  occ. eigenvalues --   -0.60447  -0.60156  -0.60036  -0.59703  -0.59298
 Alpha  occ. eigenvalues --   -0.59143  -0.58469  -0.56690  -0.56114  -0.56002
 Alpha  occ. eigenvalues --   -0.55730  -0.55143  -0.54821  -0.54581  -0.54206
 Alpha  occ. eigenvalues --   -0.53778  -0.53647  -0.53465  -0.53244  -0.53077
 Alpha  occ. eigenvalues --   -0.52612  -0.52490  -0.51182  -0.50305  -0.50095
 Alpha  occ. eigenvalues --   -0.49771  -0.49618  -0.49476  -0.49046  -0.48953
 Alpha  occ. eigenvalues --   -0.48584  -0.48414  -0.48267  -0.47770  -0.47467
 Alpha  occ. eigenvalues --   -0.46334  -0.45773  -0.45233  -0.44288  -0.43901
 Alpha  occ. eigenvalues --   -0.40538  -0.40462  -0.39553  -0.37503  -0.37410
 Alpha  occ. eigenvalues --   -0.37359  -0.37312  -0.36491  -0.36104  -0.34655
 Alpha  occ. eigenvalues --   -0.34219  -0.33961  -0.33553  -0.32870  -0.32829
 Alpha  occ. eigenvalues --   -0.32747  -0.32508  -0.32352  -0.31944  -0.30278
 Alpha  occ. eigenvalues --   -0.29876  -0.29746  -0.25649  -0.24968
 Alpha virt. eigenvalues --    0.02449   0.04226   0.07313   0.08160   0.08608
 Alpha virt. eigenvalues --    0.09243   0.09709   0.10667   0.11665   0.11758
 Alpha virt. eigenvalues --    0.12866   0.14467   0.14633   0.15002   0.15024

 Mulliken charges:
               1
     1  N   -0.313117
     2  C    0.181529
     3  C    0.049133
     4  N   -0.257513
     5  C    0.136607
     6  H    0.024522
     7  N   -0.299348
     8  C    0.136933
     9  H    0.008023
    10  N   -0.291608
    11  C    0.254073
    12  C    0.111096
    13  N   -0.055965
    14  H    0.114210
    15  H    0.082509
    16  H    0.023307
    17  H    0.031831
    18  H    0.025595
    19  N   -0.311770
    20  C    0.249904
    21  C    0.180708
    22  N   -0.118512
    23  H    0.113982
    24  H    0.116533
    25  N   -0.310815
    26  C    0.244664
    27  N   -0.150483
    28  H    0.122175
    29  C    0.193184
    30  O   -0.321515
    31  C   -0.012052
    32  N   -0.225947
    33  C    0.132217
    34  H    0.023477
    35  H    0.029331
    36  H    0.028806
    37  H    0.024572
    38  H    0.062278
    39  H    0.059312
    40  H    0.072854
    41  H    0.029883
    42  C   -0.119145
    43  O   -0.264636
    44  C    0.153956
    45  H    0.132082
    46  N   -0.113105
    47  O   -0.342430
    48  C    0.335437
    49  H    0.046729
    50  C    0.161839
    51  C    0.038763
    52  N   -0.275916
    53  H    0.034168
    54  H    0.042406
    55  H    0.026946
    56  H    0.127465
    57  H    0.114299
    58  N   -0.054460
    59  C    0.082878
    60  C    0.250004
    61  N   -0.273186
    62  H    0.039860
    63  C    0.167835
    64  N   -0.308019
    65  H    0.036772
    66  C    0.138649
    67  N   -0.271194
    68  C    0.030819
    69  C    0.179301
    70  N   -0.312723
 Sum of Mulliken charges =  -0.00000

 Dipole moment (field-independent basis, Debye):
    X=              8.8455    Y=              6.1657    Z=              0.9146  Tot=             10.8211
 Quadrupole moment (field-independent basis, Debye-Ang):
   XX=           -158.8399   YY=           -215.1464   ZZ=           -251.0671
   XY=             -3.1047   XZ=             -3.3310   YZ=             -2.4307

 Normal termination of Gaussian 16 at Wed Jan 24 16:24:57 2018.
