 Gaussian 16, Revision A.03,
 Gaussian 16:  EM64L-G16RevA.03 25-Dec-2016

 ---------------------------------------
 #p wb97xd/cc-pvdz sp scf=(maxcycles=20)
 ---------------------------------------

 ------------------
 Base pair stacking
 ------------------
 Symbolic Z-matrix:
 Charge =  0 Multiplicity = 1

                         Standard orientation:
 ---------------------------------------------------------------------
 Center     Atomic      Atomic             Coordinates (Angstroms)
 Number     Number       Type             X           Y           Z
 ---------------------------------------------------------------------
      1          7           0       -6.707065   -1.582994    0.398258
      2          6           0       -8.098333   -1.095758    0.327714
      3          6           0       -4.527031   -1.700158    0.664800
      4          7           0       -4.942532   -2.972956    0.301373
      5          6           0       -6.239297   -2.851420    0.155337
      6          1           0       -6.909646   -3.662311   -0.131061
      7          7           0       -3.192332    0.141281    1.289802
      8          6           0       -4.322034    0.856086    1.309575
      9          1           0       -4.204055    1.904855    1.578691
     10          7           0       -5.569733    0.471700    1.048045
     11          6           0       -5.603517   -0.832625    0.728636
     12          6           0       -3.259712   -1.168219    0.964594
     13          7           0       -2.133107   -1.883423    0.944320
     14          1           0       -2.135834   -2.856008    0.709181
     15          1           0       -1.248438   -1.471680    1.163346
     16          1           0       -8.664989   -1.606439    0.974478
     17          1           0       -8.123970   -0.123641    0.558914
     18          1           0       -8.452731   -1.225876   -0.598273
     19          7           0       -2.419155    2.878073   -1.778194
     20          6           0       -1.117182    2.485052   -1.582148
     21          6           0       -2.914313    4.266485   -1.689677
     22          7           0        2.184922    3.273561   -0.849946
     23          1           0        3.053716    2.789723   -0.748292
     24          1           0        2.199379    4.264902   -0.716713
     25          7           0       -0.079807    3.294680   -1.278159
     26          6           0        1.050918    2.623112   -1.151367
     27          7           0        1.159560    1.262735   -1.309756
     28          1           0        2.064788    0.833651   -1.193964
     29          6           0        0.105569    0.410033   -1.622569
     30          8           0        0.310759   -0.804081   -1.743326
     31          6           0       -1.115744    1.117032   -1.761939
     32          7           0       -2.391162    0.660402   -2.064763
     33          6           0       -3.129040    1.737314   -2.063440
     34          1           0       -4.200643    1.756051   -2.264911
     35          1           0       -3.611906    4.328518   -0.976703
     36          1           0       -2.154666    4.875336   -1.464965
     37          1           0       -3.309326    4.537805   -2.566697
     38          1           0        6.701549   -0.767685    0.143537
     39          1           0        6.960848   -0.814725   -1.598648
     40          1           0        5.869612    0.383522   -0.902391
     41          1           0        4.439057   -4.863977   -0.973648
     42          6           0        4.272103   -3.788130   -1.027541
     43          8           0        1.932933   -3.982495   -1.370454
     44          6           0        2.945308   -3.295165   -1.238325
     45          1           0        1.922962   -1.533564   -1.438044
     46          7           0        2.844906   -1.919505   -1.290406
     47          8           0        3.676864    0.192507   -1.223598
     48          6           0        3.864687   -1.009888   -1.163187
     49          1           0        6.314595   -3.249391   -0.738085
     50          6           0        5.287241   -2.925716   -0.899725
     51          6           0        6.235373   -0.629227   -0.820609
     52          7           0        5.114300   -1.562430   -0.962276
     53          1           0        3.472531    3.916809    3.291631
     54          1           0        2.338123    3.979341    2.120596
     55          1           0        3.921466    4.003442    1.724981
     56          1           0        1.348023   -2.950792    1.450946
     57          1           0        2.941915   -2.573863    1.927983
     58          7           0        2.025987   -2.253442    1.683793
     59          6           0        1.723157   -0.953724    1.669619
     60          6           0        2.177278    1.367539    1.928959
     61          7           0        0.939044    1.768849    1.597074
     62          1           0       -0.857882    0.957196    1.037711
     63          6           0        0.167576    0.720132    1.317883
     64          7           0        0.469020   -0.582367    1.331508
     65          1           0        5.268525    1.659256    2.829649
     66          6           0        4.285439    1.296523    2.528161
     67          7           0        3.973842    0.033540    2.368588
     68          6           0        2.639889    0.064483    1.988672
     69          6           0        3.244293    3.632336    2.360515
     70          7           0        3.245711    2.158793    2.278761
 ---------------------------------------------------------------------

 SCF Done:  E(RwB97XD) =  -2048.74224292     A.U. after   15 cycles

 The electronic state is 1-A.
 Alpha  occ. eigenvalues --  -19.26020 -19.22364 -19.20739 -14.52631 -14.51701
 Alpha  occ. eigenvalues --  -14.48840 -14.48765 -14.48047 -14.47132 -14.47062
 Alpha  occ. eigenvalues --  -14.46970 -14.44706 -14.43162 -14.43062 -14.42183
 Alpha  occ. eigenvalues --  -14.42114 -14.41427 -14.40882 -14.40843 -14.40100
 Alpha  occ. eigenvalues --  -10.45664 -10.41418 -10.40445 -10.38865 -10.38346
 Alpha  occ. eigenvalues --  -10.38096 -10.37276 -10.36203 -10.35358 -10.35312
 Alpha  occ. eigenvalues --  -10.34607 -10.34469 -10.34089 -10.33485 -10.33350
 Alpha  occ. eigenvalues --  -10.33289 -10.33066 -10.31744 -10.31374 -10.30961
 Alpha  occ. eigenvalues --  -10.30937 -10.28513 -10.28236  -1.19602  -1.14371
 Alpha  occ. eigenvalues --   -1.13370  -1.13347  -1.11343  -1.10673  -1.09521
 Alpha  occ. eigenvalues --   -1.08769  -1.08196  -1.04930  -1.03769  -1.02718
 Alpha  occ. eigenvalues --   -1.00382  -1.00253  -1.00009  -0.98652  -0.96953
 Alpha  occ. eigenvalues --   -0.96644  -0.95750  -0.92580  -0.91303  -0.86787
 Alpha  occ. eigenvalues --   -0.85235  -0.84221  -0.83929  -0.83781  -0.82587
 Alpha  occ. eigenvalues --   -0.82303  -0.79109  -0.76122  -0.74760  -0.73901
 Alpha  occ. eigenvalues --   -0.73803  -0.73573  -0.72871  -0.71030  -0.69524
 Alpha  occ. eigenvalues --   -0.67593  -0.66760  -0.66274  -0.65867  -0.64645
 Alpha  occ. eigenvalues --   -0.63920  -0.63372  -0.62837  -0.62649  -0.61997
 Alpha  occ. eigenvalues --   -0.60217  -0.59857  -0.59747  -0.59642  -0.59192
 Alpha  occ. eigenvalues --   -0.58720  -0.58643  -0.56786  -0.56499  -0.56381
 Alpha  occ. eigenvalues --   -0.56137  -0.55368  -0.54934  -0.54592  -0.54453
 Alpha  occ. eigenvalues --   -0.53806  -0.53583  -0.53086  -0.52946  -0.52625
 Alpha  occ. eigenvalues --   -0.52508  -0.51970  -0.51738  -0.50715  -0.50300
 Alpha  occ. eigenvalues --   -0.50171  -0.49627  -0.49252  -0.49034  -0.48824
 Alpha  occ. eigenvalues --   -0.48626  -0.48392  -0.48123  -0.47921  -0.47547
 Alpha  occ. eigenvalues --   -0.46935  -0.45640  -0.45031  -0.44313  -0.43405
 Alpha  occ. eigenvalues --   -0.41130  -0.39815  -0.39584  -0.37538  -0.37360
 Alpha  occ. eigenvalues --   -0.37157  -0.36992  -0.36618  -0.35802  -0.34430
 Alpha  occ. eigenvalues --   -0.33803  -0.33520  -0.33488  -0.33368  -0.33096
 Alpha  occ. eigenvalues --   -0.32791  -0.32494  -0.32230  -0.31914  -0.30872
 Alpha  occ. eigenvalues --   -0.30332  -0.28992  -0.25733  -0.25582
 Alpha virt. eigenvalues --    0.02742   0.04861   0.07558   0.07943   0.08531
 Alpha virt. eigenvalues --    0.09292   0.09441   0.11004   0.11447   0.11890
 Alpha virt. eigenvalues --    0.12625   0.14015   0.14634   0.14726   0.14842

 Mulliken charges:
               1
     1  N   -0.311337
     2  C    0.180984
     3  C    0.035477
     4  N   -0.259001
     5  C    0.133546
     6  H    0.026385
     7  N   -0.291871
     8  C    0.132721
     9  H    0.008628
    10  N   -0.291033
    11  C    0.242393
    12  C    0.125423
    13  N   -0.054591
    14  H    0.109685
    15  H    0.089764
    16  H    0.025364
    17  H    0.034049
    18  H    0.025870
    19  N   -0.311626
    20  C    0.241559
    21  C    0.181285
    22  N   -0.115317
    23  H    0.115344
    24  H    0.115835
    25  N   -0.297376
    26  C    0.228634
    27  N   -0.124978
    28  H    0.114044
    29  C    0.150517
    30  O   -0.317578
    31  C    0.008662
    32  N   -0.222571
    33  C    0.129879
    34  H    0.029671
    35  H    0.029724
    36  H    0.028035
    37  H    0.024766
    38  H    0.063505
    39  H    0.058623
    40  H    0.073095
    41  H    0.031541
    42  C   -0.113510
    43  O   -0.268597
    44  C    0.160695
    45  H    0.135868
    46  N   -0.127112
    47  O   -0.348967
    48  C    0.357780
    49  H    0.049321
    50  C    0.172821
    51  C    0.043134
    52  N   -0.292018
    53  H    0.034448
    54  H    0.043815
    55  H    0.016314
    56  H    0.127878
    57  H    0.113039
    58  N   -0.062713
    59  C    0.093977
    60  C    0.226518
    61  N   -0.258654
    62  H    0.052322
    63  C    0.156107
    64  N   -0.298340
    65  H    0.030755
    66  C    0.132721
    67  N   -0.268283
    68  C    0.030889
    69  C    0.172521
    70  N   -0.310460
 Sum of Mulliken charges =  -0.00000

 Dipole moment (field-independent basis, Debye):
    X=              8.4328    Y=              5.5318    Z=              2.0695  Tot=             10.2955
 Quadrupole moment (field-independent basis, Debye-Ang):
   XX=           -150.2559   YY=           -217.2379   ZZ=           -251.7362
   XY=              0.7040   XZ=              9.7019   YZ=             -7.5336

 Normal termination of Gaussian 16 at Thu Jan 25 03:26:37 2018.
