 Gaussian 16, Revision A.03,
 Gaussian 16:  EM64L-G16RevA.03 25-Dec-2016

 ---------------------------------------
 #p wb97xd/cc-pvdz sp scf=(maxcycles=20)
 ---------------------------------------

 ------------------
 Base pair stacking
 ------------------
 Symbolic Z-matrix:
 Charge =  0 Multiplicity = 1

                         Standard orientation:
 ---------------------------------------------------------------------
 Center     Atomic      Atomic             Coordinates (Angstroms)
 Number     Number       Type             X           Y           Z
 ---------------------------------------------------------------------
      1          7           0        4.259269   -2.040964   -1.878169
      2          6           0        5.659906   -1.643244   -2.119106
      3          6           0        2.076428   -2.008617   -1.610854
      4          7           0        2.468703   -3.328458   -1.440952
      5          6           0        3.768084   -3.295123   -1.608802
      6          1           0        4.423764   -4.164116   -1.546573
      7          7           0        0.775105   -0.048241   -1.773455
      8          6           0        1.918275    0.598465   -2.023514
      9          1           0        1.819503    1.670436   -2.188979
     10          7           0        3.159292    0.122038   -2.099523
     11          6           0        3.169163   -1.203312   -1.880931
     12          6           0        0.818485   -1.381160   -1.557795
     13          7           0       -0.321590   -2.028480   -1.308013
     14          1           0       -0.336705   -3.015184   -1.142462
     15          1           0       -1.198969   -1.549479   -1.277851
     16          1           0        6.014643   -2.133108   -2.915569
     17          1           0        5.703376   -0.658977   -2.287790
     18          1           0        6.214735   -1.867216   -1.317861
     19          7           0        5.026096    2.651875    0.685862
     20          6           0        3.692891    2.355842    0.837437
     21          6           0        5.572664    3.983066    0.354337
     22          7           0        0.368551    3.361041    0.827224
     23          1           0       -0.528150    2.945565    0.977349
     24          1           0        0.385521    4.337118    0.608792
     25          7           0        2.666459    3.224324    0.710012
     26          6           0        1.498076    2.642416    0.914658
     27          7           0        1.344478    1.311921    1.220773
     28          1           0        0.412560    0.952828    1.360606
     29          6           0        2.386388    0.399915    1.356897
     30          8           0        2.139517   -0.779992    1.635479
     31          6           0        3.647784    1.010377    1.139915
     32          7           0        4.926940    0.472543    1.177482
     33          6           0        5.709768    1.480466    0.902757
     34          1           0        6.797352    1.424383    0.845365
     35          1           0        6.081048    3.932017   -0.504585
     36          1           0        4.821537    4.634739    0.257496
     37          1           0        6.183195    4.286018    1.085275
     38          1           0       -4.501806   -0.350302    1.300630
     39          1           0       -4.337440   -0.243062    3.051669
     40          1           0       -3.371561    0.803002    2.010414
     41          1           0       -2.302125   -4.525515    2.236397
     42          6           0       -2.059111   -3.466505    2.148724
     43          8           0        0.276729   -3.830053    1.951737
     44          6           0       -0.691976   -3.072144    1.996245
     45          1           0        0.458197   -1.392566    1.785417
     46          7           0       -0.494814   -1.709796    1.894295
     47          8           0       -1.182564    0.453432    1.826356
     48          6           0       -1.455398   -0.730041    1.924450
     49          1           0       -4.072856   -2.781657    2.295796
     50          6           0       -3.018326   -2.534081    2.181645
     51          6           0       -3.809845   -0.178729    2.111687
     52          7           0       -2.749176   -1.189337    2.074026
     53          1           0       -5.867777    4.258655   -1.844129
     54          1           0       -4.484618    4.161178   -0.984196
     55          1           0       -5.920627    4.246415   -0.213028
     56          1           0       -3.893636   -2.846331   -1.015049
     57          1           0       -5.521908   -2.339895   -1.063464
     58          7           0       -4.552498   -2.094139   -1.030754
     59          6           0       -4.157027   -0.819659   -1.009078
     60          6           0       -4.481928    1.537489   -1.002733
     61          7           0       -3.173390    1.837856   -0.958800
     62          1           0       -1.361976    0.880378   -0.907726
     63          6           0       -2.439672    0.726855   -0.943245
     64          7           0       -2.833884   -0.550530   -0.964902
     65          1           0       -7.667454    2.080592   -1.100634
     66          6           0       -6.671332    1.638040   -1.071959
     67          7           0       -6.427693    0.350279   -1.073312
     68          6           0       -5.043209    0.272664   -1.029636
     69          6           0       -5.445591    3.888063   -1.016834
     70          7           0       -5.539599    2.415311   -1.030289
 ---------------------------------------------------------------------

 SCF Done:  E(RwB97XD) =  -2048.74808725     A.U. after   15 cycles

 The electronic state is 1-A.
 Alpha  occ. eigenvalues --  -19.25195 -19.21256 -19.20547 -14.52643 -14.51710
 Alpha  occ. eigenvalues --  -14.49154 -14.48933 -14.48133 -14.47093 -14.46687
 Alpha  occ. eigenvalues --  -14.46518 -14.45581 -14.45058 -14.44920 -14.43041
 Alpha  occ. eigenvalues --  -14.42010 -14.41167 -14.40924 -14.40836 -14.40559
 Alpha  occ. eigenvalues --  -10.44752 -10.41146 -10.40638 -10.39377 -10.38155
 Alpha  occ. eigenvalues --  -10.38149 -10.37611 -10.37317 -10.36383 -10.35698
 Alpha  occ. eigenvalues --  -10.34375 -10.34242 -10.33996 -10.33577 -10.33574
 Alpha  occ. eigenvalues --  -10.33103 -10.33054 -10.33039 -10.31091 -10.30623
 Alpha  occ. eigenvalues --  -10.30030 -10.28362 -10.28147  -1.18739  -1.15453
 Alpha  occ. eigenvalues --   -1.13135  -1.12277  -1.10829  -1.10656  -1.10007
 Alpha  occ. eigenvalues --   -1.08630  -1.08462  -1.05491  -1.05200  -1.01734
 Alpha  occ. eigenvalues --   -1.01234  -1.00697  -0.99617  -0.98522  -0.97509
 Alpha  occ. eigenvalues --   -0.96700  -0.96512  -0.92894  -0.90488  -0.88019
 Alpha  occ. eigenvalues --   -0.86140  -0.84198  -0.83538  -0.82903  -0.82581
 Alpha  occ. eigenvalues --   -0.81784  -0.78252  -0.77517  -0.75336  -0.74632
 Alpha  occ. eigenvalues --   -0.73533  -0.72864  -0.72669  -0.71015  -0.70843
 Alpha  occ. eigenvalues --   -0.67357  -0.67299  -0.66253  -0.65921  -0.64702
 Alpha  occ. eigenvalues --   -0.64280  -0.63414  -0.62729  -0.62515  -0.61715
 Alpha  occ. eigenvalues --   -0.60993  -0.60666  -0.60197  -0.59783  -0.59076
 Alpha  occ. eigenvalues --   -0.58969  -0.58229  -0.56798  -0.56505  -0.55763
 Alpha  occ. eigenvalues --   -0.55587  -0.55554  -0.55481  -0.54979  -0.54061
 Alpha  occ. eigenvalues --   -0.53936  -0.53582  -0.53283  -0.53144  -0.52910
 Alpha  occ. eigenvalues --   -0.52201  -0.51809  -0.51311  -0.50410  -0.50301
 Alpha  occ. eigenvalues --   -0.50100  -0.49878  -0.49467  -0.48985  -0.48776
 Alpha  occ. eigenvalues --   -0.48711  -0.48004  -0.47846  -0.47652  -0.47064
 Alpha  occ. eigenvalues --   -0.46698  -0.45575  -0.45445  -0.44734  -0.43367
 Alpha  occ. eigenvalues --   -0.41238  -0.41057  -0.38932  -0.38186  -0.38020
 Alpha  occ. eigenvalues --   -0.37342  -0.37254  -0.36892  -0.35366  -0.35218
 Alpha  occ. eigenvalues --   -0.34951  -0.34030  -0.33390  -0.33266  -0.32898
 Alpha  occ. eigenvalues --   -0.32568  -0.32350  -0.31856  -0.31230  -0.30643
 Alpha  occ. eigenvalues --   -0.30539  -0.30363  -0.26182  -0.25201
 Alpha virt. eigenvalues --    0.03565   0.03658   0.06526   0.08035   0.08971
 Alpha virt. eigenvalues --    0.09270   0.09797   0.10261   0.10888   0.11508
 Alpha virt. eigenvalues --    0.13644   0.14437   0.14607   0.14689   0.14771

 Mulliken charges:
               1
     1  N   -0.311057
     2  C    0.184686
     3  C    0.064300
     4  N   -0.259559
     5  C    0.146782
     6  H    0.028245
     7  N   -0.291002
     8  C    0.121853
     9  H    0.014835
    10  N   -0.274911
    11  C    0.255977
    12  C    0.080506
    13  N   -0.070464
    14  H    0.112474
    15  H    0.082212
    16  H    0.019269
    17  H    0.030920
    18  H    0.033893
    19  N   -0.311121
    20  C    0.254911
    21  C    0.181398
    22  N   -0.120885
    23  H    0.122084
    24  H    0.117192
    25  N   -0.309963
    26  C    0.235524
    27  N   -0.132620
    28  H    0.117641
    29  C    0.173832
    30  O   -0.319547
    31  C    0.001605
    32  N   -0.234151
    33  C    0.122790
    34  H    0.022085
    35  H    0.027068
    36  H    0.029796
    37  H    0.024788
    38  H    0.064648
    39  H    0.057167
    40  H    0.077388
    41  H    0.026993
    42  C   -0.117667
    43  O   -0.258477
    44  C    0.169206
    45  H    0.136140
    46  N   -0.126165
    47  O   -0.349311
    48  C    0.354079
    49  H    0.041170
    50  C    0.163306
    51  C    0.036354
    52  N   -0.278389
    53  H    0.034448
    54  H    0.039380
    55  H    0.031028
    56  H    0.117970
    57  H    0.120620
    58  N   -0.063896
    59  C    0.063399
    60  C    0.244750
    61  N   -0.272702
    62  H    0.024021
    63  C    0.180490
    64  N   -0.308461
    65  H    0.040131
    66  C    0.141629
    67  N   -0.258722
    68  C    0.029276
    69  C    0.180863
    70  N   -0.312051
 Sum of Mulliken charges =  -0.00000

 Dipole moment (field-independent basis, Debye):
    X=             -8.4204    Y=              6.4309    Z=             -1.0359  Tot=             10.6458
 Quadrupole moment (field-independent basis, Debye-Ang):
   XX=           -169.0758   YY=           -215.2650   ZZ=           -251.1165
   XY=              7.3131   XZ=            -18.3776   YZ=              7.8188

 Normal termination of Gaussian 16 at Thu Jan 25 04:45:50 2018.
