 Gaussian 16, Revision A.03,
 Gaussian 16:  EM64L-G16RevA.03 25-Dec-2016

 ---------------------------------------
 #p wb97xd/cc-pvdz sp scf=(maxcycles=20)
 ---------------------------------------

 ------------------
 Base pair stacking
 ------------------
 Symbolic Z-matrix:
 Charge =  0 Multiplicity = 1

                         Standard orientation:
 ---------------------------------------------------------------------
 Center     Atomic      Atomic             Coordinates (Angstroms)
 Number     Number       Type             X           Y           Z
 ---------------------------------------------------------------------
      1          7           0       -7.132407   -1.526419    0.164323
      2          6           0       -8.497718   -1.040900   -0.115331
      3          6           0       -4.979103   -1.622510    0.601762
      4          7           0       -5.417478   -2.936222    0.519907
      5          6           0       -6.697226   -2.825755    0.259651
      6          1           0       -7.377654   -3.667265    0.126128
      7          7           0       -3.619445    0.286363    0.867334
      8          6           0       -4.721176    1.008876    0.639873
      9          1           0       -4.581855    2.088855    0.662311
     10          7           0       -5.963332    0.599557    0.390053
     11          6           0       -6.024914   -0.742312    0.384809
     12          6           0       -3.714363   -1.061203    0.855346
     13          7           0       -2.615706   -1.784162    1.082179
     14          1           0       -2.639401   -2.784491    1.082776
     15          1           0       -1.731968   -1.350780    1.259155
     16          1           0       -9.122091   -1.371711    0.592411
     17          1           0       -8.502072   -0.041365   -0.121610
     18          1           0       -8.798002   -1.379454   -1.007060
     19          7           0       -1.993145    2.672374   -1.704430
     20          6           0       -0.700267    2.299870   -1.425578
     21          6           0       -2.538037    4.037391   -1.561166
     22          7           0        2.502103    3.117957   -0.359113
     23          1           0        3.374336    2.650591   -0.217626
     24          1           0        2.473700    4.096994   -0.155653
     25          7           0        0.281643    3.111716   -0.977472
     26          6           0        1.418649    2.462127   -0.801757
     27          7           0        1.583535    1.120169   -1.045632
     28          1           0        2.489125    0.707312   -0.883116
     29          6           0        0.587182    0.265584   -1.506976
     30          8           0        0.840407   -0.930783   -1.694888
     31          6           0       -0.640123    0.949079   -1.700468
     32          7           0       -1.870479    0.482943   -2.142986
     33          6           0       -2.639885    1.537474   -2.129146
     34          1           0       -3.690915    1.543169   -2.419970
     35          1           0       -3.294487    4.029268   -0.908078
     36          1           0       -1.819680    4.647667   -1.229809
     37          1           0       -2.866706    4.361608   -2.447550
     38          1           0        7.046396   -0.866943    0.731103
     39          1           0        7.451992   -0.780179   -0.981382
     40          1           0        6.268607    0.335554   -0.298654
     41          1           0        5.017275   -4.927995   -0.861703
     42          6           0        4.821161   -3.855756   -0.853826
     43          8           0        2.526301   -4.084961   -1.408965
     44          6           0        3.501614   -3.383178   -1.142417
     45          1           0        2.443862   -1.638693   -1.304549
     46          7           0        3.362054   -2.010422   -1.105915
     47          8           0        4.117666    0.111877   -0.819430
     48          6           0        4.338055   -1.086457   -0.827938
     49          1           0        6.814013   -3.286960   -0.353006
     50          6           0        5.793994   -2.979016   -0.578998
     51          6           0        6.658387   -0.670672   -0.257323
     52          7           0        5.583465   -1.619718   -0.559988
     53          1           0        3.041148    4.289000    2.383142
     54          1           0        1.985304    4.095718    1.154346
     55          1           0        3.590121    3.992280    0.875163
     56          1           0        0.785377   -2.773347    2.066257
     57          1           0        2.359045   -2.327393    2.550825
     58          7           0        1.472570   -2.054968    2.175089
     59          6           0        1.219131   -0.789653    1.834624
     60          6           0        1.741019    1.516903    1.571660
     61          7           0        0.541551    1.853811    1.069481
     62          1           0       -1.245431    0.970343    0.593240
     63          6           0       -0.248906    0.785143    0.991860
     64          7           0        0.003086   -0.482988    1.332353
     65          1           0        4.778467    1.949318    2.591025
     66          6           0        3.803523    1.546030    2.315739
     67          7           0        3.456380    0.288017    2.436442
     68          6           0        2.150852    0.255811    1.968150
     69          6           0        2.861346    3.796667    1.531510
     70          7           0        2.813791    2.346072    1.798914
 ---------------------------------------------------------------------

 SCF Done:  E(RwB97XD) =  -2048.57585871     A.U. after   15 cycles

 The electronic state is 1-A.
 Alpha  occ. eigenvalues --  -19.25932 -19.21998 -19.20551 -14.52492 -14.51856
 Alpha  occ. eigenvalues --  -14.49308 -14.48846 -14.47940 -14.47208 -14.46241
 Alpha  occ. eigenvalues --  -14.46112 -14.44569 -14.43134 -14.42783 -14.42388
 Alpha  occ. eigenvalues --  -14.42015 -14.41552 -14.41517 -14.40865 -14.40731
 Alpha  occ. eigenvalues --  -10.45559 -10.41272 -10.40128 -10.38915 -10.38192
 Alpha  occ. eigenvalues --  -10.37830 -10.37261 -10.36057 -10.36010 -10.35388
 Alpha  occ. eigenvalues --  -10.34665 -10.34394 -10.34332 -10.33959 -10.33782
 Alpha  occ. eigenvalues --  -10.33723 -10.33494 -10.31714 -10.31347 -10.31135
 Alpha  occ. eigenvalues --  -10.30951 -10.29157 -10.28369  -1.19494  -1.15588
 Alpha  occ. eigenvalues --   -1.13240  -1.13028  -1.11919  -1.10699  -1.09530
 Alpha  occ. eigenvalues --   -1.09372  -1.08399  -1.05577  -1.03922  -1.03137
 Alpha  occ. eigenvalues --   -1.02531  -1.01029  -0.99016  -0.98570  -0.97517
 Alpha  occ. eigenvalues --   -0.96696  -0.95925  -0.93228  -0.91096  -0.88302
 Alpha  occ. eigenvalues --   -0.86101  -0.84489  -0.84005  -0.83749  -0.82828
 Alpha  occ. eigenvalues --   -0.82598  -0.78930  -0.76406  -0.74921  -0.74651
 Alpha  occ. eigenvalues --   -0.74089  -0.73488  -0.73422  -0.71657  -0.70136
 Alpha  occ. eigenvalues --   -0.68553  -0.66873  -0.66852  -0.66455  -0.64925
 Alpha  occ. eigenvalues --   -0.64483  -0.64018  -0.63360  -0.63228  -0.62889
 Alpha  occ. eigenvalues --   -0.60884  -0.60525  -0.60177  -0.59711  -0.59555
 Alpha  occ. eigenvalues --   -0.59361  -0.58687  -0.57111  -0.56850  -0.56784
 Alpha  occ. eigenvalues --   -0.56113  -0.55888  -0.55340  -0.54512  -0.53927
 Alpha  occ. eigenvalues --   -0.53817  -0.53429  -0.53233  -0.52644  -0.52536
 Alpha  occ. eigenvalues --   -0.52435  -0.52208  -0.51828  -0.51269  -0.50720
 Alpha  occ. eigenvalues --   -0.50175  -0.49664  -0.49484  -0.49114  -0.48857
 Alpha  occ. eigenvalues --   -0.48429  -0.48367  -0.47873  -0.47547  -0.47520
 Alpha  occ. eigenvalues --   -0.47385  -0.45631  -0.45485  -0.44034  -0.42310
 Alpha  occ. eigenvalues --   -0.41779  -0.39636  -0.39411  -0.37949  -0.37758
 Alpha  occ. eigenvalues --   -0.37262  -0.36715  -0.36126  -0.35606  -0.34954
 Alpha  occ. eigenvalues --   -0.34118  -0.34031  -0.33324  -0.33160  -0.32707
 Alpha  occ. eigenvalues --   -0.32376  -0.32002  -0.31943  -0.31778  -0.31470
 Alpha  occ. eigenvalues --   -0.30951  -0.28720  -0.26388  -0.24575
 Alpha virt. eigenvalues --    0.03088   0.04303   0.07112   0.07391   0.08319
 Alpha virt. eigenvalues --    0.08892   0.10104   0.10364   0.10785   0.12536
 Alpha virt. eigenvalues --    0.12855   0.13635   0.13993   0.14341   0.14913

 Mulliken charges:
               1
     1  N   -0.311520
     2  C    0.180939
     3  C    0.031485
     4  N   -0.259904
     5  C    0.135130
     6  H    0.028492
     7  N   -0.286602
     8  C    0.126283
     9  H    0.009512
    10  N   -0.286876
    11  C    0.243986
    12  C    0.123806
    13  N   -0.058012
    14  H    0.107263
    15  H    0.088476
    16  H    0.026293
    17  H    0.035358
    18  H    0.027335
    19  N   -0.307151
    20  C    0.219862
    21  C    0.182473
    22  N   -0.075509
    23  H    0.113148
    24  H    0.103981
    25  N   -0.241214
    26  C    0.138120
    27  N   -0.089987
    28  H    0.118610
    29  C    0.145183
    30  O   -0.320025
    31  C   -0.006066
    32  N   -0.216793
    33  C    0.129594
    34  H    0.032145
    35  H    0.027594
    36  H    0.027102
    37  H    0.025219
    38  H    0.061443
    39  H    0.059626
    40  H    0.071628
    41  H    0.031994
    42  C   -0.112310
    43  O   -0.264817
    44  C    0.178400
    45  H    0.134940
    46  N   -0.140856
    47  O   -0.349488
    48  C    0.365838
    49  H    0.047926
    50  C    0.171951
    51  C    0.043754
    52  N   -0.297650
    53  H   -0.002009
    54  H    0.025605
    55  H   -0.022217
    56  H    0.121380
    57  H    0.115625
    58  N   -0.067538
    59  C    0.112345
    60  C    0.211845
    61  N   -0.255626
    62  H    0.060765
    63  C    0.155103
    64  N   -0.296875
    65  H    0.029137
    66  C    0.121166
    67  N   -0.262456
    68  C    0.036271
    69  C    0.264912
    70  N   -0.317539
 Sum of Mulliken charges =  -0.00000

 Dipole moment (field-independent basis, Debye):
    X=              7.2953    Y=              5.1276    Z=              3.4362  Tot=              9.5563
 Quadrupole moment (field-independent basis, Debye-Ang):
   XX=           -146.2981   YY=           -221.1239   ZZ=           -254.0639
   XY=              3.8660   XZ=             13.6849   YZ=            -12.8370

 Normal termination of Gaussian 16 at Wed Jan 24 18:54:11 2018.
