 Gaussian 16, Revision A.03,
 Gaussian 16:  EM64L-G16RevA.03 25-Dec-2016

 ---------------------------------------
 #p wb97xd/cc-pvdz sp scf=(maxcycles=20)
 ---------------------------------------

 ------------------
 Base pair stacking
 ------------------
 Symbolic Z-matrix:
 Charge =  0 Multiplicity = 1

                         Standard orientation:
 ---------------------------------------------------------------------
 Center     Atomic      Atomic             Coordinates (Angstroms)
 Number     Number       Type             X           Y           Z
 ---------------------------------------------------------------------
      1          7           0        4.239401   -2.227289   -1.896390
      2          6           0        5.620749   -1.883641   -2.285993
      3          6           0        2.073891   -2.143853   -1.520998
      4          7           0        2.488686   -3.406007   -1.121433
      5          6           0        3.776722   -3.405758   -1.363584
      6          1           0        4.443957   -4.246365   -1.170934
      7          7           0        0.745041   -0.251806   -1.987104
      8          6           0        1.866187    0.334373   -2.419561
      9          1           0        1.747316    1.354173   -2.783049
     10          7           0        3.106290   -0.147793   -2.470196
     11          6           0        3.141924   -1.405933   -2.000888
     12          6           0        0.814064   -1.517944   -1.521047
     13          7           0       -0.303994   -2.104776   -1.088911
     14          1           0       -0.299743   -3.040899   -0.735539
     15          1           0       -1.183500   -1.628964   -1.103647
     16          1           0        5.937266   -2.518183   -2.991233
     17          1           0        5.644668   -0.950521   -2.643520
     18          1           0        6.220244   -1.948603   -1.488252
     19          7           0        5.029616    2.740784    0.647507
     20          6           0        3.700716    2.460977    0.856713
     21          6           0        5.583297    4.075397    0.342617
     22          7           0        0.399896    3.521142    1.062642
     23          1           0       -0.495499    3.114764    1.242539
     24          1           0        0.423934    4.505103    0.883877
     25          7           0        2.685636    3.351067    0.819211
     26          6           0        1.518657    2.780690    1.060966
     27          7           0        1.356035    1.441271    1.319860
     28          1           0        0.426017    1.092253    1.493656
     29          6           0        2.386196    0.507073    1.363433
     30          8           0        2.131869   -0.679202    1.605942
     31          6           0        3.645958    1.104937    1.105651
     32          7           0        4.914944    0.544700    1.053777
     33          6           0        5.701375    1.550042    0.779863
     34          1           0        6.783266    1.478251    0.663094
     35          1           0        6.045393    4.051963   -0.543219
     36          1           0        4.840595    4.743028    0.312254
     37          1           0        6.236531    4.337153    1.052260
     38          1           0       -4.508577   -0.124904    1.638793
     39          1           0       -4.251634   -0.094025    3.381685
     40          1           0       -3.321474    0.978542    2.334901
     41          1           0       -2.342563   -4.371888    2.285360
     42          6           0       -2.084475   -3.314353    2.228589
     43          8           0        0.230728   -3.708290    1.894251
     44          6           0       -0.719886   -2.936830    2.020724
     45          1           0        0.449323   -1.269344    1.818823
     46          7           0       -0.502585   -1.574896    1.964569
     47          8           0       -1.151961    0.600472    2.021765
     48          6           0       -1.441632   -0.581351    2.085400
     49          1           0       -4.074589   -2.602720    2.509366
     50          6           0       -3.022912   -2.368223    2.350164
     51          6           0       -3.772370    0.000886    2.418691
     52          7           0       -2.734360   -1.024833    2.283838
     53          1           0       -5.937201    3.960432   -2.522814
     54          1           0       -4.508807    4.030909   -1.737432
     55          1           0       -5.902038    4.263571   -0.919598
     56          1           0       -3.846246   -2.850537   -0.448155
     57          1           0       -5.480035   -2.362959   -0.503968
     58          7           0       -4.512920   -2.115534   -0.572513
     59          6           0       -4.130357   -0.860890   -0.818857
     60          6           0       -4.479354    1.453070   -1.249569
     61          7           0       -3.173609    1.756240   -1.336262
     62          1           0       -1.352040    0.826625   -1.200875
     63          6           0       -2.428408    0.669163   -1.146938
     64          7           0       -2.809676   -0.588322   -0.900082
     65          1           0       -7.671105    1.967100   -1.275500
     66          6           0       -6.670260    1.538406   -1.216666
     67          7           0       -6.413433    0.274639   -0.982920
     68          6           0       -5.027864    0.206904   -1.001115
     69          6           0       -5.467200    3.756648   -1.664001
     70          7           0       -5.546205    2.309052   -1.387894
 ---------------------------------------------------------------------

 SCF Done:  E(RwB97XD) =  -2048.74556476     A.U. after   15 cycles

 The electronic state is 1-A.
 Alpha  occ. eigenvalues --  -19.25432 -19.21581 -19.20701 -14.52471 -14.51999
 Alpha  occ. eigenvalues --  -14.49099 -14.48958 -14.47839 -14.47314 -14.46943
 Alpha  occ. eigenvalues --  -14.46762 -14.45438 -14.44899 -14.44657 -14.42601
 Alpha  occ. eigenvalues --  -14.42176 -14.41305 -14.40601 -14.40441 -14.40241
 Alpha  occ. eigenvalues --  -10.45016 -10.41372 -10.40446 -10.39678 -10.38342
 Alpha  occ. eigenvalues --  -10.38025 -10.37669 -10.37416 -10.36144 -10.35341
 Alpha  occ. eigenvalues --  -10.34625 -10.34590 -10.33825 -10.33707 -10.33226
 Alpha  occ. eigenvalues --  -10.32952 -10.32772 -10.32745 -10.31210 -10.30922
 Alpha  occ. eigenvalues --  -10.29900 -10.28353 -10.28010  -1.18963  -1.15278
 Alpha  occ. eigenvalues --   -1.13330  -1.12595  -1.10834  -1.10513  -1.09804
 Alpha  occ. eigenvalues --   -1.08893  -1.08670  -1.05285  -1.04862  -1.01989
 Alpha  occ. eigenvalues --   -1.01072  -1.00339  -0.99852  -0.98716  -0.97294
 Alpha  occ. eigenvalues --   -0.96872  -0.96194  -0.92563  -0.90810  -0.87816
 Alpha  occ. eigenvalues --   -0.85959  -0.84377  -0.83241  -0.83163  -0.82751
 Alpha  occ. eigenvalues --   -0.81549  -0.78539  -0.77333  -0.75130  -0.74825
 Alpha  occ. eigenvalues --   -0.73757  -0.72943  -0.72530  -0.70761  -0.70591
 Alpha  occ. eigenvalues --   -0.67531  -0.67159  -0.66193  -0.65932  -0.64538
 Alpha  occ. eigenvalues --   -0.64460  -0.63653  -0.62722  -0.62404  -0.61924
 Alpha  occ. eigenvalues --   -0.60823  -0.60447  -0.59952  -0.59518  -0.59258
 Alpha  occ. eigenvalues --   -0.59119  -0.58468  -0.56884  -0.56220  -0.55790
 Alpha  occ. eigenvalues --   -0.55475  -0.55348  -0.55258  -0.54766  -0.54234
 Alpha  occ. eigenvalues --   -0.53802  -0.53643  -0.53537  -0.53103  -0.52966
 Alpha  occ. eigenvalues --   -0.52592  -0.52030  -0.51068  -0.50343  -0.50188
 Alpha  occ. eigenvalues --   -0.50027  -0.49658  -0.49466  -0.49148  -0.48882
 Alpha  occ. eigenvalues --   -0.48473  -0.48244  -0.48020  -0.47854  -0.47259
 Alpha  occ. eigenvalues --   -0.46419  -0.45638  -0.45427  -0.44605  -0.43602
 Alpha  occ. eigenvalues --   -0.40910  -0.40845  -0.39126  -0.38039  -0.37819
 Alpha  occ. eigenvalues --   -0.37512  -0.37428  -0.36569  -0.35457  -0.35149
 Alpha  occ. eigenvalues --   -0.34699  -0.34155  -0.33091  -0.33032  -0.32939
 Alpha  occ. eigenvalues --   -0.32682  -0.32593  -0.32031  -0.31622  -0.30466
 Alpha  occ. eigenvalues --   -0.30340  -0.30069  -0.25928  -0.25307
 Alpha virt. eigenvalues --    0.03225   0.03904   0.06712   0.08336   0.08790
 Alpha virt. eigenvalues --    0.09093   0.09635   0.10419   0.11285   0.11384
 Alpha virt. eigenvalues --    0.13739   0.14280   0.14468   0.14914   0.15077

 Mulliken charges:
               1
     1  N   -0.311581
     2  C    0.183961
     3  C    0.058872
     4  N   -0.253467
     5  C    0.145969
     6  H    0.027127
     7  N   -0.297688
     8  C    0.128899
     9  H    0.010518
    10  N   -0.281882
    11  C    0.257394
    12  C    0.086161
    13  N   -0.069929
    14  H    0.114132
    15  H    0.082013
    16  H    0.019486
    17  H    0.030789
    18  H    0.032386
    19  N   -0.311368
    20  C    0.253985
    21  C    0.181008
    22  N   -0.123843
    23  H    0.119776
    24  H    0.118254
    25  N   -0.312768
    26  C    0.249231
    27  N   -0.147311
    28  H    0.120633
    29  C    0.191985
    30  O   -0.319980
    31  C   -0.010684
    32  N   -0.233228
    33  C    0.125147
    34  H    0.023194
    35  H    0.027721
    36  H    0.030144
    37  H    0.025295
    38  H    0.062800
    39  H    0.058158
    40  H    0.075849
    41  H    0.027076
    42  C   -0.118300
    43  O   -0.254385
    44  C    0.157662
    45  H    0.136161
    46  N   -0.122078
    47  O   -0.352328
    48  C    0.354861
    49  H    0.040410
    50  C    0.163203
    51  C    0.038009
    52  N   -0.278680
    53  H    0.034073
    54  H    0.041397
    55  H    0.029985
    56  H    0.116630
    57  H    0.119327
    58  N   -0.065170
    59  C    0.077552
    60  C    0.248977
    61  N   -0.272602
    62  H    0.033613
    63  C    0.178053
    64  N   -0.314600
    65  H    0.039446
    66  C    0.141975
    67  N   -0.261430
    68  C    0.026002
    69  C    0.180335
    70  N   -0.312333
 Sum of Mulliken charges =  -0.00000

 Dipole moment (field-independent basis, Debye):
    X=             -8.2957    Y=              6.7388    Z=             -0.0035  Tot=             10.6878
 Quadrupole moment (field-independent basis, Debye-Ang):
   XX=           -169.3768   YY=           -214.3060   ZZ=           -248.6817
   XY=              5.9363   XZ=            -17.5077   YZ=              3.5135

 Normal termination of Gaussian 16 at Wed Jan 24 14:50:35 2018.
