 Gaussian 16, Revision A.03,
 Gaussian 16:  EM64L-G16RevA.03 25-Dec-2016

 ---------------------------------------
 #p wb97xd/cc-pvdz sp scf=(maxcycles=20)
 ---------------------------------------

 ------------------
 Base pair stacking
 ------------------
 Symbolic Z-matrix:
 Charge =  0 Multiplicity = 1

                         Standard orientation:
 ---------------------------------------------------------------------
 Center     Atomic      Atomic             Coordinates (Angstroms)
 Number     Number       Type             X           Y           Z
 ---------------------------------------------------------------------
      1          7           0       -6.674291   -1.578385    0.437941
      2          6           0       -8.058184   -1.087201    0.290997
      3          6           0       -4.499944   -1.688272    0.750092
      4          7           0       -4.926149   -2.989446    0.526448
      5          6           0       -6.219055   -2.871168    0.347341
      6          1           0       -6.895370   -3.701947    0.144012
      7          7           0       -3.151307    0.197501    1.183683
      8          6           0       -4.272120    0.922177    1.104826
      9          1           0       -4.144845    1.993331    1.255440
     10          7           0       -5.520664    0.524202    0.868947
     11          6           0       -5.566257   -0.807451    0.698567
     12          6           0       -3.230466   -1.139594    1.007609
     13          7           0       -2.112753   -1.864677    1.085955
     14          1           0       -2.124329   -2.857548    0.962282
     15          1           0       -1.226213   -1.440402    1.270841
     16          1           0       -8.640409   -1.515166    0.982404
     17          1           0       -8.074917   -0.094934    0.410360
     18          1           0       -8.400891   -1.317495   -0.619779
     19          7           0       -2.485794    2.791896   -1.728251
     20          6           0       -1.182884    2.410512   -1.516071
     21          6           0       -3.005086    4.167825   -1.594695
     22          7           0        2.087314    3.216947   -0.669175
     23          1           0        2.960979    2.742319   -0.565901
     24          1           0        2.082667    4.201954   -0.494632
     25          7           0       -0.166317    3.222126   -1.152841
     26          6           0        0.971557    2.562805   -1.025668
     27          7           0        1.105757    1.212035   -1.237550
     28          1           0        2.014621    0.792041   -1.116970
     29          6           0        0.073484    0.357508   -1.611796
     30          8           0        0.300936   -0.847286   -1.777614
     31          6           0       -1.155199    1.051389   -1.752334
     32          7           0       -2.415367    0.588820   -2.105740
     33          6           0       -3.170175    1.653584   -2.078282
     34          1           0       -4.236697    1.664728   -2.305626
     35          1           0       -3.720795    4.189544   -0.897496
     36          1           0       -2.260973    4.778024   -1.325944
     37          1           0       -3.382814    4.469684   -2.469351
     38          1           0        6.642291   -0.794392    0.268899
     39          1           0        6.944818   -0.764598   -1.466682
     40          1           0        5.817877    0.387020   -0.748944
     41          1           0        4.473517   -4.873697   -1.073589
     42          6           0        4.290761   -3.799144   -1.087000
     43          8           0        1.964068   -4.013927   -1.496258
     44          6           0        2.961808   -3.317676   -1.310390
     45          1           0        1.916641   -1.564733   -1.462478
     46          7           0        2.840751   -1.942695   -1.307886
     47          8           0        3.636973    0.176863   -1.132712
     48          6           0        3.842452   -1.024060   -1.117507
     49          1           0        6.316702   -3.242526   -0.724297
     50          6           0        5.288571   -2.927761   -0.898104
     51          6           0        6.197675   -0.622687   -0.700077
     52          7           0        5.095452   -1.565792   -0.908396
     53          1           0        3.531089    4.102867    2.849797
     54          1           0        2.414436    4.044698    1.661596
     55          1           0        4.003466    4.006651    1.290619
     56          1           0        1.347094   -2.905525    1.764423
     57          1           0        2.938591   -2.494334    2.220660
     58          7           0        2.030349   -2.193696    1.927511
     59          6           0        1.744103   -0.900734    1.761724
     60          6           0        2.223577    1.429889    1.764017
     61          7           0        0.995355    1.804451    1.369548
     62          1           0       -0.803429    0.954230    0.877507
     63          6           0        0.214853    0.739308    1.198689
     64          7           0        0.499691   -0.556476    1.364214
     65          1           0        5.305028    1.788157    2.674197
     66          6           0        4.321881    1.404305    2.400306
     67          7           0        3.996764    0.134841    2.379712
     68          6           0        2.668881    0.137034    1.977902
     69          6           0        3.312657    3.717266    1.953357
     70          7           0        3.296739    2.244025    2.038777
 ---------------------------------------------------------------------

 SCF Done:  E(RwB97XD) =  -2048.72426485     A.U. after   15 cycles

 The electronic state is 1-A.
 Alpha  occ. eigenvalues --  -19.25947 -19.22133 -19.20667 -14.52510 -14.51965
 Alpha  occ. eigenvalues --  -14.48898 -14.48762 -14.47969 -14.47385 -14.46719
 Alpha  occ. eigenvalues --  -14.46681 -14.44890 -14.43363 -14.42888 -14.42355
 Alpha  occ. eigenvalues --  -14.42042 -14.41572 -14.41059 -14.40745 -14.40270
 Alpha  occ. eigenvalues --  -10.45573 -10.41271 -10.40244 -10.39089 -10.38238
 Alpha  occ. eigenvalues --  -10.37928 -10.37478 -10.36348 -10.35547 -10.35220
 Alpha  occ. eigenvalues --  -10.34746 -10.34381 -10.34232 -10.33836 -10.33505
 Alpha  occ. eigenvalues --  -10.33247 -10.33190 -10.31903 -10.31229 -10.31059
 Alpha  occ. eigenvalues --  -10.30880 -10.28677 -10.28133  -1.19518  -1.14645
 Alpha  occ. eigenvalues --   -1.13305  -1.13144  -1.11484  -1.10595  -1.09400
 Alpha  occ. eigenvalues --   -1.08769  -1.08363  -1.05105  -1.03972  -1.02597
 Alpha  occ. eigenvalues --   -1.00620  -1.00572  -0.99845  -0.98552  -0.97105
 Alpha  occ. eigenvalues --   -0.96561  -0.95980  -0.92762  -0.91156  -0.87064
 Alpha  occ. eigenvalues --   -0.85585  -0.84138  -0.84069  -0.83674  -0.82524
 Alpha  occ. eigenvalues --   -0.82440  -0.78975  -0.76382  -0.74719  -0.74068
 Alpha  occ. eigenvalues --   -0.73790  -0.73452  -0.73040  -0.71201  -0.69807
 Alpha  occ. eigenvalues --   -0.67516  -0.66647  -0.66446  -0.66148  -0.64530
 Alpha  occ. eigenvalues --   -0.63827  -0.63690  -0.62849  -0.62773  -0.62036
 Alpha  occ. eigenvalues --   -0.60401  -0.60022  -0.59893  -0.59593  -0.59422
 Alpha  occ. eigenvalues --   -0.58964  -0.58491  -0.56954  -0.56635  -0.56490
 Alpha  occ. eigenvalues --   -0.56033  -0.55551  -0.55438  -0.54722  -0.54420
 Alpha  occ. eigenvalues --   -0.53723  -0.53539  -0.53152  -0.52976  -0.52624
 Alpha  occ. eigenvalues --   -0.52435  -0.52145  -0.51872  -0.50866  -0.50325
 Alpha  occ. eigenvalues --   -0.50191  -0.49508  -0.49401  -0.48903  -0.48796
 Alpha  occ. eigenvalues --   -0.48660  -0.48329  -0.48150  -0.48125  -0.47448
 Alpha  occ. eigenvalues --   -0.47087  -0.45748  -0.45173  -0.44095  -0.43204
 Alpha  occ. eigenvalues --   -0.41310  -0.39933  -0.39500  -0.37590  -0.37323
 Alpha  occ. eigenvalues --   -0.37257  -0.37003  -0.36743  -0.35820  -0.34347
 Alpha  occ. eigenvalues --   -0.33958  -0.33652  -0.33546  -0.33292  -0.32951
 Alpha  occ. eigenvalues --   -0.32695  -0.32401  -0.32064  -0.31834  -0.30996
 Alpha  occ. eigenvalues --   -0.30493  -0.28966  -0.25930  -0.25428
 Alpha virt. eigenvalues --    0.02935   0.04539   0.07502   0.07750   0.08597
 Alpha virt. eigenvalues --    0.09238   0.09492   0.10821   0.11412   0.11989
 Alpha virt. eigenvalues --    0.12697   0.13954   0.14269   0.14735   0.14798

 Mulliken charges:
               1
     1  N   -0.311741
     2  C    0.180989
     3  C    0.036211
     4  N   -0.259729
     5  C    0.134342
     6  H    0.026962
     7  N   -0.290277
     8  C    0.131969
     9  H    0.008894
    10  N   -0.290335
    11  C    0.244569
    12  C    0.125236
    13  N   -0.056253
    14  H    0.108606
    15  H    0.088550
    16  H    0.025509
    17  H    0.033968
    18  H    0.026562
    19  N   -0.310355
    20  C    0.233834
    21  C    0.181039
    22  N   -0.099227
    23  H    0.115691
    24  H    0.113460
    25  N   -0.286449
    26  C    0.202491
    27  N   -0.113580
    28  H    0.116284
    29  C    0.138760
    30  O   -0.316153
    31  C    0.016575
    32  N   -0.221993
    33  C    0.126927
    34  H    0.029296
    35  H    0.028889
    36  H    0.027747
    37  H    0.024711
    38  H    0.063006
    39  H    0.058267
    40  H    0.072695
    41  H    0.031432
    42  C   -0.114159
    43  O   -0.266402
    44  C    0.170743
    45  H    0.135307
    46  N   -0.132907
    47  O   -0.348297
    48  C    0.358616
    49  H    0.048359
    50  C    0.171692
    51  C    0.042948
    52  N   -0.292873
    53  H    0.036393
    54  H    0.041955
    55  H    0.016007
    56  H    0.125320
    57  H    0.114390
    58  N   -0.066225
    59  C    0.096456
    60  C    0.214897
    61  N   -0.257924
    62  H    0.059529
    63  C    0.157460
    64  N   -0.298816
    65  H    0.031548
    66  C    0.133369
    67  N   -0.266320
    68  C    0.036937
    69  C    0.165789
    70  N   -0.311167
 Sum of Mulliken charges =  -0.00000

 Dipole moment (field-independent basis, Debye):
    X=              8.0699    Y=              5.4270    Z=              2.7661  Tot=             10.1107
 Quadrupole moment (field-independent basis, Debye-Ang):
   XX=           -150.4715   YY=           -218.2245   ZZ=           -253.3375
   XY=              1.1217   XZ=              9.3601   YZ=             -9.6447

 Normal termination of Gaussian 16 at Thu Jan 25 03:03:47 2018.
