 Gaussian 16, Revision A.03,
 Gaussian 16:  EM64L-G16RevA.03 25-Dec-2016

 ---------------------------------------
 #p wb97xd/cc-pvdz sp scf=(maxcycles=20)
 ---------------------------------------

 ------------------
 Base pair stacking
 ------------------
 Symbolic Z-matrix:
 Charge =  0 Multiplicity = 1

                         Standard orientation:
 ---------------------------------------------------------------------
 Center     Atomic      Atomic             Coordinates (Angstroms)
 Number     Number       Type             X           Y           Z
 ---------------------------------------------------------------------
      1          7           0       -6.982858   -1.540347    0.184409
      2          6           0       -8.378931   -1.062729    0.154707
      3          6           0       -4.803261   -1.661940    0.452511
      4          7           0       -5.202757   -2.894827   -0.042576
      5          6           0       -6.499900   -2.772231   -0.184281
      6          1           0       -7.159699   -3.556219   -0.557046
      7          7           0       -3.492364    0.119099    1.272510
      8          6           0       -4.629889    0.816480    1.357806
      9          1           0       -4.524911    1.833194    1.734020
     10          7           0       -5.871778    0.448237    1.049602
     11          6           0       -5.889505   -0.816631    0.597685
     12          6           0       -3.543581   -1.150658    0.814063
     13          7           0       -2.409143   -1.848409    0.728196
     14          1           0       -2.399908   -2.791660    0.394393
     15          1           0       -1.530298   -1.452314    0.994444
     16          1           0       -8.943725   -1.642947    0.741679
     17          1           0       -8.416499   -0.119821    0.484340
     18          1           0       -8.726518   -1.100607   -0.782172
     19          7           0       -2.062924    2.936395   -1.851647
     20          6           0       -0.768102    2.527243   -1.641691
     21          6           0       -2.529111    4.337476   -1.833211
     22          7           0        2.553685    3.284284   -0.967600
     23          1           0        3.413001    2.788513   -0.845075
     24          1           0        2.589157    4.280698   -0.886276
     25          7           0        0.287359    3.329948   -1.385344
     26          6           0        1.404879    2.642639   -1.229213
     27          7           0        1.484794    1.273909   -1.317007
     28          1           0        2.381744    0.832791   -1.183393
     29          6           0        0.411777    0.428078   -1.579850
     30          8           0        0.591425   -0.794648   -1.638164
     31          6           0       -0.795655    1.151992   -1.749949
     32          7           0       -2.081889    0.706713   -2.022384
     33          6           0       -2.797618    1.797275   -2.073604
     34          1           0       -3.869791    1.827680   -2.270585
     35          1           0       -3.221060    4.450927   -1.121067
     36          1           0       -1.755878    4.941344   -1.644218
     37          1           0       -2.923685    4.570937   -2.721254
     38          1           0        6.992686   -0.792408    0.213248
     39          1           0        7.240658   -0.935338   -1.525358
     40          1           0        6.178243    0.319813   -0.887211
     41          1           0        4.640495   -4.893571   -0.677962
     42          6           0        4.495216   -3.818758   -0.787033
     43          8           0        2.150574   -3.982261   -1.108012
     44          6           0        3.177538   -3.310080   -1.016789
     45          1           0        2.190186   -1.540478   -1.303096
     46          7           0        3.104920   -1.937201   -1.140015
     47          8           0        3.980196    0.157751   -1.187397
     48          6           0        4.143791   -1.043490   -1.065313
     49          1           0        6.549961   -3.308070   -0.535951
     50          6           0        5.528485   -2.972051   -0.709265
     51          6           0        6.523738   -0.694668   -0.754539
     52          7           0        5.383038   -1.610579   -0.841942
     53          1           0        3.119229    3.737014    3.697339
     54          1           0        1.991022    3.907931    2.531144
     55          1           0        3.576280    3.988786    2.151007
     56          1           0        1.080428   -2.926462    1.146476
     57          1           0        2.667320   -2.584242    1.670651
     58          7           0        1.749384   -2.249824    1.454371
     59          6           0        1.432491   -0.958699    1.571671
     60          6           0        1.859773    1.328141    2.071167
     61          7           0        0.619181    1.748720    1.773735
     62          1           0       -1.165524    0.980485    1.121614
     63          6           0       -0.139184    0.726412    1.383015
     64          7           0        0.176361   -0.567441    1.264870
     65          1           0        4.942386    1.557420    3.018315
     66          6           0        3.965070    1.217531    2.674399
     67          7           0        3.668189   -0.025490    2.383820
     68          6           0        2.336200    0.030661    1.999914
     69          6           0        2.899522    3.547408    2.740379
     70          7           0        2.917472    2.090165    2.507732
 ---------------------------------------------------------------------

 SCF Done:  E(RwB97XD) =  -2048.74394923     A.U. after   15 cycles

 The electronic state is 1-A.
 Alpha  occ. eigenvalues --  -19.26125 -19.22676 -19.20900 -14.52807 -14.51210
 Alpha  occ. eigenvalues --  -14.48980 -14.48783 -14.48266 -14.47436 -14.47282
 Alpha  occ. eigenvalues --  -14.46289 -14.44258 -14.42687 -14.42576 -14.42388
 Alpha  occ. eigenvalues --  -14.41979 -14.41454 -14.40987 -14.40845 -14.40060
 Alpha  occ. eigenvalues --  -10.45812 -10.41659 -10.40718 -10.38543 -10.38281
 Alpha  occ. eigenvalues --  -10.38255 -10.36811 -10.35736 -10.35521 -10.35311
 Alpha  occ. eigenvalues --  -10.34620 -10.34137 -10.34110 -10.33447 -10.33359
 Alpha  occ. eigenvalues --  -10.33026 -10.32973 -10.31538 -10.31245 -10.31032
 Alpha  occ. eigenvalues --  -10.30965 -10.28521 -10.28406  -1.19737  -1.13897
 Alpha  occ. eigenvalues --   -1.13663  -1.13531  -1.11363  -1.10833  -1.09696
 Alpha  occ. eigenvalues --   -1.08988  -1.07606  -1.04900  -1.03249  -1.02893
 Alpha  occ. eigenvalues --   -1.00329  -1.00316  -0.99652  -0.98838  -0.96944
 Alpha  occ. eigenvalues --   -0.96798  -0.95190  -0.92535  -0.91487  -0.86283
 Alpha  occ. eigenvalues --   -0.84717  -0.84375  -0.83982  -0.83933  -0.82717
 Alpha  occ. eigenvalues --   -0.82302  -0.79298  -0.75589  -0.74915  -0.74094
 Alpha  occ. eigenvalues --   -0.73776  -0.73278  -0.72847  -0.71007  -0.68971
 Alpha  occ. eigenvalues --   -0.67792  -0.66952  -0.66240  -0.65328  -0.64830
 Alpha  occ. eigenvalues --   -0.64083  -0.62998  -0.62837  -0.62548  -0.62178
 Alpha  occ. eigenvalues --   -0.60130  -0.59914  -0.59911  -0.59093  -0.58946
 Alpha  occ. eigenvalues --   -0.58698  -0.58209  -0.56841  -0.56440  -0.56401
 Alpha  occ. eigenvalues --   -0.56287  -0.55281  -0.54794  -0.54642  -0.54035
 Alpha  occ. eigenvalues --   -0.53967  -0.53693  -0.53239  -0.52777  -0.52547
 Alpha  occ. eigenvalues --   -0.52249  -0.51706  -0.51491  -0.50712  -0.50487
 Alpha  occ. eigenvalues --   -0.50140  -0.49825  -0.49267  -0.49120  -0.49009
 Alpha  occ. eigenvalues --   -0.48548  -0.48444  -0.47977  -0.47793  -0.47688
 Alpha  occ. eigenvalues --   -0.46915  -0.45444  -0.45045  -0.44505  -0.43148
 Alpha  occ. eigenvalues --   -0.41106  -0.39736  -0.39363  -0.37671  -0.37536
 Alpha  occ. eigenvalues --   -0.37139  -0.36792  -0.36144  -0.35716  -0.34855
 Alpha  occ. eigenvalues --   -0.33811  -0.33548  -0.33458  -0.33057  -0.32961
 Alpha  occ. eigenvalues --   -0.32651  -0.32520  -0.32427  -0.32081  -0.30913
 Alpha  occ. eigenvalues --   -0.30281  -0.28500  -0.25797  -0.25673
 Alpha virt. eigenvalues --    0.02528   0.05345   0.07826   0.08008   0.08426
 Alpha virt. eigenvalues --    0.09321   0.09384   0.11057   0.11540   0.12189
 Alpha virt. eigenvalues --    0.12672   0.13984   0.14550   0.14796   0.15427

 Mulliken charges:
               1
     1  N   -0.310777
     2  C    0.180979
     3  C    0.030769
     4  N   -0.258241
     5  C    0.132668
     6  H    0.026296
     7  N   -0.291419
     8  C    0.131125
     9  H    0.009785
    10  N   -0.290279
    11  C    0.239951
    12  C    0.124369
    13  N   -0.052776
    14  H    0.109645
    15  H    0.090536
    16  H    0.025540
    17  H    0.034720
    18  H    0.025402
    19  N   -0.311470
    20  C    0.248038
    21  C    0.181706
    22  N   -0.123010
    23  H    0.115521
    24  H    0.117462
    25  N   -0.301085
    26  C    0.235926
    27  N   -0.129031
    28  H    0.115874
    29  C    0.164078
    30  O   -0.321066
    31  C   -0.004501
    32  N   -0.220940
    33  C    0.131692
    34  H    0.031154
    35  H    0.030333
    36  H    0.028205
    37  H    0.025100
    38  H    0.063071
    39  H    0.059926
    40  H    0.074098
    41  H    0.032571
    42  C   -0.109366
    43  O   -0.272766
    44  C    0.151073
    45  H    0.136323
    46  N   -0.126565
    47  O   -0.350844
    48  C    0.361837
    49  H    0.050474
    50  C    0.176318
    51  C    0.043132
    52  N   -0.294618
    53  H    0.031149
    54  H    0.044627
    55  H    0.013853
    56  H    0.128427
    57  H    0.112190
    58  N   -0.053626
    59  C    0.096704
    60  C    0.239662
    61  N   -0.262734
    62  H    0.046156
    63  C    0.153148
    64  N   -0.296974
    65  H    0.027993
    66  C    0.129415
    67  N   -0.269819
    68  C    0.022745
    69  C    0.180085
    70  N   -0.309942
 Sum of Mulliken charges =  -0.00000

 Dipole moment (field-independent basis, Debye):
    X=              8.7361    Y=              5.4977    Z=              1.4023  Tot=             10.4168
 Quadrupole moment (field-independent basis, Debye-Ang):
   XX=           -147.6426   YY=           -217.0592   ZZ=           -249.3231
   XY=              1.1649   XZ=             12.3596   YZ=             -5.7173

 Normal termination of Gaussian 16 at Wed Jan 24 18:31:41 2018.
