 Gaussian 16, Revision A.03,
 Gaussian 16:  EM64L-G16RevA.03 25-Dec-2016

 ---------------------------------------
 #p wb97xd/cc-pvdz sp scf=(maxcycles=20)
 ---------------------------------------

 ------------------
 Base pair stacking
 ------------------
 Symbolic Z-matrix:
 Charge =  0 Multiplicity = 1

                         Standard orientation:
 ---------------------------------------------------------------------
 Center     Atomic      Atomic             Coordinates (Angstroms)
 Number     Number       Type             X           Y           Z
 ---------------------------------------------------------------------
      1          7           0        4.269522   -1.990662   -1.858416
      2          6           0        5.674987   -1.582978   -2.049366
      3          6           0        2.082197   -1.968510   -1.629396
      4          7           0        2.469136   -3.297261   -1.532370
      5          6           0        3.771420   -3.257432   -1.674225
      6          1           0        4.424423   -4.130398   -1.652664
      7          7           0        0.787305    0.001678   -1.696980
      8          6           0        1.935923    0.659148   -1.886709
      9          1           0        1.841969    1.739417   -1.988911
     10          7           0        3.177344    0.184764   -1.968745
     11          6           0        3.181032   -1.151378   -1.830426
     12          6           0        0.824531   -1.341947   -1.561436
     13          7           0       -0.320987   -2.000018   -1.371975
     14          1           0       -0.340763   -2.994865   -1.266606
     15          1           0       -1.197983   -1.521301   -1.328926
     16          1           0        6.043463   -2.024877   -2.867372
     17          1           0        5.723166   -0.590449   -2.157497
     18          1           0        6.214669   -1.856416   -1.253143
     19          7           0        5.020787    2.627923    0.685706
     20          6           0        3.686714    2.327056    0.819078
     21          6           0        5.565937    3.955883    0.339238
     22          7           0        0.357678    3.312696    0.731162
     23          1           0       -0.539298    2.894896    0.873039
     24          1           0        0.373233    4.284649    0.494950
     25          7           0        2.658014    3.187091    0.657321
     26          6           0        1.489349    2.602340    0.851978
     27          7           0        1.337548    1.276871    1.180013
     28          1           0        0.405249    0.915058    1.309941
     29          6           0        2.381803    0.373564    1.351550
     30          8           0        2.136418   -0.802393    1.647603
     31          6           0        3.643539    0.987183    1.145674
     32          7           0        4.924717    0.457526    1.215945
     33          6           0        5.706841    1.464693    0.936458
     34          1           0        6.795570    1.413834    0.899428
     35          1           0        6.089847    3.891885   -0.509433
     36          1           0        4.813125    4.601314    0.216971
     37          1           0        6.161674    4.275825    1.075136
     38          1           0       -4.500096   -0.417302    1.186984
     39          1           0       -4.367614   -0.276733    2.938366
     40          1           0       -3.388999    0.755443    1.895150
     41          1           0       -2.294792   -4.561722    2.239147
     42          6           0       -2.056019   -3.503135    2.136128
     43          8           0        0.284906   -3.856774    1.987424
     44          6           0       -0.688547   -3.103774    2.000626
     45          1           0        0.456049   -1.421776    1.779039
     46          7           0       -0.497014   -1.742430    1.876874
     47          8           0       -1.195197    0.415169    1.756515
     48          6           0       -1.463292   -0.767834    1.871744
     49          1           0       -4.075768   -2.827314    2.234666
     50          6           0       -3.020735   -2.575800    2.134668
     51          6           0       -3.823667   -0.226758    2.006862
     52          7           0       -2.757026   -1.231749    2.006846
     53          1           0       -5.846075    4.323228   -1.628347
     54          1           0       -4.479075    4.170247   -0.750852
     55          1           0       -5.928831    4.212751   -0.002198
     56          1           0       -3.899148   -2.824240   -1.193962
     57          1           0       -5.525425   -2.311322   -1.241340
     58          7           0       -4.556377   -2.070653   -1.176215
     59          6           0       -4.159269   -0.800899   -1.070440
     60          6           0       -4.480355    1.552454   -0.927706
     61          7           0       -3.172351    1.846031   -0.841922
     62          1           0       -1.363752    0.882240   -0.815803
     63          6           0       -2.440866    0.734100   -0.880115
     64          7           0       -2.836716   -0.538558   -0.986023
     65          1           0       -7.662654    2.109225   -1.050582
     66          6           0       -6.667961    1.663009   -1.030559
     67          7           0       -6.426453    0.377026   -1.105220
     68          6           0       -5.043132    0.293113   -1.041126
     69          6           0       -5.439730    3.902237   -0.817398
     70          7           0       -5.535892    2.433250   -0.921448
 ---------------------------------------------------------------------

 SCF Done:  E(RwB97XD) =  -2048.74692613     A.U. after   15 cycles

 The electronic state is 1-A.
 Alpha  occ. eigenvalues --  -19.25131 -19.21179 -19.20507 -14.52696 -14.51636
 Alpha  occ. eigenvalues --  -14.49220 -14.48876 -14.48225 -14.47044 -14.46596
 Alpha  occ. eigenvalues --  -14.46453 -14.45625 -14.45103 -14.45001 -14.43157
 Alpha  occ. eigenvalues --  -14.41971 -14.41114 -14.41015 -14.40956 -14.40633
 Alpha  occ. eigenvalues --  -10.44684 -10.41077 -10.40702 -10.39307 -10.38193
 Alpha  occ. eigenvalues --  -10.38084 -10.37671 -10.37225 -10.36451 -10.35798
 Alpha  occ. eigenvalues --  -10.34293 -10.34095 -10.34045 -10.33682 -10.33527
 Alpha  occ. eigenvalues --  -10.33146 -10.33143 -10.33095 -10.31052 -10.30542
 Alpha  occ. eigenvalues --  -10.30071 -10.28465 -10.28073  -1.18695  -1.15508
 Alpha  occ. eigenvalues --   -1.13080  -1.12207  -1.10924  -1.10598  -1.10082
 Alpha  occ. eigenvalues --   -1.08566  -1.08405  -1.05563  -1.05298  -1.01675
 Alpha  occ. eigenvalues --   -1.01285  -1.00803  -0.99551  -0.98463  -0.97583
 Alpha  occ. eigenvalues --   -0.96649  -0.96604  -0.92990  -0.90407  -0.88089
 Alpha  occ. eigenvalues --   -0.86197  -0.84140  -0.83630  -0.82834  -0.82527
 Alpha  occ. eigenvalues --   -0.81854  -0.78182  -0.77578  -0.75407  -0.74572
 Alpha  occ. eigenvalues --   -0.73468  -0.72962  -0.72609  -0.71107  -0.70914
 Alpha  occ. eigenvalues --   -0.67409  -0.67246  -0.66348  -0.65859  -0.64763
 Alpha  occ. eigenvalues --   -0.64221  -0.63363  -0.62827  -0.62459  -0.61654
 Alpha  occ. eigenvalues --   -0.61056  -0.60740  -0.60286  -0.59872  -0.59072
 Alpha  occ. eigenvalues --   -0.58904  -0.58160  -0.56840  -0.56550  -0.55861
 Alpha  occ. eigenvalues --   -0.55619  -0.55578  -0.55530  -0.55044  -0.54070
 Alpha  occ. eigenvalues --   -0.53918  -0.53626  -0.53221  -0.53186  -0.52857
 Alpha  occ. eigenvalues --   -0.52075  -0.51780  -0.51384  -0.50450  -0.50371
 Alpha  occ. eigenvalues --   -0.50065  -0.49924  -0.49451  -0.48950  -0.48856
 Alpha  occ. eigenvalues --   -0.48673  -0.47945  -0.47805  -0.47588  -0.47015
 Alpha  occ. eigenvalues --   -0.46773  -0.45583  -0.45397  -0.44724  -0.43291
 Alpha  occ. eigenvalues --   -0.41318  -0.41123  -0.38903  -0.38225  -0.38085
 Alpha  occ. eigenvalues --   -0.37307  -0.37208  -0.36980  -0.35438  -0.35164
 Alpha  occ. eigenvalues --   -0.35038  -0.34067  -0.33495  -0.33312  -0.32854
 Alpha  occ. eigenvalues --   -0.32540  -0.32292  -0.31807  -0.31136  -0.30684
 Alpha  occ. eigenvalues --   -0.30570  -0.30404  -0.26300  -0.25108
 Alpha virt. eigenvalues --    0.03508   0.03719   0.06477   0.07947   0.09011
 Alpha virt. eigenvalues --    0.09308   0.09819   0.10202   0.10778   0.11559
 Alpha virt. eigenvalues --    0.13616   0.14463   0.14608   0.14629   0.14732

 Mulliken charges:
               1
     1  N   -0.310946
     2  C    0.184862
     3  C    0.065952
     4  N   -0.261205
     5  C    0.146715
     6  H    0.028478
     7  N   -0.288454
     8  C    0.119133
     9  H    0.017110
    10  N   -0.271664
    11  C    0.255310
    12  C    0.078574
    13  N   -0.070409
    14  H    0.111233
    15  H    0.082353
    16  H    0.019250
    17  H    0.030942
    18  H    0.034275
    19  N   -0.310779
    20  C    0.253882
    21  C    0.181563
    22  N   -0.117500
    23  H    0.122575
    24  H    0.116789
    25  N   -0.306379
    26  C    0.222685
    27  N   -0.123865
    28  H    0.116824
    29  C    0.164837
    30  O   -0.319057
    31  C    0.008428
    32  N   -0.234069
    33  C    0.121468
    34  H    0.021712
    35  H    0.026778
    36  H    0.029629
    37  H    0.024629
    38  H    0.065209
    39  H    0.056345
    40  H    0.078147
    41  H    0.027078
    42  C   -0.117133
    43  O   -0.259725
    44  C    0.172401
    45  H    0.136035
    46  N   -0.127330
    47  O   -0.348108
    48  C    0.353875
    49  H    0.041506
    50  C    0.163492
    51  C    0.036104
    52  N   -0.278219
    53  H    0.034531
    54  H    0.038761
    55  H    0.031418
    56  H    0.118231
    57  H    0.121027
    58  N   -0.063269
    59  C    0.058921
    60  C    0.242558
    61  N   -0.272651
    62  H    0.018692
    63  C    0.182999
    64  N   -0.306159
    65  H    0.040314
    66  C    0.141384
    67  N   -0.257932
    68  C    0.030769
    69  C    0.181058
    70  N   -0.311984
 Sum of Mulliken charges =  -0.00000

 Dipole moment (field-independent basis, Debye):
    X=             -8.4495    Y=              6.3399    Z=             -1.3984  Tot=             10.6558
 Quadrupole moment (field-independent basis, Debye-Ang):
   XX=           -168.9659   YY=           -215.8222   ZZ=           -251.7498
   XY=              7.6742   XZ=            -18.6352   YZ=              9.1033

 Normal termination of Gaussian 16 at Wed Jan 24 14:28:48 2018.
