 Gaussian 16, Revision A.03,
 Gaussian 16:  EM64L-G16RevA.03 25-Dec-2016

 ---------------------------------------
 #p wb97xd/cc-pvdz sp scf=(maxcycles=20)
 ---------------------------------------

 ------------------
 Base pair stacking
 ------------------
 Symbolic Z-matrix:
 Charge =  0 Multiplicity = 1

                         Standard orientation:
 ---------------------------------------------------------------------
 Center     Atomic      Atomic             Coordinates (Angstroms)
 Number     Number       Type             X           Y           Z
 ---------------------------------------------------------------------
      1          7           0       -6.972356   -1.541150    0.209473
      2          6           0       -8.364495   -1.055944    0.142174
      3          6           0       -4.795564   -1.662723    0.499492
      4          7           0       -5.201228   -2.919477    0.074352
      5          6           0       -6.496428   -2.795925   -0.083358
      6          1           0       -7.159761   -3.595524   -0.414400
      7          7           0       -3.476471    0.153554    1.223422
      8          6           0       -4.609159    0.862977    1.259932
      9          1           0       -4.498870    1.899126    1.576944
     10          7           0       -5.851788    0.486406    0.965016
     11          6           0       -5.876220   -0.802517    0.587517
     12          6           0       -3.534405   -1.140389    0.839453
     13          7           0       -2.404814   -1.850189    0.802380
     14          1           0       -2.400605   -2.811348    0.524222
     15          1           0       -1.524733   -1.445619    1.051237
     16          1           0       -8.937569   -1.596803    0.758004
     17          1           0       -8.397004   -0.095162    0.415997
     18          1           0       -8.706188   -1.145919   -0.793313
     19          7           0       -2.093891    2.888927   -1.834465
     20          6           0       -0.798126    2.487642   -1.615380
     21          6           0       -2.573300    4.285129   -1.795803
     22          7           0        2.507528    3.261884   -0.883967
     23          1           0        3.369791    2.771695   -0.759589
     24          1           0        2.532685    4.256863   -0.783500
     25          7           0        0.246441    3.294887   -1.330281
     26          6           0        1.368207    2.614907   -1.172525
     27          7           0        1.461979    1.248862   -1.284956
     28          1           0        2.361204    0.813447   -1.147987
     29          6           0        0.400358    0.398460   -1.577600
     30          8           0        0.592111   -0.821270   -1.656507
     31          6           0       -0.811472    1.114482   -1.749795
     32          7           0       -2.089904    0.662789   -2.047266
     33          6           0       -2.815039    1.747589   -2.087335
     34          1           0       -3.884825    1.771996   -2.297659
     35          1           0       -3.275370    4.378835   -1.090734
     36          1           0       -1.808208    4.892294   -1.585453
     37          1           0       -2.958574    4.531734   -2.684369
     38          1           0        6.968743   -0.796001    0.277858
     39          1           0        7.240364   -0.903794   -1.459741
     40          1           0        6.158195    0.329392   -0.812050
     41          1           0        4.666480   -4.900735   -0.720762
     42          6           0        4.512613   -3.825421   -0.811524
     43          8           0        2.173908   -4.004066   -1.166036
     44          6           0        3.193317   -3.324447   -1.048840
     45          1           0        2.193299   -1.558773   -1.314699
     46          7           0        3.109517   -1.950204   -1.147192
     47          8           0        3.965794    0.153117   -1.143832
     48          6           0        4.138977   -1.048691   -1.042198
     49          1           0        6.559114   -3.300957   -0.524146
     50          6           0        5.536876   -2.970996   -0.704418
     51          6           0        6.511385   -0.684240   -0.693944
     52          7           0        5.380470   -1.608638   -0.813385
     53          1           0        3.146556    3.858679    3.479501
     54          1           0        2.027383    3.969443    2.297433
     55          1           0        3.615678    4.016449    1.924359
     56          1           0        1.073567   -2.927323    1.307276
     57          1           0        2.659542   -2.566630    1.821733
     58          7           0        1.745649   -2.238743    1.579888
     59          6           0        1.437897   -0.940710    1.619474
     60          6           0        1.879387    1.368223    1.987762
     61          7           0        0.644037    1.779738    1.657611
     62          1           0       -1.142162    0.987737    1.038894
     63          6           0       -0.119549    0.741901    1.321852
     64          7           0        0.186844   -0.558905    1.281571
     65          1           0        4.957373    1.629975    2.941533
     66          6           0        3.979761    1.277714    2.611174
     67          7           0        3.675284    0.022035    2.391496
     68          6           0        2.346324    0.065369    1.995631
     69          6           0        2.931692    3.615147    2.533703
     70          7           0        2.940010    2.146717    2.386557
 ---------------------------------------------------------------------

 SCF Done:  E(RwB97XD) =  -2048.74390168     A.U. after   15 cycles

 The electronic state is 1-A.
 Alpha  occ. eigenvalues --  -19.26066 -19.22503 -19.20836 -14.52715 -14.51321
 Alpha  occ. eigenvalues --  -14.48947 -14.48848 -14.48177 -14.47432 -14.47179
 Alpha  occ. eigenvalues --  -14.46534 -14.44344 -14.42748 -14.42716 -14.42324
 Alpha  occ. eigenvalues --  -14.42099 -14.41523 -14.40948 -14.40933 -14.40150
 Alpha  occ. eigenvalues --  -10.45740 -10.41600 -10.40571 -10.38484 -10.38416
 Alpha  occ. eigenvalues --  -10.38169 -10.36910 -10.35831 -10.35463 -10.35406
 Alpha  occ. eigenvalues --  -10.34573 -10.34222 -10.34178 -10.33434 -10.33416
 Alpha  occ. eigenvalues --  -10.33116 -10.33105 -10.31437 -10.31361 -10.31014
 Alpha  occ. eigenvalues --  -10.31003 -10.28601 -10.28371  -1.19663  -1.14006
 Alpha  occ. eigenvalues --   -1.13496  -1.13472  -1.11431  -1.10789  -1.09605
 Alpha  occ. eigenvalues --   -1.08941  -1.07747  -1.04988  -1.03344  -1.02822
 Alpha  occ. eigenvalues --   -1.00420  -1.00314  -0.99754  -0.98778  -0.97018
 Alpha  occ. eigenvalues --   -0.96758  -0.95322  -0.92628  -0.91384  -0.86402
 Alpha  occ. eigenvalues --   -0.84840  -0.84341  -0.84003  -0.83906  -0.82685
 Alpha  occ. eigenvalues --   -0.82370  -0.79198  -0.75712  -0.74875  -0.74058
 Alpha  occ. eigenvalues --   -0.73679  -0.73396  -0.72930  -0.71091  -0.69100
 Alpha  occ. eigenvalues --   -0.67753  -0.66857  -0.66325  -0.65453  -0.64749
 Alpha  occ. eigenvalues --   -0.64028  -0.62996  -0.62921  -0.62650  -0.62162
 Alpha  occ. eigenvalues --   -0.60217  -0.59841  -0.59822  -0.59239  -0.58987
 Alpha  occ. eigenvalues --   -0.58806  -0.58332  -0.56831  -0.56523  -0.56455
 Alpha  occ. eigenvalues --   -0.56222  -0.55380  -0.54761  -0.54666  -0.54134
 Alpha  occ. eigenvalues --   -0.53913  -0.53629  -0.53191  -0.52705  -0.52622
 Alpha  occ. eigenvalues --   -0.52292  -0.51774  -0.51606  -0.50783  -0.50416
 Alpha  occ. eigenvalues --   -0.50217  -0.49729  -0.49196  -0.49150  -0.48919
 Alpha  occ. eigenvalues --   -0.48538  -0.48491  -0.48016  -0.47767  -0.47649
 Alpha  occ. eigenvalues --   -0.46996  -0.45478  -0.45118  -0.44404  -0.43182
 Alpha  occ. eigenvalues --   -0.41194  -0.39675  -0.39446  -0.37669  -0.37482
 Alpha  occ. eigenvalues --   -0.37218  -0.36753  -0.36240  -0.35755  -0.34840
 Alpha  occ. eigenvalues --   -0.33646  -0.33626  -0.33529  -0.33107  -0.32928
 Alpha  occ. eigenvalues --   -0.32669  -0.32563  -0.32328  -0.32038  -0.30983
 Alpha  occ. eigenvalues --   -0.30368  -0.28632  -0.25808  -0.25700
 Alpha virt. eigenvalues --    0.02673   0.05219   0.07852   0.07906   0.08372
 Alpha virt. eigenvalues --    0.09305   0.09435   0.10964   0.11482   0.12169
 Alpha virt. eigenvalues --    0.12679   0.13923   0.14563   0.14787   0.15137

 Mulliken charges:
               1
     1  N   -0.310909
     2  C    0.180973
     3  C    0.031253
     4  N   -0.258531
     5  C    0.133094
     6  H    0.026608
     7  N   -0.290909
     8  C    0.130914
     9  H    0.009428
    10  N   -0.290055
    11  C    0.240677
    12  C    0.124876
    13  N   -0.053778
    14  H    0.109292
    15  H    0.090042
    16  H    0.025621
    17  H    0.034707
    18  H    0.025703
    19  N   -0.311225
    20  C    0.245423
    21  C    0.181751
    22  N   -0.120322
    23  H    0.115946
    24  H    0.117262
    25  N   -0.297219
    26  C    0.231109
    27  N   -0.125327
    28  H    0.115685
    29  C    0.158837
    30  O   -0.319975
    31  C   -0.003303
    32  N   -0.220736
    33  C    0.131360
    34  H    0.031115
    35  H    0.030163
    36  H    0.028105
    37  H    0.024997
    38  H    0.062777
    39  H    0.059635
    40  H    0.073659
    41  H    0.032188
    42  C   -0.111567
    43  O   -0.271031
    44  C    0.158550
    45  H    0.136413
    46  N   -0.129762
    47  O   -0.350618
    48  C    0.361891
    49  H    0.049833
    50  C    0.175398
    51  C    0.043289
    52  N   -0.294927
    53  H    0.032281
    54  H    0.045092
    55  H    0.011017
    56  H    0.127446
    57  H    0.112915
    58  N   -0.057134
    59  C    0.098713
    60  C    0.235339
    61  N   -0.260319
    62  H    0.049542
    63  C    0.151157
    64  N   -0.296808
    65  H    0.028271
    66  C    0.129146
    67  N   -0.269052
    68  C    0.024879
    69  C    0.177578
    70  N   -0.308443
 Sum of Mulliken charges =  -0.00000

 Dipole moment (field-independent basis, Debye):
    X=              8.5193    Y=              5.4810    Z=              1.7424  Tot=             10.2789
 Quadrupole moment (field-independent basis, Debye-Ang):
   XX=           -147.7844   YY=           -217.3375   ZZ=           -250.2104
   XY=              1.6626   XZ=             12.3246   YZ=             -6.8898

 Normal termination of Gaussian 16 at Wed Jan 24 13:54:55 2018.
