 Gaussian 16, Revision A.03,
 Gaussian 16:  EM64L-G16RevA.03 25-Dec-2016

 ---------------------------------------
 #p wb97xd/cc-pvdz sp scf=(maxcycles=20)
 ---------------------------------------

 ------------------
 Base pair stacking
 ------------------
 Symbolic Z-matrix:
 Charge =  0 Multiplicity = 1

                         Standard orientation:
 ---------------------------------------------------------------------
 Center     Atomic      Atomic             Coordinates (Angstroms)
 Number     Number       Type             X           Y           Z
 ---------------------------------------------------------------------
      1          7           0       -5.567606   -1.880824    1.205931
      2          6           0       -6.970241   -1.441070    1.337151
      3          6           0       -3.368882   -1.932396    1.189031
      4          7           0       -3.789698   -3.200085    0.814076
      5          6           0       -5.097506   -3.118286    0.839265
      6          1           0       -5.774746   -3.937838    0.597159
      7          7           0       -2.020157   -0.076796    1.737332
      8          6           0       -3.158660    0.595134    1.937091
      9          1           0       -3.038243    1.633112    2.244270
     10          7           0       -4.417663    0.179328    1.814934
     11          6           0       -4.453502   -1.108262    1.433799
     12          6           0       -2.089891   -1.370467    1.354423
     13          7           0       -0.954513   -2.042870    1.154528
     14          1           0       -0.958578   -3.002317    0.870510
     15          1           0       -0.061640   -1.610748    1.281788
     16          1           0       -7.434370   -2.002677    2.022247
     17          1           0       -6.994786   -0.482909    1.620807
     18          1           0       -7.435993   -1.538587    0.457627
     19          7           0       -3.720183    2.913727   -1.355581
     20          6           0       -2.392821    2.558683   -1.346251
     21          6           0       -4.240698    4.277479   -1.132084
     22          7           0        0.951063    3.428789   -0.995382
     23          1           0        1.839605    2.972119   -1.029748
     24          1           0        0.953191    4.412342   -0.812790
     25          7           0       -1.349438    3.389312   -1.133041
     26          6           0       -0.192480    2.753449   -1.185453
     27          7           0       -0.064906    1.407186   -1.427972
     28          1           0        0.859947    1.005791   -1.450040
     29          6           0       -1.124621    0.533395   -1.650116
     30          8           0       -0.900837   -0.665234   -1.859801
     31          6           0       -2.374035    1.201981   -1.596875
     32          7           0       -3.663664    0.715088   -1.760265
     33          6           0       -4.426760    1.763433   -1.609016
     34          1           0       -5.515399    1.753425   -1.672544
     35          1           0       -4.843048    4.279596   -0.334604
     36          1           0       -3.476842    4.901579   -0.973022
     37          1           0       -4.752284    4.576821   -1.936744
     38          1           0        5.674708   -0.491067   -0.794136
     39          1           0        5.710684   -0.443841   -2.555139
     40          1           0        4.682454    0.679066   -1.664528
     41          1           0        3.409798   -4.606766   -1.832306
     42          6           0        3.205693   -3.536268   -1.807763
     43          8           0        0.848629   -3.797667   -1.862926
     44          6           0        1.848896   -3.081637   -1.823289
     45          1           0        0.757944   -1.350291   -1.799140
     46          7           0        1.702164   -1.709573   -1.789486
     47          8           0        2.473231    0.425219   -1.716474
     48          6           0        2.702586   -0.771161   -1.743871
     49          1           0        5.251654   -2.939191   -1.749947
     50          6           0        4.202980   -2.645168   -1.763479
     51          6           0        5.085353   -0.322661   -1.683162
     52          7           0        3.983362   -1.287553   -1.731560
     53          1           0        4.731573    3.833908    3.080062
     54          1           0        3.455568    3.912583    2.066289
     55          1           0        4.974027    4.012818    1.476115
     56          1           0        2.592757   -3.007814    1.161250
     57          1           0        4.222701   -2.597524    1.452856
     58          7           0        3.274045   -2.298714    1.343344
     59          6           0        2.933710   -1.011576    1.436195
     60          6           0        3.348619    1.309112    1.758613
     61          7           0        2.066855    1.681340    1.607115
     62          1           0        0.237918    0.833833    1.236546
     63          6           0        1.297296    0.620421    1.372317
     64          7           0        1.636271   -0.669526    1.278948
     65          1           0        6.519632    1.667553    2.276694
     66          6           0        5.517204    1.284838    2.082741
     67          7           0        5.225142    0.020742    1.897161
     68          6           0        3.853268    0.022179    1.690551
     69          6           0        4.394788    3.587095    2.171395
     70          7           0        4.429185    2.120287    2.012321
 ---------------------------------------------------------------------

 SCF Done:  E(RwB97XD) =  -2048.74877547     A.U. after   15 cycles

 The electronic state is 1-A.
 Alpha  occ. eigenvalues --  -19.25761 -19.22081 -19.20535 -14.52452 -14.52395
 Alpha  occ. eigenvalues --  -14.48714 -14.48368 -14.48199 -14.47767 -14.46843
 Alpha  occ. eigenvalues --  -14.46489 -14.45527 -14.44288 -14.44273 -14.41973
 Alpha  occ. eigenvalues --  -14.41931 -14.40825 -14.40777 -14.40486 -14.39907
 Alpha  occ. eigenvalues --  -10.45396 -10.41122 -10.40172 -10.39970 -10.38140
 Alpha  occ. eigenvalues --  -10.38033 -10.37900 -10.37175 -10.35679 -10.35052
 Alpha  occ. eigenvalues --  -10.34836 -10.34241 -10.33950 -10.33533 -10.33237
 Alpha  occ. eigenvalues --  -10.32831 -10.32683 -10.32676 -10.31201 -10.30883
 Alpha  occ. eigenvalues --  -10.30522 -10.28011 -10.28004  -1.19350  -1.15187
 Alpha  occ. eigenvalues --   -1.13118  -1.13068  -1.10776  -1.10507  -1.09356
 Alpha  occ. eigenvalues --   -1.09229  -1.08454  -1.04866  -1.04604  -1.02423
 Alpha  occ. eigenvalues --   -1.01011  -1.00041  -0.99602  -0.98465  -0.96868
 Alpha  occ. eigenvalues --   -0.96517  -0.96413  -0.92290  -0.91099  -0.87613
 Alpha  occ. eigenvalues --   -0.85925  -0.84023  -0.83443  -0.83432  -0.82437
 Alpha  occ. eigenvalues --   -0.81848  -0.78891  -0.77041  -0.74837  -0.74523
 Alpha  occ. eigenvalues --   -0.73546  -0.73295  -0.72481  -0.70628  -0.70426
 Alpha  occ. eigenvalues --   -0.67273  -0.66862  -0.66482  -0.65879  -0.64418
 Alpha  occ. eigenvalues --   -0.64292  -0.63714  -0.62611  -0.62303  -0.61637
 Alpha  occ. eigenvalues --   -0.60582  -0.60223  -0.60175  -0.59506  -0.59346
 Alpha  occ. eigenvalues --   -0.59291  -0.58229  -0.56594  -0.56198  -0.55908
 Alpha  occ. eigenvalues --   -0.55853  -0.55358  -0.55058  -0.54446  -0.54195
 Alpha  occ. eigenvalues --   -0.53802  -0.53596  -0.53433  -0.53153  -0.52902
 Alpha  occ. eigenvalues --   -0.52754  -0.52274  -0.51341  -0.50272  -0.50114
 Alpha  occ. eigenvalues --   -0.49927  -0.49667  -0.49421  -0.49118  -0.48805
 Alpha  occ. eigenvalues --   -0.48483  -0.48333  -0.48184  -0.47594  -0.47289
 Alpha  occ. eigenvalues --   -0.46504  -0.45681  -0.45226  -0.44387  -0.43811
 Alpha  occ. eigenvalues --   -0.40759  -0.40663  -0.39358  -0.37687  -0.37586
 Alpha  occ. eigenvalues --   -0.37209  -0.37132  -0.36677  -0.35870  -0.34803
 Alpha  occ. eigenvalues --   -0.34400  -0.33747  -0.33221  -0.33063  -0.32961
 Alpha  occ. eigenvalues --   -0.32615  -0.32350  -0.32134  -0.31805  -0.30464
 Alpha  occ. eigenvalues --   -0.30080  -0.29951  -0.25585  -0.25063
 Alpha virt. eigenvalues --    0.02748   0.04116   0.07066   0.08336   0.08524
 Alpha virt. eigenvalues --    0.09359   0.09870   0.10469   0.11465   0.11774
 Alpha virt. eigenvalues --    0.12532   0.14320   0.14601   0.14878   0.15251

 Mulliken charges:
               1
     1  N   -0.313229
     2  C    0.181698
     3  C    0.049606
     4  N   -0.259008
     5  C    0.137303
     6  H    0.025287
     7  N   -0.297632
     8  C    0.136965
     9  H    0.008772
    10  N   -0.289742
    11  C    0.256825
    12  C    0.110823
    13  N   -0.057389
    14  H    0.112306
    15  H    0.082335
    16  H    0.023430
    17  H    0.031508
    18  H    0.026609
    19  N   -0.310855
    20  C    0.248933
    21  C    0.180624
    22  N   -0.109695
    23  H    0.112262
    24  H    0.114664
    25  N   -0.309405
    26  C    0.235952
    27  N   -0.148435
    28  H    0.124025
    29  C    0.189194
    30  O   -0.322402
    31  C   -0.011818
    32  N   -0.225717
    33  C    0.132550
    34  H    0.021979
    35  H    0.029400
    36  H    0.028438
    37  H    0.024090
    38  H    0.061071
    39  H    0.059116
    40  H    0.071878
    41  H    0.029187
    42  C   -0.116641
    43  O   -0.264452
    44  C    0.163641
    45  H    0.132080
    46  N   -0.118395
    47  O   -0.341742
    48  C    0.335291
    49  H    0.045861
    50  C    0.163574
    51  C    0.038766
    52  N   -0.279444
    53  H    0.035134
    54  H    0.040157
    55  H    0.027843
    56  H    0.124360
    57  H    0.115105
    58  N   -0.056315
    59  C    0.082626
    60  C    0.251114
    61  N   -0.273938
    62  H    0.042126
    63  C    0.162738
    64  N   -0.304731
    65  H    0.037595
    66  C    0.138679
    67  N   -0.268783
    68  C    0.030684
    69  C    0.178786
    70  N   -0.313219
 Sum of Mulliken charges =  -0.00000

 Dipole moment (field-independent basis, Debye):
    X=              8.6928    Y=              6.0263    Z=              1.5478  Tot=             10.6901
 Quadrupole moment (field-independent basis, Debye-Ang):
   XX=           -158.4515   YY=           -215.4811   ZZ=           -252.9975
   XY=             -2.8584   XZ=             -3.8386   YZ=             -5.4489

 Normal termination of Gaussian 16 at Thu Jan 25 02:06:16 2018.
