 Gaussian 16, Revision A.03,
 Gaussian 16:  EM64L-G16RevA.03 25-Dec-2016

 ---------------------------------------
 #p wb97xd/cc-pvdz sp scf=(maxcycles=20)
 ---------------------------------------

 ------------------
 Base pair stacking
 ------------------
 Symbolic Z-matrix:
 Charge =  0 Multiplicity = 1

                         Standard orientation:
 ---------------------------------------------------------------------
 Center     Atomic      Atomic             Coordinates (Angstroms)
 Number     Number       Type             X           Y           Z
 ---------------------------------------------------------------------
      1          7           0       -6.720992   -1.585710    0.374775
      2          6           0       -8.115704   -1.104310    0.342794
      3          6           0       -4.538375   -1.704079    0.618694
      4          7           0       -4.948737   -2.955961    0.183825
      5          6           0       -6.247266   -2.834552    0.054278
      6          1           0       -6.914725   -3.631548   -0.274705
      7          7           0       -3.210432    0.106085    1.341739
      8          6           0       -4.344315    0.811070    1.411491
      9          1           0       -4.230790    1.842932    1.741093
     10          7           0       -5.591527    0.434567    1.136506
     11          6           0       -5.619677   -0.848877    0.741048
     12          6           0       -3.272172   -1.182404    0.940434
     13          7           0       -2.141384   -1.887775    0.870167
     14          1           0       -2.139875   -2.844825    0.578160
     15          1           0       -1.257666   -1.483852    1.106882
     16          1           0       -8.674437   -1.655872    0.962281
     17          1           0       -8.145594   -0.147671    0.631027
     18          1           0       -8.476113   -1.182004   -0.586762
     19          7           0       -2.386944    2.926478   -1.796705
     20          6           0       -1.085748    2.526466   -1.609815
     21          6           0       -2.869774    4.320343   -1.728189
     22          7           0        2.231718    3.301312   -0.934685
     23          1           0        3.097836    2.812306   -0.834940
     24          1           0        2.255843    4.294827   -0.820423
     25          7           0       -0.038088    3.333077   -1.334411
     26          6           0        1.088754    2.654701   -1.209311
     27          7           0        1.184435    1.290734   -1.343297
     28          1           0        2.087607    0.856433   -1.230927
     29          6           0        0.119705    0.441022   -1.626518
     30          8           0        0.313576   -0.776796   -1.726875
     31          6           0       -1.097589    1.155338   -1.763703
     32          7           0       -2.380418    0.703647   -2.041598
     33          6           0       -3.109566    1.786452   -2.051279
     34          1           0       -4.183485    1.810246   -2.239435
     35          1           0       -3.557616    4.401552   -1.007713
     36          1           0       -2.102436    4.927021   -1.524712
     37          1           0       -3.273838    4.578372   -2.605092
     38          1           0        6.728194   -0.757701    0.077602
     39          1           0        6.964682   -0.839650   -1.666533
     40          1           0        5.892133    0.380452   -0.979270
     41          1           0        4.418741   -4.855463   -0.933043
     42          6           0        4.259744   -3.779473   -1.005154
     43          8           0        1.914864   -3.960931   -1.314579
     44          6           0        2.934346   -3.279620   -1.208354
     45          1           0        1.923669   -1.513707   -1.428365
     46          7           0        2.844314   -1.904399   -1.285169
     47          8           0        3.693979    0.201551   -1.268914
     48          6           0        3.872908   -1.000999   -1.188150
     49          1           0        6.310048   -3.252277   -0.751918
     50          6           0        5.283324   -2.923225   -0.906595
     51          6           0        6.250784   -0.633560   -0.882989
     52          7           0        5.120532   -1.559979   -0.992717
     53          1           0        3.445721    3.800835    3.515845
     54          1           0        2.302354    3.924757    2.358496
     55          1           0        3.882562    3.982491    1.953921
     56          1           0        1.349874   -2.960270    1.288673
     57          1           0        2.944885   -2.601643    1.775921
     58          7           0        2.025233   -2.273405    1.557446
     59          6           0        1.714343   -0.977121    1.621991
     60          6           0        2.156122    1.327773    2.014448
     61          7           0        0.913037    1.739792    1.715447
     62          1           0       -0.882956    0.950718    1.121827
     63          6           0        0.145977    0.704301    1.380364
     64          7           0        0.455501   -0.594741    1.315121
     65          1           0        5.252084    1.586216    2.909113
     66          6           0        4.269036    1.235425    2.593657
     67          7           0        3.964023   -0.017987    2.362144
     68          6           0        2.627146    0.026517    1.994048
     69          6           0        3.212389    3.570181    2.571200
     70          7           0        3.222242    2.104049    2.402782
 ---------------------------------------------------------------------

 SCF Done:  E(RwB97XD) =  -2048.74396969     A.U. after   15 cycles

 The electronic state is 1-A.
 Alpha  occ. eigenvalues --  -19.26073 -19.22520 -19.20786 -14.52718 -14.51587
 Alpha  occ. eigenvalues --  -14.48879 -14.48697 -14.48108 -14.47213 -14.47084
 Alpha  occ. eigenvalues --  -14.46852 -14.44620 -14.43059 -14.43047 -14.42244
 Alpha  occ. eigenvalues --  -14.41989 -14.41355 -14.40888 -14.40792 -14.40012
 Alpha  occ. eigenvalues --  -10.45728 -10.41491 -10.40581 -10.38731 -10.38401
 Alpha  occ. eigenvalues --  -10.38209 -10.37182 -10.36122 -10.35372 -10.35260
 Alpha  occ. eigenvalues --  -10.34529 -10.34514 -10.34016 -10.33333 -10.33329
 Alpha  occ. eigenvalues --  -10.33272 -10.32976 -10.31653 -10.31470 -10.30969
 Alpha  occ. eigenvalues --  -10.30911 -10.28429 -10.28281  -1.19666  -1.14263
 Alpha  occ. eigenvalues --   -1.13505  -1.13408  -1.11271  -1.10716  -1.09606
 Alpha  occ. eigenvalues --   -1.08819  -1.08079  -1.04840  -1.03666  -1.02799
 Alpha  occ. eigenvalues --   -1.00282  -1.00177  -1.00017  -0.98708  -0.96875
 Alpha  occ. eigenvalues --   -0.96689  -0.95637  -0.92486  -0.91404  -0.86672
 Alpha  occ. eigenvalues --   -0.85102  -0.84263  -0.83857  -0.83854  -0.82623
 Alpha  occ. eigenvalues --   -0.82232  -0.79204  -0.76006  -0.74800  -0.73944
 Alpha  occ. eigenvalues --   -0.73702  -0.73657  -0.72785  -0.70944  -0.69400
 Alpha  occ. eigenvalues --   -0.67644  -0.66846  -0.66185  -0.65744  -0.64722
 Alpha  occ. eigenvalues --   -0.63976  -0.63235  -0.62879  -0.62559  -0.62030
 Alpha  occ. eigenvalues --   -0.60127  -0.59895  -0.59813  -0.59522  -0.59053
 Alpha  occ. eigenvalues --   -0.58718  -0.58582  -0.56775  -0.56417  -0.56326
 Alpha  occ. eigenvalues --   -0.56199  -0.55267  -0.54792  -0.54657  -0.54360
 Alpha  occ. eigenvalues --   -0.53862  -0.53646  -0.53137  -0.52852  -0.52672
 Alpha  occ. eigenvalues --   -0.52521  -0.51868  -0.51669  -0.50640  -0.50366
 Alpha  occ. eigenvalues --   -0.50092  -0.49715  -0.49180  -0.49129  -0.48936
 Alpha  occ. eigenvalues --   -0.48545  -0.48436  -0.48070  -0.47882  -0.47609
 Alpha  occ. eigenvalues --   -0.46856  -0.45621  -0.44958  -0.44432  -0.43406
 Alpha  occ. eigenvalues --   -0.41038  -0.39745  -0.39635  -0.37544  -0.37413
 Alpha  occ. eigenvalues --   -0.37078  -0.37003  -0.36521  -0.35773  -0.34512
 Alpha  occ. eigenvalues --   -0.33719  -0.33659  -0.33401  -0.33292  -0.33021
 Alpha  occ. eigenvalues --   -0.32840  -0.32542  -0.32341  -0.31955  -0.30806
 Alpha  occ. eigenvalues --   -0.30247  -0.28919  -0.25662  -0.25616
 Alpha virt. eigenvalues --    0.02609   0.04981   0.07565   0.08045   0.08508
 Alpha virt. eigenvalues --    0.09286   0.09434   0.11101   0.11480   0.11904
 Alpha virt. eigenvalues --    0.12597   0.14056   0.14677   0.14823   0.14956

 Mulliken charges:
               1
     1  N   -0.311164
     2  C    0.180986
     3  C    0.035037
     4  N   -0.258630
     5  C    0.133102
     6  H    0.026076
     7  N   -0.292599
     8  C    0.132944
     9  H    0.008740
    10  N   -0.291307
    11  C    0.241405
    12  C    0.125281
    13  N   -0.053688
    14  H    0.110223
    15  H    0.090478
    16  H    0.025279
    17  H    0.034091
    18  H    0.025530
    19  N   -0.311939
    20  C    0.244674
    21  C    0.181353
    22  N   -0.120245
    23  H    0.115162
    24  H    0.116411
    25  N   -0.301187
    26  C    0.235888
    27  N   -0.129409
    28  H    0.113833
    29  C    0.156637
    30  O   -0.318456
    31  C    0.005355
    32  N   -0.222707
    33  C    0.130647
    34  H    0.029805
    35  H    0.029920
    36  H    0.028162
    37  H    0.024851
    38  H    0.063812
    39  H    0.058864
    40  H    0.073449
    41  H    0.031756
    42  C   -0.112101
    43  O   -0.269706
    44  C    0.153130
    45  H    0.135997
    46  N   -0.123196
    47  O   -0.349231
    48  C    0.357447
    49  H    0.049970
    50  C    0.173494
    51  C    0.043218
    52  N   -0.291542
    53  H    0.033074
    54  H    0.044159
    55  H    0.016986
    56  H    0.128592
    57  H    0.112064
    58  N   -0.060108
    59  C    0.092931
    60  C    0.231889
    61  N   -0.260152
    62  H    0.049292
    63  C    0.156703
    64  N   -0.297933
    65  H    0.030423
    66  C    0.132549
    67  N   -0.269128
    68  C    0.027488
    69  C    0.176447
    70  N   -0.311174
 Sum of Mulliken charges =  -0.00000

 Dipole moment (field-independent basis, Debye):
    X=              8.6275    Y=              5.5697    Z=              1.7299  Tot=             10.4139
 Quadrupole moment (field-independent basis, Debye-Ang):
   XX=           -150.1414   YY=           -216.8974   ZZ=           -250.8757
   XY=              0.3390   XZ=              9.8209   YZ=             -6.3488

 Normal termination of Gaussian 16 at Wed Jan 24 13:09:19 2018.
