 Gaussian 16, Revision A.03,
 Gaussian 16:  EM64L-G16RevA.03 25-Dec-2016

 ---------------------------------------
 #p wb97xd/cc-pvdz sp scf=(maxcycles=20)
 ---------------------------------------

 ------------------
 Base pair stacking
 ------------------
 Symbolic Z-matrix:
 Charge =  0 Multiplicity = 1

                         Standard orientation:
 ---------------------------------------------------------------------
 Center     Atomic      Atomic             Coordinates (Angstroms)
 Number     Number       Type             X           Y           Z
 ---------------------------------------------------------------------
      1          7           0       -6.353978   -1.604541    0.662278
      2          6           0       -7.732451   -1.127868    0.437347
      3          6           0       -4.180908   -1.687149    0.991270
      4          7           0       -4.621318   -3.002640    0.975604
      5          6           0       -5.912892   -2.900217    0.778031
      6          1           0       -6.598267   -3.745356    0.707615
      7          7           0       -2.811703    0.228798    1.123206
      8          6           0       -3.924553    0.943935    0.928970
      9          1           0       -3.785574    2.023991    0.908450
     10          7           0       -5.177412    0.527171    0.757080
     11          6           0       -5.237556   -0.814103    0.799407
     12          6           0       -2.905477   -1.118378    1.160733
     13          7           0       -1.795725   -1.833972    1.354520
     14          1           0       -1.818149   -2.833724    1.389434
     15          1           0       -0.904578   -1.395394    1.471350
     16          1           0       -8.319195   -1.434768    1.186830
     17          1           0       -7.738341   -0.129092    0.398222
     18          1           0       -8.077810   -1.495621   -0.426066
     19          7           0       -2.884211    2.694126   -1.584992
     20          6           0       -1.575319    2.326908   -1.384997
     21          6           0       -3.436850    4.044042   -1.354749
     22          7           0        1.665284    3.139550   -0.436399
     23          1           0        2.548509    2.678054   -0.357724
     24          1           0        1.635742    4.108122   -0.187998
     25          7           0       -0.582144    3.131111   -0.948072
     26          6           0        0.569215    2.489600   -0.856031
     27          7           0        0.737208    1.162111   -1.167565
     28          1           0        1.654136    0.754569   -1.067040
     29          6           0       -0.270551    0.315609   -1.618945
     30          8           0       -0.013262   -0.867762   -1.872272
     31          6           0       -1.513329    0.990573   -1.722896
     32          7           0       -2.758257    0.528144   -2.126882
     33          6           0       -3.537871    1.570651   -2.029050
     34          1           0       -4.601682    1.575207   -2.268991
     35          1           0       -4.160858    3.996851   -0.667431
     36          1           0       -2.710270    4.648544   -1.030836
     37          1           0       -3.811404    4.402849   -2.209009
     38          1           0        6.301180   -0.828767    0.256126
     39          1           0        6.622893   -0.660704   -1.468082
     40          1           0        5.461298    0.407743   -0.680360
     41          1           0        4.243421   -4.841878   -1.419314
     42          6           0        4.035894   -3.773752   -1.353914
     43          8           0        1.719695   -4.008733   -1.808990
     44          6           0        2.698769   -3.306502   -1.557862
     45          1           0        1.614955   -1.570821   -1.590900
     46          7           0        2.545754   -1.938702   -1.453078
     47          8           0        3.290433    0.178700   -1.107747
     48          6           0        3.523578   -1.015038   -1.180604
     49          1           0        6.044043   -3.201187   -0.923415
     50          6           0        5.010933   -2.897162   -1.086537
     51          6           0        5.863872   -0.594032   -0.702899
     52          7           0        4.786341   -1.542986   -0.996448
     53          1           0        3.913188    4.276153    2.160988
     54          1           0        2.795766    4.042816    0.995215
     55          1           0        4.384219    3.929400    0.637399
     56          1           0        1.652680   -2.791693    2.194475
     57          1           0        3.248647   -2.330717    2.582398
     58          7           0        2.343686   -2.070451    2.243967
     59          6           0        2.071529   -0.816983    1.875310
     60          6           0        2.576406    1.479351    1.509657
     61          7           0        1.352281    1.800037    1.058995
     62          1           0       -0.455764    0.902166    0.704834
     63          6           0        0.560172    0.729770    1.057568
     64          7           0        0.830888   -0.526512    1.426414
     65          1           0        5.661747    1.943787    2.356496
     66          6           0        4.674413    1.532085    2.145242
     67          7           0        4.335464    0.278929    2.325217
     68          6           0        3.007624    0.231873    1.926047
     69          6           0        3.690409    3.755985    1.336493
     70          7           0        3.658443    2.315062    1.653847
 ---------------------------------------------------------------------

 SCF Done:  E(RwB97XD) =  -2048.61504333     A.U. after   16 cycles

 The electronic state is 1-A.
 Alpha  occ. eigenvalues --  -19.25897 -19.21872 -19.20744 -14.52453 -14.52366
 Alpha  occ. eigenvalues --  -14.48910 -14.48809 -14.47841 -14.47729 -14.46655
 Alpha  occ. eigenvalues --  -14.45232 -14.45198 -14.43527 -14.42575 -14.42366
 Alpha  occ. eigenvalues --  -14.41708 -14.41600 -14.41102 -14.40750 -14.40318
 Alpha  occ. eigenvalues --  -10.45464 -10.40806 -10.40006 -10.39250 -10.38213
 Alpha  occ. eigenvalues --  -10.37726 -10.37717 -10.36636 -10.35655 -10.35048
 Alpha  occ. eigenvalues --  -10.34952 -10.34403 -10.34389 -10.34260 -10.33533
 Alpha  occ. eigenvalues --  -10.33293 -10.33242 -10.31913 -10.31085 -10.31057
 Alpha  occ. eigenvalues --  -10.30954 -10.28712 -10.28181  -1.19470  -1.15260
 Alpha  occ. eigenvalues --   -1.13654  -1.12921  -1.11503  -1.10713  -1.09538
 Alpha  occ. eigenvalues --   -1.09246  -1.08353  -1.05186  -1.04299  -1.02436
 Alpha  occ. eigenvalues --   -1.01295  -1.00690  -0.99936  -0.98783  -0.97159
 Alpha  occ. eigenvalues --   -0.96722  -0.96079  -0.92855  -0.90970  -0.87517
 Alpha  occ. eigenvalues --   -0.86263  -0.84171  -0.84098  -0.83469  -0.82600
 Alpha  occ. eigenvalues --   -0.82485  -0.78820  -0.76953  -0.75155  -0.74813
 Alpha  occ. eigenvalues --   -0.73571  -0.73297  -0.73121  -0.71283  -0.70414
 Alpha  occ. eigenvalues --   -0.67635  -0.66792  -0.66543  -0.66445  -0.64465
 Alpha  occ. eigenvalues --   -0.64418  -0.63771  -0.63166  -0.62964  -0.62336
 Alpha  occ. eigenvalues --   -0.60667  -0.60626  -0.60384  -0.59587  -0.59467
 Alpha  occ. eigenvalues --   -0.59316  -0.58329  -0.57485  -0.56626  -0.56501
 Alpha  occ. eigenvalues --   -0.56182  -0.56009  -0.55584  -0.54938  -0.54233
 Alpha  occ. eigenvalues --   -0.54157  -0.53585  -0.53070  -0.52994  -0.52784
 Alpha  occ. eigenvalues --   -0.52264  -0.52097  -0.51906  -0.50992  -0.50381
 Alpha  occ. eigenvalues --   -0.50171  -0.49491  -0.49361  -0.48949  -0.48871
 Alpha  occ. eigenvalues --   -0.48749  -0.48326  -0.48212  -0.48076  -0.47423
 Alpha  occ. eigenvalues --   -0.47098  -0.46587  -0.45166  -0.43841  -0.43254
 Alpha  occ. eigenvalues --   -0.41425  -0.40744  -0.39512  -0.37938  -0.37661
 Alpha  occ. eigenvalues --   -0.37403  -0.37376  -0.36510  -0.35968  -0.34781
 Alpha  occ. eigenvalues --   -0.34285  -0.33789  -0.33606  -0.33096  -0.32693
 Alpha  occ. eigenvalues --   -0.32509  -0.31900  -0.31863  -0.30979  -0.30627
 Alpha  occ. eigenvalues --   -0.28865  -0.28051  -0.26021  -0.24692
 Alpha virt. eigenvalues --    0.03168   0.04310   0.07346   0.07798   0.08387
 Alpha virt. eigenvalues --    0.09026   0.09543   0.10772   0.11336   0.12067
 Alpha virt. eigenvalues --    0.12746   0.13939   0.14100   0.14509   0.14777

 Mulliken charges:
               1
     1  N   -0.313076
     2  C    0.181223
     3  C    0.039141
     4  N   -0.261197
     5  C    0.135061
     6  H    0.027042
     7  N   -0.286352
     8  C    0.144858
     9  H    0.004130
    10  N   -0.292534
    11  C    0.249776
    12  C    0.121458
    13  N   -0.058817
    14  H    0.107105
    15  H    0.085769
    16  H    0.025271
    17  H    0.032615
    18  H    0.027456
    19  N   -0.303544
    20  C    0.232719
    21  C    0.179930
    22  N   -0.062134
    23  H    0.101641
    24  H    0.108777
    25  N   -0.281439
    26  C    0.209106
    27  N   -0.122163
    28  H    0.121999
    29  C    0.138164
    30  O   -0.316011
    31  C    0.033570
    32  N   -0.220377
    33  C    0.118175
    34  H    0.026282
    35  H    0.029637
    36  H    0.027908
    37  H    0.025091
    38  H    0.062940
    39  H    0.057336
    40  H    0.072644
    41  H    0.031384
    42  C   -0.112024
    43  O   -0.263189
    44  C    0.177567
    45  H    0.132874
    46  N   -0.132842
    47  O   -0.345644
    48  C    0.356774
    49  H    0.047362
    50  C    0.169105
    51  C    0.041160
    52  N   -0.292238
    53  H    0.039108
    54  H    0.008755
    55  H    0.035485
    56  H    0.120467
    57  H    0.115417
    58  N   -0.069705
    59  C    0.089870
    60  C    0.260385
    61  N   -0.324531
    62  H    0.038811
    63  C    0.187582
    64  N   -0.303312
    65  H    0.033303
    66  C    0.131043
    67  N   -0.260800
    68  C    0.030369
    69  C    0.174184
    70  N   -0.325901
 Sum of Mulliken charges =  -0.00000

 Dipole moment (field-independent basis, Debye):
    X=              7.6188    Y=              5.4793    Z=              3.3606  Tot=              9.9681
 Quadrupole moment (field-independent basis, Debye-Ang):
   XX=           -153.0509   YY=           -219.6152   ZZ=           -255.9479
   XY=             -0.3841   XZ=              5.4347   YZ=            -12.2540

 Normal termination of Gaussian 16 at Wed Jan 24 21:15:49 2018.
