 Gaussian 16, Revision A.03,
 Gaussian 16:  EM64L-G16RevA.03 25-Dec-2016

 ---------------------------------------
 #p wb97xd/cc-pvdz sp scf=(maxcycles=20)
 ---------------------------------------

 ------------------
 Base pair stacking
 ------------------
 Symbolic Z-matrix:
 Charge =  0 Multiplicity = 1

                         Standard orientation:
 ---------------------------------------------------------------------
 Center     Atomic      Atomic             Coordinates (Angstroms)
 Number     Number       Type             X           Y           Z
 ---------------------------------------------------------------------
      1          7           0        5.544662   -1.818840   -1.227934
      2          6           0        6.947560   -1.362716   -1.270843
      3          6           0        3.346406   -1.877330   -1.267408
      4          7           0        3.765406   -3.181221   -1.046027
      5          6           0        5.073002   -3.093802   -1.031098
      6          1           0        5.748973   -3.935774   -0.879113
      7          7           0        2.000515    0.029475   -1.607500
      8          6           0        3.139657    0.723929   -1.695054
      9          1           0        3.020674    1.792103   -1.871415
     10          7           0        4.397787    0.299007   -1.597916
     11          6           0        4.431882   -1.026318   -1.381621
     12          6           0        2.068483   -1.302037   -1.389445
     13          7           0        0.932468   -1.996978   -1.301745
     14          1           0        0.935237   -2.984601   -1.141071
     15          1           0        0.040397   -1.554361   -1.393608
     16          1           0        7.429654   -1.832218   -2.010669
     17          1           0        6.973394   -0.376355   -1.430678
     18          1           0        7.394226   -1.569431   -0.400352
     19          7           0        3.757114    2.814969    1.340980
     20          6           0        2.429170    2.463811    1.304925
     21          6           0        4.289036    4.169575    1.090412
     22          7           0       -0.900047    3.332751    0.832672
     23          1           0       -1.790976    2.880051    0.855877
     24          1           0       -0.893180    4.310196    0.619880
     25          7           0        1.395472    3.290603    1.036700
     26          6           0        0.235027    2.660166    1.075838
     27          7           0        0.095406    1.322436    1.356012
     28          1           0       -0.831255    0.924707    1.364195
     29          6           0        1.145016    0.452727    1.634959
     30          8           0        0.910731   -0.738157    1.875046
     31          6           0        2.398024    1.115571    1.596612
     32          7           0        3.680605    0.630066    1.811460
     33          6           0        4.451747    1.670922    1.649680
     34          1           0        5.538110    1.659604    1.744358
     35          1           0        4.913698    4.145231    0.310664
     36          1           0        3.532418    4.790762    0.890587
     37          1           0        4.778834    4.492110    1.899665
     38          1           0       -5.631349   -0.577173    0.618375
     39          1           0       -5.716902   -0.475412    2.375355
     40          1           0       -4.659536    0.616313    1.480100
     41          1           0       -3.412737   -4.665631    1.846735
     42          6           0       -3.203849   -3.597017    1.795016
     43          8           0       -0.850323   -3.863705    1.925071
     44          6           0       -1.846269   -3.146229    1.835009
     45          1           0       -0.748332   -1.419759    1.788486
     46          7           0       -1.693294   -1.776304    1.763123
     47          8           0       -2.453673    0.357517    1.602510
     48          6           0       -2.688374   -0.836740    1.660247
     49          1           0       -5.245018   -2.995835    1.660786
     50          6           0       -4.196014   -2.704704    1.695013
     51          6           0       -5.066709   -0.383141    1.518152
     52          7           0       -3.970294   -1.349399    1.627507
     53          1           0       -4.740071    4.062472   -2.598290
     54          1           0       -3.487258    4.015495   -1.554104
     55          1           0       -5.018909    4.036812   -0.990497
     56          1           0       -2.608712   -2.961731   -1.510428
     57          1           0       -4.233910   -2.521738   -1.784713
     58          7           0       -3.289483   -2.236923   -1.616931
     59          6           0       -2.953875   -0.947556   -1.538872
     60          6           0       -3.373607    1.394286   -1.575121
     61          7           0       -2.097461    1.747426   -1.348901
     62          1           0       -0.272796    0.864220   -1.046991
     63          6           0       -1.327781    0.667166   -1.232540
     64          7           0       -1.662024   -0.625043   -1.310410
     65          1           0       -6.534183    1.807784   -2.115406
     66          6           0       -5.534326    1.406007   -1.948688
     67          7           0       -5.239874    0.129284   -1.917578
     68          6           0       -3.872934    0.107863   -1.681466
     69          6           0       -4.422210    3.703676   -1.720668
     70          7           0       -4.452492    2.228445   -1.748793
 ---------------------------------------------------------------------

 SCF Done:  E(RwB97XD) =  -2048.74767295     A.U. after   15 cycles

 The electronic state is 1-A.
 Alpha  occ. eigenvalues --  -19.25582 -19.21811 -19.20400 -14.52655 -14.52231
 Alpha  occ. eigenvalues --  -14.48552 -14.48547 -14.48353 -14.47590 -14.46624
 Alpha  occ. eigenvalues --  -14.46029 -14.45672 -14.44444 -14.44399 -14.42267
 Alpha  occ. eigenvalues --  -14.41724 -14.41008 -14.40659 -14.40599 -14.40077
 Alpha  occ. eigenvalues --  -10.45222 -10.40866 -10.40151 -10.39931 -10.38192
 Alpha  occ. eigenvalues --  -10.37983 -10.37715 -10.37354 -10.35826 -10.35267
 Alpha  occ. eigenvalues --  -10.34688 -10.34208 -10.34055 -10.33705 -10.33079
 Alpha  occ. eigenvalues --  -10.32997 -10.32835 -10.32822 -10.31023 -10.30756
 Alpha  occ. eigenvalues --  -10.30629 -10.28198 -10.27815  -1.19201  -1.15371
 Alpha  occ. eigenvalues --   -1.12945  -1.12821  -1.10939  -1.10347  -1.09477
 Alpha  occ. eigenvalues --   -1.09107  -1.08240  -1.05044  -1.04797  -1.02233
 Alpha  occ. eigenvalues --   -1.01195  -1.00260  -0.99303  -0.98291  -0.97044
 Alpha  occ. eigenvalues --   -0.96593  -0.96352  -0.92490  -0.90909  -0.87804
 Alpha  occ. eigenvalues --   -0.86145  -0.83839  -0.83589  -0.83289  -0.82281
 Alpha  occ. eigenvalues --   -0.82003  -0.78708  -0.77215  -0.75055  -0.74337
 Alpha  occ. eigenvalues --   -0.73320  -0.73105  -0.72670  -0.70808  -0.70611
 Alpha  occ. eigenvalues --   -0.67090  -0.66997  -0.66305  -0.66074  -0.64500
 Alpha  occ. eigenvalues --   -0.64235  -0.63547  -0.62513  -0.62483  -0.61390
 Alpha  occ. eigenvalues --   -0.60762  -0.60400  -0.60311  -0.59544  -0.59370
 Alpha  occ. eigenvalues --   -0.59228  -0.57952  -0.56604  -0.56300  -0.55957
 Alpha  occ. eigenvalues --   -0.55775  -0.55587  -0.55286  -0.54500  -0.54134
 Alpha  occ. eigenvalues --   -0.53989  -0.53448  -0.53427  -0.53138  -0.52811
 Alpha  occ. eigenvalues --   -0.52681  -0.52111  -0.51485  -0.50436  -0.50047
 Alpha  occ. eigenvalues --   -0.49938  -0.49832  -0.49453  -0.49106  -0.48682
 Alpha  occ. eigenvalues --   -0.48607  -0.48135  -0.47971  -0.47382  -0.47133
 Alpha  occ. eigenvalues --   -0.46635  -0.45643  -0.45201  -0.44423  -0.43704
 Alpha  occ. eigenvalues --   -0.41016  -0.40836  -0.39229  -0.37876  -0.37794
 Alpha  occ. eigenvalues --   -0.37059  -0.37031  -0.36769  -0.35679  -0.34925
 Alpha  occ. eigenvalues --   -0.34598  -0.33470  -0.33251  -0.33035  -0.32947
 Alpha  occ. eigenvalues --   -0.32453  -0.32189  -0.31926  -0.31660  -0.30631
 Alpha  occ. eigenvalues --   -0.30261  -0.30122  -0.25652  -0.24934
 Alpha virt. eigenvalues --    0.02916   0.04041   0.06811   0.08199   0.08678
 Alpha virt. eigenvalues --    0.09460   0.10045   0.10265   0.11316   0.11803
 Alpha virt. eigenvalues --    0.12370   0.14129   0.14646   0.14875   0.15304

 Mulliken charges:
               1
     1  N   -0.313621
     2  C    0.181948
     3  C    0.049564
     4  N   -0.260510
     5  C    0.137792
     6  H    0.025900
     7  N   -0.296145
     8  C    0.137207
     9  H    0.010339
    10  N   -0.287064
    11  C    0.259571
    12  C    0.110031
    13  N   -0.058459
    14  H    0.110167
    15  H    0.082127
    16  H    0.023520
    17  H    0.031136
    18  H    0.027608
    19  N   -0.307344
    20  C    0.243254
    21  C    0.180547
    22  N   -0.095102
    23  H    0.110985
    24  H    0.112386
    25  N   -0.306966
    26  C    0.220869
    27  N   -0.147312
    28  H    0.124699
    29  C    0.186226
    30  O   -0.323483
    31  C   -0.011843
    32  N   -0.224358
    33  C    0.132529
    34  H    0.020130
    35  H    0.029348
    36  H    0.027913
    37  H    0.023624
    38  H    0.060573
    39  H    0.058973
    40  H    0.071189
    41  H    0.029092
    42  C   -0.115339
    43  O   -0.263589
    44  C    0.170708
    45  H    0.132050
    46  N   -0.122382
    47  O   -0.340262
    48  C    0.335377
    49  H    0.045334
    50  C    0.164283
    51  C    0.039355
    52  N   -0.282033
    53  H    0.036240
    54  H    0.036504
    55  H    0.029470
    56  H    0.121719
    57  H    0.115956
    58  N   -0.058309
    59  C    0.084893
    60  C    0.255127
    61  N   -0.279261
    62  H    0.048680
    63  C    0.157575
    64  N   -0.302507
    65  H    0.038267
    66  C    0.137929
    67  N   -0.265421
    68  C    0.027071
    69  C    0.178912
    70  N   -0.313387
 Sum of Mulliken charges =  -0.00000

 Dipole moment (field-independent basis, Debye):
    X=             -8.5841    Y=              5.8919    Z=             -2.2281  Tot=             10.6473
 Quadrupole moment (field-independent basis, Debye-Ang):
   XX=           -158.0731   YY=           -216.3409   ZZ=           -254.4951
   XY=              2.6126   XZ=             -4.4651   YZ=              8.0769

 Normal termination of Gaussian 16 at Thu Jan 25 01:43:40 2018.
