 Gaussian 16, Revision A.03,
 Gaussian 16:  EM64L-G16RevA.03 25-Dec-2016

 ---------------------------------------
 #p wb97xd/cc-pvdz sp scf=(maxcycles=20)
 ---------------------------------------

 ------------------
 Base pair stacking
 ------------------
 Symbolic Z-matrix:
 Charge =  0 Multiplicity = 1

                         Standard orientation:
 ---------------------------------------------------------------------
 Center     Atomic      Atomic             Coordinates (Angstroms)
 Number     Number       Type             X           Y           Z
 ---------------------------------------------------------------------
      1          7           0       -6.119898   -1.668099    0.830287
      2          6           0       -7.511700   -1.188136    0.727632
      3          6           0       -3.933130   -1.757742    1.047837
      4          7           0       -4.361744   -3.068070    0.892745
      5          6           0       -5.662040   -2.961616    0.767893
      6          1           0       -6.342199   -3.802093    0.626689
      7          7           0       -2.576836    0.148249    1.348872
      8          6           0       -3.704057    0.865101    1.293524
      9          1           0       -3.576078    1.941674    1.397872
     10          7           0       -4.959730    0.453702    1.129405
     11          6           0       -5.005549   -0.883608    1.011444
     12          6           0       -2.656422   -1.194840    1.226948
     13          7           0       -1.532315   -1.912145    1.281937
     14          1           0       -1.543929   -2.909015    1.196325
     15          1           0       -0.640720   -1.477787    1.410513
     16          1           0       -8.059850   -1.591895    1.460226
     17          1           0       -7.528548   -0.192137    0.810248
     18          1           0       -7.893751   -1.454012   -0.157435
     19          7           0       -3.131385    2.782161   -1.564395
     20          6           0       -1.815403    2.413713   -1.421232
     21          6           0       -3.664708    4.142955   -1.353412
     22          7           0        1.474898    3.238245   -0.675690
     23          1           0        2.358909    2.774075   -0.627632
     24          1           0        1.463122    4.215184   -0.460792
     25          7           0       -0.796630    3.226370   -1.066634
     26          6           0        0.355006    2.581029   -1.013055
     27          7           0        0.500005    1.242280   -1.285525
     28          1           0        1.419096    0.832582   -1.219380
     29          6           0       -0.534293    0.386933   -1.652256
     30          8           0       -0.296362   -0.806310   -1.876524
     31          6           0       -1.777711    1.065892   -1.714056
     32          7           0       -3.044535    0.597593   -2.034594
     33          6           0       -3.812991    1.647981   -1.932744
     34          1           0       -4.888039    1.650981   -2.115851
     35          1           0       -4.351241    4.124833   -0.627370
     36          1           0       -2.919090    4.753788   -1.090330
     37          1           0       -4.082605    4.473759   -2.198838
     38          1           0        6.122698   -0.733241   -0.089277
     39          1           0        6.352793   -0.628377   -1.833042
     40          1           0        5.239817    0.474818   -1.023345
     41          1           0        3.959962   -4.789596   -1.508824
     42          6           0        3.761176   -3.718497   -1.470640
     43          8           0        1.422945   -3.954311   -1.793374
     44          6           0        2.417259   -3.250038   -1.619804
     45          1           0        1.341265   -1.509584   -1.657132
     46          7           0        2.276384   -1.878423   -1.555909
     47          8           0        3.048213    0.244963   -1.326364
     48          6           0        3.271604   -0.952091   -1.368874
     49          1           0        5.792051   -3.144173   -1.168107
     50          6           0        4.753130   -2.839379   -1.286871
     51          6           0        5.635969   -0.529739   -1.031480
     52          7           0        4.539930   -1.481426   -1.233343
     53          1           0        4.151984    4.139473    2.563500
     54          1           0        2.983358    4.032124    1.429967
     55          1           0        4.554273    3.986191    0.989304
     56          1           0        1.960273   -2.913292    1.842112
     57          1           0        3.568382   -2.479028    2.210224
     58          7           0        2.646223   -2.193183    1.947294
     59          6           0        2.345633   -0.908520    1.746121
     60          6           0        2.811796    1.422348    1.639133
     61          7           0        1.565016    1.776999    1.286736
     62          1           0       -0.249342    0.901884    0.908740
     63          6           0        0.783531    0.703169    1.191467
     64          7           0        1.082717   -0.584319    1.392560
     65          1           0        5.929047    1.826618    2.395103
     66          6           0        4.936711    1.428911    2.180524
     67          7           0        4.618042    0.158327    2.222377
     68          6           0        3.273437    0.140223    1.881148
     69          6           0        3.895598    3.719423    1.692969
     70          7           0        3.891704    2.250407    1.834350
 ---------------------------------------------------------------------

 SCF Done:  E(RwB97XD) =  -2048.72030584     A.U. after   15 cycles

 The electronic state is 1-A.
 Alpha  occ. eigenvalues --  -19.25825 -19.21918 -19.20551 -14.52408 -14.52357
 Alpha  occ. eigenvalues --  -14.48655 -14.48622 -14.48016 -14.47775 -14.46690
 Alpha  occ. eigenvalues --  -14.45970 -14.45347 -14.43880 -14.43260 -14.42332
 Alpha  occ. eigenvalues --  -14.41924 -14.41323 -14.40854 -14.40613 -14.40154
 Alpha  occ. eigenvalues --  -10.45418 -10.40792 -10.40039 -10.39585 -10.38066
 Alpha  occ. eigenvalues --  -10.37829 -10.37768 -10.36861 -10.35407 -10.35320
 Alpha  occ. eigenvalues --  -10.34869 -10.34346 -10.34172 -10.33997 -10.33256
 Alpha  occ. eigenvalues --  -10.33121 -10.33041 -10.32249 -10.31101 -10.30893
 Alpha  occ. eigenvalues --  -10.30797 -10.28442 -10.27934  -1.19398  -1.15050
 Alpha  occ. eigenvalues --   -1.13154  -1.12946  -1.11236  -1.10469  -1.09246
 Alpha  occ. eigenvalues --   -1.09029  -1.08368  -1.04950  -1.04546  -1.02396
 Alpha  occ. eigenvalues --   -1.00923  -1.00428  -0.99548  -0.98454  -0.96922
 Alpha  occ. eigenvalues --   -0.96508  -0.96391  -0.92623  -0.90989  -0.87495
 Alpha  occ. eigenvalues --   -0.86016  -0.83942  -0.83853  -0.83421  -0.82371
 Alpha  occ. eigenvalues --   -0.82249  -0.78811  -0.76839  -0.74727  -0.74461
 Alpha  occ. eigenvalues --   -0.73492  -0.73259  -0.72868  -0.71013  -0.70299
 Alpha  occ. eigenvalues --   -0.67222  -0.66685  -0.66441  -0.66279  -0.64349
 Alpha  occ. eigenvalues --   -0.64203  -0.63646  -0.62741  -0.62696  -0.61564
 Alpha  occ. eigenvalues --   -0.60578  -0.60345  -0.60175  -0.59451  -0.59368
 Alpha  occ. eigenvalues --   -0.59313  -0.58170  -0.56891  -0.56436  -0.56254
 Alpha  occ. eigenvalues --   -0.55939  -0.55586  -0.55371  -0.54930  -0.54281
 Alpha  occ. eigenvalues --   -0.54023  -0.53531  -0.53132  -0.52969  -0.52820
 Alpha  occ. eigenvalues --   -0.52468  -0.52209  -0.51707  -0.50698  -0.50155
 Alpha  occ. eigenvalues --   -0.50050  -0.49488  -0.49347  -0.48912  -0.48760
 Alpha  occ. eigenvalues --   -0.48687  -0.48202  -0.48092  -0.47733  -0.47279
 Alpha  occ. eigenvalues --   -0.46837  -0.45791  -0.44913  -0.44196  -0.43835
 Alpha  occ. eigenvalues --   -0.41084  -0.40836  -0.39403  -0.37841  -0.37644
 Alpha  occ. eigenvalues --   -0.37155  -0.37121  -0.36725  -0.35902  -0.34767
 Alpha  occ. eigenvalues --   -0.34209  -0.33551  -0.33416  -0.33086  -0.32546
 Alpha  occ. eigenvalues --   -0.32345  -0.31904  -0.31789  -0.31689  -0.30786
 Alpha  occ. eigenvalues --   -0.30362  -0.29427  -0.25898  -0.24831
 Alpha virt. eigenvalues --    0.03117   0.04300   0.07297   0.08036   0.08486
 Alpha virt. eigenvalues --    0.09427   0.09718   0.10749   0.11187   0.11698
 Alpha virt. eigenvalues --    0.12493   0.14006   0.14380   0.14635   0.15040

 Mulliken charges:
               1
     1  N   -0.313089
     2  C    0.181291
     3  C    0.043634
     4  N   -0.260816
     5  C    0.135303
     6  H    0.026332
     7  N   -0.288750
     8  C    0.140884
     9  H    0.007790
    10  N   -0.291683
    11  C    0.251445
    12  C    0.119427
    13  N   -0.057915
    14  H    0.108684
    15  H    0.085011
    16  H    0.024740
    17  H    0.032113
    18  H    0.027003
    19  N   -0.306900
    20  C    0.240657
    21  C    0.180284
    22  N   -0.072189
    23  H    0.110141
    24  H    0.113273
    25  N   -0.299042
    26  C    0.204235
    27  N   -0.133632
    28  H    0.122184
    29  C    0.160362
    30  O   -0.319873
    31  C    0.012496
    32  N   -0.224091
    33  C    0.127273
    34  H    0.023412
    35  H    0.029675
    36  H    0.027517
    37  H    0.024175
    38  H    0.062627
    39  H    0.057668
    40  H    0.071235
    41  H    0.030613
    42  C   -0.112052
    43  O   -0.263885
    44  C    0.171223
    45  H    0.132964
    46  N   -0.126473
    47  O   -0.344350
    48  C    0.346699
    49  H    0.047368
    50  C    0.166819
    51  C    0.040442
    52  N   -0.288096
    53  H    0.038872
    54  H    0.026428
    55  H    0.030080
    56  H    0.123525
    57  H    0.115867
    58  N   -0.064898
    59  C    0.081440
    60  C    0.241607
    61  N   -0.283288
    62  H    0.036477
    63  C    0.171206
    64  N   -0.299809
    65  H    0.034691
    66  C    0.134278
    67  N   -0.264800
    68  C    0.035760
    69  C    0.173587
    70  N   -0.315187
 Sum of Mulliken charges =  -0.00000

 Dipole moment (field-independent basis, Debye):
    X=              8.1923    Y=              5.6694    Z=              2.7974  Tot=             10.3480
 Quadrupole moment (field-independent basis, Debye-Ang):
   XX=           -154.5317   YY=           -217.5432   ZZ=           -255.1247
   XY=             -0.8630   XZ=              2.6800   YZ=             -9.9368

 Normal termination of Gaussian 16 at Wed Jan 24 11:14:27 2018.
