 Gaussian 16, Revision A.03,
 Gaussian 16:  EM64L-G16RevA.03 25-Dec-2016

 ---------------------------------------
 #p wb97xd/cc-pvdz sp scf=(maxcycles=20)
 ---------------------------------------

 ------------------
 Base pair stacking
 ------------------
 Symbolic Z-matrix:
 Charge =  0 Multiplicity = 1

                         Standard orientation:
 ---------------------------------------------------------------------
 Center     Atomic      Atomic             Coordinates (Angstroms)
 Number     Number       Type             X           Y           Z
 ---------------------------------------------------------------------
      1          7           0       -6.411497   -1.623758    0.620895
      2          6           0       -7.800489   -1.136808    0.513320
      3          6           0       -4.229672   -1.727868    0.878068
      4          7           0       -4.656248   -3.028424    0.651518
      5          6           0       -5.953640   -2.913650    0.505658
      6          1           0       -6.631557   -3.745080    0.310486
      7          7           0       -2.878041    0.158896    1.297760
      8          6           0       -4.003258    0.879701    1.254148
      9          1           0       -3.876449    1.949774    1.412700
     10          7           0       -5.255712    0.479028    1.045087
     11          6           0       -5.300347   -0.850987    0.862061
     12          6           0       -2.956353   -1.176633    1.109816
     13          7           0       -1.834242   -1.897861    1.152979
     14          1           0       -1.845018   -2.889442    1.019315
     15          1           0       -0.945046   -1.471862    1.320295
     16          1           0       -8.363758   -1.574265    1.214422
     17          1           0       -7.818107   -0.145899    0.643362
     18          1           0       -8.164743   -1.359133   -0.391052
     19          7           0       -2.788769    2.812992   -1.672678
     20          6           0       -1.479540    2.434829   -1.496727
     21          6           0       -3.309923    4.185318   -1.512043
     22          7           0        1.807474    3.246009   -0.722587
     23          1           0        2.685261    2.773956   -0.645873
     24          1           0        1.803331    4.229139   -0.537750
     25          7           0       -0.457445    3.246854   -1.150320
     26          6           0        0.685777    2.590967   -1.058173
     27          7           0        0.819921    1.243012   -1.287317
     28          1           0        1.733114    0.825560   -1.193614
     29          6           0       -0.217989    0.388125   -1.644806
     30          8           0        0.009963   -0.813949   -1.828688
     31          6           0       -1.452446    1.078335   -1.747708
     32          7           0       -2.719175    0.614225   -2.074648
     33          6           0       -3.477192    1.675523   -2.017485
     34          1           0       -4.549050    1.684601   -2.218273
     35          1           0       -4.008235    4.196915   -0.797180
     36          1           0       -2.561755    4.795788   -1.255440
     37          1           0       -3.710356    4.494595   -2.373905
     38          1           0        6.399787   -0.755921    0.060909
     39          1           0        6.659147   -0.707020   -1.681213
     40          1           0        5.545857    0.432486   -0.923922
     41          1           0        4.214263   -4.830122   -1.269864
     42          6           0        4.027068   -3.756252   -1.267591
     43          8           0        1.691807   -3.976421   -1.621431
     44          6           0        2.691137   -3.278004   -1.453055
     45          1           0        1.635744   -1.527920   -1.561059
     46          7           0        2.564852   -1.903633   -1.433278
     47          8           0        3.356949    0.217281   -1.255826
     48          6           0        3.567395   -0.982875   -1.258190
     49          1           0        6.059195   -3.195032   -0.949305
     50          6           0        5.025868   -2.882743   -1.094381
     51          6           0        5.930655   -0.576095   -0.894938
     52          7           0        4.827275   -1.521551   -1.085739
     53          1           0        3.828370    4.074480    2.838695
     54          1           0        2.682890    4.023920    1.677916
     55          1           0        4.262376    3.996254    1.267403
     56          1           0        1.645349   -2.931344    1.734883
     57          1           0        3.246045   -2.518289    2.155895
     58          7           0        2.329669   -2.218414    1.888421
     59          6           0        2.034397   -0.924999    1.743200
     60          6           0        2.504747    1.407437    1.757853
     61          7           0        1.265693    1.780962    1.397771
     62          1           0       -0.541410    0.928428    0.941520
     63          6           0        0.485334    0.714418    1.235197
     64          7           0        0.779211   -0.581810    1.380165
     65          1           0        5.606387    1.769040    2.595265
     66          6           0        4.618242    1.383976    2.341790
     67          7           0        4.297638    0.113449    2.316050
     68          6           0        2.960215    0.114301    1.947225
     69          6           0        3.589309    3.697225    1.943970
     70          7           0        3.581231    2.223121    2.014451
 ---------------------------------------------------------------------

 SCF Done:  E(RwB97XD) =  -2048.72965895     A.U. after   15 cycles

 The electronic state is 1-A.
 Alpha  occ. eigenvalues --  -19.25938 -19.22096 -19.20666 -14.52475 -14.52124
 Alpha  occ. eigenvalues --  -14.48747 -14.48739 -14.47907 -14.47638 -14.46801
 Alpha  occ. eigenvalues --  -14.46493 -14.45082 -14.43569 -14.43097 -14.42267
 Alpha  occ. eigenvalues --  -14.42106 -14.41403 -14.40905 -14.40731 -14.40142
 Alpha  occ. eigenvalues --  -10.45541 -10.41123 -10.40203 -10.39286 -10.38215
 Alpha  occ. eigenvalues --  -10.37898 -10.37605 -10.36567 -10.35414 -10.35075
 Alpha  occ. eigenvalues --  -10.35060 -10.34352 -10.34070 -10.34009 -10.33335
 Alpha  occ. eigenvalues --  -10.33194 -10.33094 -10.32017 -10.31214 -10.30951
 Alpha  occ. eigenvalues --  -10.30875 -10.28507 -10.28102  -1.19500  -1.14775
 Alpha  occ. eigenvalues --   -1.13282  -1.13109  -1.11319  -1.10580  -1.09363
 Alpha  occ. eigenvalues --   -1.08786  -1.08465  -1.04964  -1.04203  -1.02543
 Alpha  occ. eigenvalues --   -1.00651  -1.00439  -0.99789  -0.98573  -0.96964
 Alpha  occ. eigenvalues --   -0.96556  -0.96167  -0.92627  -0.91119  -0.87210
 Alpha  occ. eigenvalues --   -0.85717  -0.84092  -0.83919  -0.83580  -0.82491
 Alpha  occ. eigenvalues --   -0.82303  -0.78937  -0.76556  -0.74653  -0.74309
 Alpha  occ. eigenvalues --   -0.73691  -0.73403  -0.72898  -0.71051  -0.69988
 Alpha  occ. eigenvalues --   -0.67413  -0.66599  -0.66335  -0.66307  -0.64485
 Alpha  occ. eigenvalues --   -0.63874  -0.63780  -0.62790  -0.62706  -0.61815
 Alpha  occ. eigenvalues --   -0.60341  -0.60193  -0.59973  -0.59554  -0.59376
 Alpha  occ. eigenvalues --   -0.59114  -0.58339  -0.56882  -0.56510  -0.56349
 Alpha  occ. eigenvalues --   -0.56025  -0.55476  -0.55344  -0.54816  -0.54387
 Alpha  occ. eigenvalues --   -0.53765  -0.53649  -0.53109  -0.52971  -0.52791
 Alpha  occ. eigenvalues --   -0.52375  -0.52281  -0.51754  -0.50731  -0.50197
 Alpha  occ. eigenvalues --   -0.50171  -0.49457  -0.49381  -0.48849  -0.48720
 Alpha  occ. eigenvalues --   -0.48692  -0.48384  -0.48205  -0.48035  -0.47415
 Alpha  occ. eigenvalues --   -0.46928  -0.45781  -0.45006  -0.44051  -0.43681
 Alpha  occ. eigenvalues --   -0.41150  -0.40284  -0.39494  -0.37616  -0.37332
 Alpha  occ. eigenvalues --   -0.37262  -0.37170  -0.36722  -0.35907  -0.34494
 Alpha  occ. eigenvalues --   -0.34105  -0.33557  -0.33431  -0.33250  -0.32702
 Alpha  occ. eigenvalues --   -0.32625  -0.32415  -0.32031  -0.31813  -0.30831
 Alpha  occ. eigenvalues --   -0.30370  -0.29133  -0.25882  -0.25290
 Alpha virt. eigenvalues --    0.02958   0.04554   0.07452   0.07975   0.08696
 Alpha virt. eigenvalues --    0.09140   0.09489   0.10930   0.11304   0.11723
 Alpha virt. eigenvalues --    0.12609   0.14136   0.14215   0.14641   0.14938

 Mulliken charges:
               1
     1  N   -0.312191
     2  C    0.181062
     3  C    0.039859
     4  N   -0.260073
     5  C    0.134557
     6  H    0.026453
     7  N   -0.290457
     8  C    0.135818
     9  H    0.008184
    10  N   -0.291875
    11  C    0.246761
    12  C    0.123068
    13  N   -0.055902
    14  H    0.109033
    15  H    0.087533
    16  H    0.025121
    17  H    0.033123
    18  H    0.026497
    19  N   -0.310618
    20  C    0.242126
    21  C    0.180792
    22  N   -0.093171
    23  H    0.113914
    24  H    0.114165
    25  N   -0.294798
    26  C    0.209008
    27  N   -0.121684
    28  H    0.115408
    29  C    0.148989
    30  O   -0.317431
    31  C    0.017129
    32  N   -0.224246
    33  C    0.127135
    34  H    0.027206
    35  H    0.029389
    36  H    0.027790
    37  H    0.024516
    38  H    0.063424
    39  H    0.057841
    40  H    0.072508
    41  H    0.031099
    42  C   -0.113278
    43  O   -0.265518
    44  C    0.169107
    45  H    0.133978
    46  N   -0.128601
    47  O   -0.346932
    48  C    0.353144
    49  H    0.048151
    50  C    0.169443
    51  C    0.041362
    52  N   -0.290025
    53  H    0.037563
    54  H    0.036016
    55  H    0.024730
    56  H    0.125604
    57  H    0.114791
    58  N   -0.066142
    59  C    0.086764
    60  C    0.221724
    61  N   -0.265092
    62  H    0.044935
    63  C    0.167815
    64  N   -0.300851
    65  H    0.032976
    66  C    0.134690
    67  N   -0.265631
    68  C    0.038952
    69  C    0.166127
    70  N   -0.312867
 Sum of Mulliken charges =  -0.00000

 Dipole moment (field-independent basis, Debye):
    X=              8.1840    Y=              5.5715    Z=              2.5955  Tot=             10.2350
 Quadrupole moment (field-independent basis, Debye-Ang):
   XX=           -152.6937   YY=           -217.5582   ZZ=           -253.9297
   XY=             -0.1061   XZ=              6.3309   YZ=             -9.3107

 Normal termination of Gaussian 16 at Thu Jan 25 02:17:53 2018.
