 Gaussian 16, Revision A.03,
 Gaussian 16:  EM64L-G16RevA.03 25-Dec-2016

 ---------------------------------------
 #p wb97xd/cc-pvdz sp scf=(maxcycles=20)
 ---------------------------------------

 ------------------
 Base pair stacking
 ------------------
 Symbolic Z-matrix:
 Charge =  0 Multiplicity = 1

                         Standard orientation:
 ---------------------------------------------------------------------
 Center     Atomic      Atomic             Coordinates (Angstroms)
 Number     Number       Type             X           Y           Z
 ---------------------------------------------------------------------
      1          7           0        4.599656   -1.874793   -1.699736
      2          6           0        6.011383   -1.447863   -1.752213
      3          6           0        2.402078   -1.879087   -1.610491
      4          7           0        2.791831   -3.210200   -1.641548
      5          6           0        4.100189   -3.154334   -1.694074
      6          1           0        4.756908   -4.023995   -1.730700
      7          7           0        1.099628    0.085821   -1.535100
      8          6           0        2.253113    0.760730   -1.574244
      9          1           0        2.157885    1.845599   -1.557979
     10          7           0        3.500704    0.298911   -1.630223
     11          6           0        3.505427   -1.044283   -1.645775
     12          6           0        1.138049   -1.264486   -1.552099
     13          7           0       -0.012331   -1.939960   -1.513077
     14          1           0       -0.031445   -2.940332   -1.523743
     15          1           0       -0.893799   -1.469370   -1.471880
     16          1           0        6.434491   -1.793022   -2.590081
     17          1           0        6.059039   -0.449477   -1.742734
     18          1           0        6.501231   -1.810790   -0.959546
     19          7           0        4.716234    2.621113    0.829874
     20          6           0        3.381285    2.301330    0.890666
     21          6           0        5.261461    3.943279    0.462008
     22          7           0        0.049634    3.220276    0.548093
     23          1           0       -0.847878    2.792180    0.650309
     24          1           0        0.064968    4.181579    0.271713
     25          7           0        2.351650    3.134521    0.626690
     26          6           0        1.182284    2.536805    0.771376
     27          7           0        1.030690    1.223672    1.145857
     28          1           0        0.097813    0.850337    1.231488
     29          6           0        2.075911    0.347961    1.422434
     30          8           0        1.830625   -0.818896    1.752608
     31          6           0        3.338399    0.975776    1.271261
     32          7           0        4.620626    0.473472    1.445902
     33          6           0        5.403066    1.482404    1.173766
     34          1           0        6.492572    1.450311    1.208521
     35          1           0        5.840006    3.853479   -0.347941
     36          1           0        4.507952    4.568890    0.264264
     37          1           0        5.803294    4.304859    1.219965
     38          1           0       -4.767587   -0.577070    0.853232
     39          1           0       -4.750687   -0.360679    2.601820
     40          1           0       -3.723289    0.644837    1.579691
     41          1           0       -2.569270   -4.631908    2.221549
     42          6           0       -2.341189   -3.574322    2.088467
     43          8           0        0.009769   -3.890258    2.104839
     44          6           0       -0.974331   -3.155623    2.023433
     45          1           0        0.155326   -1.463388    1.803093
     46          7           0       -0.796857   -1.797345    1.853629
     47          8           0       -1.519981    0.339942    1.596122
     48          6           0       -1.776135   -0.841979    1.744863
     49          1           0       -4.373560   -2.932676    2.028701
     50          6           0       -3.318398   -2.665992    1.985502
     51          6           0       -4.148609   -0.339729    1.705642
     52          7           0       -3.068365   -1.323806    1.816987
     53          1           0       -5.556365    4.370839   -1.398056
     54          1           0       -4.246970    4.118264   -0.457959
     55          1           0       -5.741767    4.074595    0.196083
     56          1           0       -3.588383   -2.779245   -1.660490
     57          1           0       -5.212074   -2.264322   -1.753092
     58          7           0       -4.250949   -2.032682   -1.598823
     59          6           0       -3.870763   -0.783426   -1.323169
     60          6           0       -4.217656    1.538026   -0.932941
     61          7           0       -2.919980    1.819855   -0.730388
     62          1           0       -1.109658    0.859466   -0.698756
     63          6           0       -2.179368    0.719658   -0.848582
     64          7           0       -2.558260   -0.532462   -1.124615
     65          1           0       -7.389682    2.105140   -1.195207
     66          6           0       -6.395017    1.659605   -1.162598
     67          7           0       -6.139756    0.390655   -1.368301
     68          6           0       -4.762751    0.299983   -1.225621
     69          6           0       -5.199436    3.859636   -0.616227
     70          7           0       -5.277918    2.412266   -0.893667
 ---------------------------------------------------------------------

 SCF Done:  E(RwB97XD) =  -2048.73668252     A.U. after   15 cycles

 The electronic state is 1-A.
 Alpha  occ. eigenvalues --  -19.25159 -19.21259 -19.20384 -14.52815 -14.51788
 Alpha  occ. eigenvalues --  -14.49289 -14.48649 -14.48327 -14.47162 -14.46384
 Alpha  occ. eigenvalues --  -14.46133 -14.45732 -14.45083 -14.45049 -14.43115
 Alpha  occ. eigenvalues --  -14.41827 -14.41097 -14.40862 -14.40820 -14.40487
 Alpha  occ. eigenvalues --  -10.44758 -10.40868 -10.40761 -10.39399 -10.38276
 Alpha  occ. eigenvalues --  -10.37912 -10.37714 -10.37279 -10.36637 -10.35749
 Alpha  occ. eigenvalues --  -10.34182 -10.34129 -10.34045 -10.33796 -10.33318
 Alpha  occ. eigenvalues --  -10.33153 -10.33083 -10.32866 -10.30878 -10.30609
 Alpha  occ. eigenvalues --  -10.30291 -10.28466 -10.27847  -1.18887  -1.15604
 Alpha  occ. eigenvalues --   -1.12936  -1.12311  -1.10998  -1.10387  -1.10120
 Alpha  occ. eigenvalues --   -1.08702  -1.08257  -1.05639  -1.05260  -1.01786
 Alpha  occ. eigenvalues --   -1.01386  -1.00768  -0.99317  -0.98301  -0.97652
 Alpha  occ. eigenvalues --   -0.96714  -0.96438  -0.92938  -0.90504  -0.88191
 Alpha  occ. eigenvalues --   -0.86325  -0.83962  -0.83672  -0.82941  -0.82359
 Alpha  occ. eigenvalues --   -0.81985  -0.78283  -0.77661  -0.75547  -0.74402
 Alpha  occ. eigenvalues --   -0.73272  -0.72998  -0.72722  -0.71133  -0.70993
 Alpha  occ. eigenvalues --   -0.67531  -0.67028  -0.66390  -0.65950  -0.64882
 Alpha  occ. eigenvalues --   -0.64110  -0.63438  -0.62851  -0.62445  -0.61439
 Alpha  occ. eigenvalues --   -0.61144  -0.60840  -0.60536  -0.59973  -0.59211
 Alpha  occ. eigenvalues --   -0.58933  -0.57926  -0.57021  -0.56407  -0.55946
 Alpha  occ. eigenvalues --   -0.55738  -0.55700  -0.55621  -0.55007  -0.54155
 Alpha  occ. eigenvalues --   -0.53801  -0.53710  -0.53261  -0.53213  -0.52759
 Alpha  occ. eigenvalues --   -0.52220  -0.51828  -0.51486  -0.50553  -0.50470
 Alpha  occ. eigenvalues --   -0.49969  -0.49798  -0.49740  -0.48965  -0.48919
 Alpha  occ. eigenvalues --   -0.48545  -0.47944  -0.47791  -0.47623  -0.46981
 Alpha  occ. eigenvalues --   -0.46855  -0.45610  -0.45063  -0.44285  -0.43352
 Alpha  occ. eigenvalues --   -0.41355  -0.41235  -0.39001  -0.38233  -0.38217
 Alpha  occ. eigenvalues --   -0.37573  -0.37108  -0.36566  -0.35478  -0.35218
 Alpha  occ. eigenvalues --   -0.35074  -0.34235  -0.33443  -0.33148  -0.32703
 Alpha  occ. eigenvalues --   -0.32334  -0.32315  -0.31689  -0.31250  -0.30639
 Alpha  occ. eigenvalues --   -0.30498  -0.30176  -0.26381  -0.24744
 Alpha virt. eigenvalues --    0.03354   0.03742   0.06316   0.07880   0.09100
 Alpha virt. eigenvalues --    0.09423   0.09822   0.10173   0.10828   0.11679
 Alpha virt. eigenvalues --    0.13344   0.14303   0.14551   0.14702   0.15179

 Mulliken charges:
               1
     1  N   -0.312527
     2  C    0.185183
     3  C    0.061123
     4  N   -0.263866
     5  C    0.143312
     6  H    0.027503
     7  N   -0.281892
     8  C    0.110434
     9  H    0.022937
    10  N   -0.267605
    11  C    0.260090
    12  C    0.083289
    13  N   -0.069064
    14  H    0.108671
    15  H    0.080719
    16  H    0.020160
    17  H    0.030150
    18  H    0.032515
    19  N   -0.306155
    20  C    0.241595
    21  C    0.181525
    22  N   -0.106498
    23  H    0.114750
    24  H    0.114922
    25  N   -0.298472
    26  C    0.206116
    27  N   -0.107703
    28  H    0.112856
    29  C    0.160359
    30  O   -0.319436
    31  C    0.008661
    32  N   -0.229741
    33  C    0.120920
    34  H    0.020075
    35  H    0.026907
    36  H    0.028713
    37  H    0.023849
    38  H    0.067274
    39  H    0.055518
    40  H    0.078859
    41  H    0.028198
    42  C   -0.115140
    43  O   -0.261583
    44  C    0.178480
    45  H    0.134719
    46  N   -0.129029
    47  O   -0.344199
    48  C    0.352977
    49  H    0.042828
    50  C    0.164354
    51  C    0.034265
    52  N   -0.278734
    53  H    0.034958
    54  H    0.036989
    55  H    0.032084
    56  H    0.119083
    57  H    0.120858
    58  N   -0.061383
    59  C    0.064962
    60  C    0.243098
    61  N   -0.279800
    62  H    0.003559
    63  C    0.209170
    64  N   -0.307507
    65  H    0.040268
    66  C    0.138354
    67  N   -0.255275
    68  C    0.017837
    69  C    0.181522
    70  N   -0.311942
 Sum of Mulliken charges =  -0.00000

 Dipole moment (field-independent basis, Debye):
    X=             -8.4918    Y=              6.0096    Z=             -2.2513  Tot=             10.6440
 Quadrupole moment (field-independent basis, Debye-Ang):
   XX=           -165.9242   YY=           -217.4788   ZZ=           -253.9356
   XY=              7.0538   XZ=            -16.3955   YZ=             11.3849

 Normal termination of Gaussian 16 at Wed Jan 24 23:01:06 2018.
