 Gaussian 16, Revision A.03,
 Gaussian 16:  EM64L-G16RevA.03 25-Dec-2016

 ---------------------------------------
 #p wb97xd/cc-pvdz sp scf=(maxcycles=20)
 ---------------------------------------

 ------------------
 Base pair stacking
 ------------------
 Symbolic Z-matrix:
 Charge =  0 Multiplicity = 1

                         Standard orientation:
 ---------------------------------------------------------------------
 Center     Atomic      Atomic             Coordinates (Angstroms)
 Number     Number       Type             X           Y           Z
 ---------------------------------------------------------------------
      1          7           0       -5.263403   -2.070092    1.363269
      2          6           0       -6.660636   -1.687486    1.644955
      3          6           0       -3.069841   -2.067216    1.203201
      4          7           0       -3.496287   -3.274910    0.669960
      5          6           0       -4.800759   -3.228310    0.787733
      6          1           0       -5.480737   -4.018578    0.468294
      7          7           0       -1.714510   -0.282257    1.937992
      8          6           0       -2.846998    0.325916    2.305651
      9          1           0       -2.721474    1.309508    2.756268
     10          7           0       -4.105351   -0.096510    2.200756
     11          6           0       -4.147786   -1.313964    1.634687
     12          6           0       -1.790788   -1.506255    1.371355
     13          7           0       -0.661420   -2.114953    1.003671
     14          1           0       -0.670446   -3.021613    0.580458
     15          1           0        0.231696   -1.685702    1.138646
     16          1           0       -7.071748   -2.355030    2.265894
     17          1           0       -6.680159   -0.782724    2.069385
     18          1           0       -7.180745   -1.664569    0.791167
     19          7           0       -4.030289    2.995031   -1.151336
     20          6           0       -2.700733    2.657408   -1.230968
     21          6           0       -4.552657    4.353954   -0.904029
     22          7           0        0.647223    3.574306   -1.120238
     23          1           0        1.537412    3.128942   -1.212188
     24          1           0        0.648546    4.559505   -0.946704
     25          7           0       -1.656541    3.503553   -1.097752
     26          6           0       -0.497402    2.882342   -1.224768
     27          7           0       -0.368545    1.535616   -1.463958
     28          1           0        0.557960    1.146100   -1.546630
     29          6           0       -1.429067    0.646002   -1.604582
     30          8           0       -1.203984   -0.551544   -1.818954
     31          6           0       -2.680813    1.298733   -1.470610
     32          7           0       -3.971884    0.793554   -1.540026
     33          6           0       -4.736922    1.833255   -1.345273
     34          1           0       -5.827112    1.808466   -1.333101
     35          1           0       -5.098362    4.355823   -0.066762
     36          1           0       -3.788225    4.989428   -0.803671
     37          1           0       -5.122741    4.638915   -1.673837
     38          1           0        5.426553   -0.281588   -1.213193
     39          1           0        5.339950   -0.250672   -2.972791
     40          1           0        4.360565    0.867174   -2.022738
     41          1           0        3.151654   -4.436148   -2.056415
     42          6           0        2.935136   -3.368216   -2.026998
     43          8           0        0.583698   -3.660806   -1.916395
     44          6           0        1.574438   -2.931471   -1.952349
     45          1           0        0.464222   -1.214326   -1.867531
     46          7           0        1.411668   -1.561167   -1.920258
     47          8           0        2.156718    0.584086   -1.919240
     48          6           0        2.399942   -0.609408   -1.952181
     49          1           0        4.971853   -2.744003   -2.116271
     50          6           0        3.920837   -2.463817   -2.059615
     51          6           0        4.774849   -0.129346   -2.060642
     52          7           0        3.685437   -1.108937   -2.024231
     53          1           0        5.054694    3.543183    3.430028
     54          1           0        3.714995    3.741257    2.520049
     55          1           0        5.190680    3.963208    1.858878
     56          1           0        2.891977   -2.987140    0.647393
     57          1           0        4.531462   -2.586579    0.895827
     58          7           0        3.573665   -2.297094    0.890881
     59          6           0        3.222140   -1.046188    1.195595
     60          6           0        3.624650    1.210255    1.834501
     61          7           0        2.330728    1.570764    1.819635
     62          1           0        0.493674    0.744972    1.440319
     63          6           0        1.562470    0.538611    1.477082
     64          7           0        1.912625   -0.715026    1.171524
     65          1           0        6.817182    1.562009    2.203575
     66          6           0        5.809762    1.188903    2.016926
     67          7           0        5.523954   -0.040259    1.663159
     68          6           0        4.141720   -0.040295    1.544132
     69          6           0        4.663471    3.425826    2.517246
     70          7           0        4.707950    1.999938    2.139246
 ---------------------------------------------------------------------

 SCF Done:  E(RwB97XD) =  -2048.74489424     A.U. after   15 cycles

 The electronic state is 1-A.
 Alpha  occ. eigenvalues --  -19.25873 -19.22289 -19.20651 -14.52544 -14.52356
 Alpha  occ. eigenvalues --  -14.48898 -14.48313 -14.47919 -14.47882 -14.47001
 Alpha  occ. eigenvalues --  -14.46766 -14.45443 -14.44317 -14.44237 -14.42114
 Alpha  occ. eigenvalues --  -14.41728 -14.40985 -14.40511 -14.40270 -14.39739
 Alpha  occ. eigenvalues --  -10.45532 -10.41340 -10.40374 -10.39965 -10.38286
 Alpha  occ. eigenvalues --  -10.38155 -10.37966 -10.37131 -10.35677 -10.35006
 Alpha  occ. eigenvalues --  -10.34835 -10.34440 -10.33771 -10.33426 -10.33249
 Alpha  occ. eigenvalues --  -10.32656 -10.32591 -10.32485 -10.31324 -10.31038
 Alpha  occ. eigenvalues --  -10.30279 -10.28198 -10.27762  -1.19461  -1.15114
 Alpha  occ. eigenvalues --   -1.13284  -1.13256  -1.10677  -1.10503  -1.09535
 Alpha  occ. eigenvalues --   -1.09225  -1.08641  -1.04858  -1.04405  -1.02564
 Alpha  occ. eigenvalues --   -1.00935  -0.99841  -0.99806  -0.98634  -0.96858
 Alpha  occ. eigenvalues --   -0.96698  -0.96150  -0.92089  -0.91317  -0.87551
 Alpha  occ. eigenvalues --   -0.85810  -0.84216  -0.83600  -0.83186  -0.82609
 Alpha  occ. eigenvalues --   -0.81601  -0.79078  -0.77014  -0.74793  -0.74712
 Alpha  occ. eigenvalues --   -0.73740  -0.73452  -0.72247  -0.70463  -0.70326
 Alpha  occ. eigenvalues --   -0.67480  -0.66849  -0.66642  -0.65638  -0.64590
 Alpha  occ. eigenvalues --   -0.64252  -0.63888  -0.62754  -0.62057  -0.61852
 Alpha  occ. eigenvalues --   -0.60576  -0.60207  -0.60096  -0.59657  -0.59320
 Alpha  occ. eigenvalues --   -0.59195  -0.58458  -0.56719  -0.56054  -0.55980
 Alpha  occ. eigenvalues --   -0.55600  -0.55222  -0.54858  -0.54534  -0.54139
 Alpha  occ. eigenvalues --   -0.53767  -0.53695  -0.53514  -0.53273  -0.53076
 Alpha  occ. eigenvalues --   -0.52739  -0.52443  -0.51105  -0.50297  -0.50050
 Alpha  occ. eigenvalues --   -0.49843  -0.49578  -0.49464  -0.49153  -0.48985
 Alpha  occ. eigenvalues --   -0.48549  -0.48390  -0.48252  -0.47799  -0.47416
 Alpha  occ. eigenvalues --   -0.46286  -0.45782  -0.45456  -0.44221  -0.43746
 Alpha  occ. eigenvalues --   -0.40653  -0.40467  -0.39468  -0.37555  -0.37538
 Alpha  occ. eigenvalues --   -0.37377  -0.37355  -0.36426  -0.35978  -0.34751
 Alpha  occ. eigenvalues --   -0.34330  -0.34025  -0.33425  -0.32833  -0.32785
 Alpha  occ. eigenvalues --   -0.32733  -0.32528  -0.32363  -0.31958  -0.30227
 Alpha  occ. eigenvalues --   -0.29936  -0.29801  -0.25602  -0.25068
 Alpha virt. eigenvalues --    0.02306   0.04345   0.06948   0.08423   0.08732
 Alpha virt. eigenvalues --    0.09182   0.09701   0.10546   0.11489   0.11664
 Alpha virt. eigenvalues --    0.13132   0.14455   0.14761   0.14832   0.15109

 Mulliken charges:
               1
     1  N   -0.312967
     2  C    0.182019
     3  C    0.050299
     4  N   -0.256660
     5  C    0.138841
     6  H    0.024702
     7  N   -0.300874
     8  C    0.135599
     9  H    0.008386
    10  N   -0.289913
    11  C    0.257031
    12  C    0.106718
    13  N   -0.060281
    14  H    0.114419
    15  H    0.082313
    16  H    0.022568
    17  H    0.031455
    18  H    0.026399
    19  N   -0.311474
    20  C    0.251030
    21  C    0.180697
    22  N   -0.120175
    23  H    0.114987
    24  H    0.117090
    25  N   -0.311385
    26  C    0.246588
    27  N   -0.151037
    28  H    0.121302
    29  C    0.197232
    30  O   -0.321402
    31  C   -0.015153
    32  N   -0.226426
    33  C    0.130915
    34  H    0.022704
    35  H    0.028993
    36  H    0.029098
    37  H    0.024668
    38  H    0.061524
    39  H    0.059862
    40  H    0.073462
    41  H    0.029365
    42  C   -0.127237
    43  O   -0.264532
    44  C    0.166074
    45  H    0.131606
    46  N   -0.117601
    47  O   -0.343958
    48  C    0.338213
    49  H    0.045186
    50  C    0.164586
    51  C    0.037661
    52  N   -0.274878
    53  H    0.034228
    54  H    0.042144
    55  H    0.027983
    56  H    0.122373
    57  H    0.113459
    58  N   -0.054325
    59  C    0.090953
    60  C    0.252391
    61  N   -0.274536
    62  H    0.037949
    63  C    0.173209
    64  N   -0.313049
    65  H    0.037888
    66  C    0.138735
    67  N   -0.270205
    68  C    0.026233
    69  C    0.179761
    70  N   -0.312831
 Sum of Mulliken charges =  -0.00000

 Dipole moment (field-independent basis, Debye):
    X=              8.7699    Y=              6.3651    Z=              0.6420  Tot=             10.8553
 Quadrupole moment (field-independent basis, Debye-Ang):
   XX=           -161.0211   YY=           -214.9582   ZZ=           -250.6371
   XY=             -3.4830   XZ=             -7.3378   YZ=             -1.9665

 Normal termination of Gaussian 16 at Wed Jan 24 17:11:12 2018.
