 Gaussian 16, Revision A.03,
 Gaussian 16:  EM64L-G16RevA.03 25-Dec-2016

 ---------------------------------------
 #p wb97xd/cc-pvdz sp scf=(maxcycles=20)
 ---------------------------------------

 ------------------
 Base pair stacking
 ------------------
 Symbolic Z-matrix:
 Charge =  0 Multiplicity = 1

                         Standard orientation:
 ---------------------------------------------------------------------
 Center     Atomic      Atomic             Coordinates (Angstroms)
 Number     Number       Type             X           Y           Z
 ---------------------------------------------------------------------
      1          7           0        5.244573   -1.970503   -1.410895
      2          6           0        6.646635   -1.550481   -1.600179
      3          6           0        3.047724   -1.992544   -1.307705
      4          7           0        3.466285   -3.263041   -0.939798
      5          6           0        4.773061   -3.198917   -1.016691
      6          1           0        5.448486   -4.025704   -0.794972
      7          7           0        1.702945   -0.123032   -1.817060
      8          6           0        2.841440    0.532164   -2.066281
      9          1           0        2.722674    1.569454   -2.376439
     10          7           0        4.098716    0.100454   -1.990235
     11          6           0        4.132611   -1.184750   -1.600959
     12          6           0        1.770693   -1.414768   -1.427288
     13          7           0        0.635318   -2.070489   -1.178048
     14          1           0        0.637945   -3.027853   -0.887078
     15          1           0       -0.256126   -1.627386   -1.273624
     16          1           0        7.076177   -2.123110   -2.298572
     17          1           0        6.672571   -0.594787   -1.891893
     18          1           0        7.145157   -1.647942   -0.738804
     19          7           0        4.061142    2.880352    1.189708
     20          6           0        2.729902    2.543029    1.234953
     21          6           0        4.590297    4.235395    0.935613
     22          7           0       -0.613492    3.455242    1.008364
     23          1           0       -1.505902    3.010749    1.080923
     24          1           0       -0.609904    4.437409    0.818491
     25          7           0        1.689922    3.385993    1.056330
     26          6           0        0.527687    2.766044    1.158767
     27          7           0        0.392112    1.423371    1.416381
     28          1           0       -0.536339    1.034545    1.477637
     29          6           0        1.448194    0.537096    1.603624
     30          8           0        1.217145   -0.656911    1.831050
     31          6           0        2.703202    1.188520    1.496485
     32          7           0        3.991762    0.685605    1.613079
     33          6           0        4.761995    1.722549    1.424119
     34          1           0        5.852064    1.698441    1.445147
     35          1           0        5.160923    4.223774    0.115224
     36          1           0        3.829027    4.868502    0.801761
     37          1           0        5.136881    4.533598    1.717358
     38          1           0       -5.392265   -0.402443    1.021823
     39          1           0       -5.358613   -0.342189    2.782474
     40          1           0       -4.351447    0.760491    1.843808
     41          1           0       -3.142460   -4.540551    2.002130
     42          6           0       -2.925487   -3.473080    1.961448
     43          8           0       -0.571691   -3.765570    1.926478
     44          6           0       -1.563292   -3.036532    1.920472
     45          1           0       -0.451568   -1.320142    1.840488
     46          7           0       -1.400062   -1.666827    1.870472
     47          8           0       -2.145404    0.477509    1.811334
     48          6           0       -2.389141   -0.715472    1.856818
     49          1           0       -4.964157   -2.849130    1.979053
     50          6           0       -3.912001   -2.569064    1.949363
     51          6           0       -4.766386   -0.235598    1.885829
     52          7           0       -3.676061   -1.214769    1.898508
     53          1           0       -5.044466    3.867913   -2.924806
     54          1           0       -3.728812    3.936744   -1.962306
     55          1           0       -5.221554    4.061490   -1.314035
     56          1           0       -2.921811   -2.987943   -1.038785
     57          1           0       -4.556418   -2.557976   -1.269613
     58          7           0       -3.600375   -2.271113   -1.199537
     59          6           0       -3.247128   -0.989325   -1.315454
     60          6           0       -3.643955    1.334346   -1.639148
     61          7           0       -2.352481    1.690474   -1.540688
     62          1           0       -0.521678    0.821242   -1.235403
     63          6           0       -1.588260    0.621060   -1.328043
     64          7           0       -1.940162   -0.663541   -1.211641
     65          1           0       -6.827868    1.731450   -2.035648
     66          6           0       -5.823707    1.336749   -1.878100
     67          7           0       -5.541160    0.070215   -1.694414
     68          6           0       -4.162344    0.054783   -1.541582
     69          6           0       -4.675613    3.623114   -2.028142
     70          7           0       -4.722936    2.158069   -1.856635
 ---------------------------------------------------------------------

 SCF Done:  E(RwB97XD) =  -2048.74926122     A.U. after   15 cycles

 The electronic state is 1-A.
 Alpha  occ. eigenvalues --  -19.25638 -19.21946 -19.20508 -14.52541 -14.52309
 Alpha  occ. eigenvalues --  -14.48762 -14.48534 -14.48085 -14.47636 -14.46815
 Alpha  occ. eigenvalues --  -14.46501 -14.45589 -14.44483 -14.44459 -14.42086
 Alpha  occ. eigenvalues --  -14.41945 -14.40852 -14.40714 -14.40461 -14.39951
 Alpha  occ. eigenvalues --  -10.45295 -10.41147 -10.40158 -10.40058 -10.38141
 Alpha  occ. eigenvalues --  -10.38127 -10.37882 -10.37319 -10.35879 -10.35089
 Alpha  occ. eigenvalues --  -10.34802 -10.34291 -10.33970 -10.33440 -10.33304
 Alpha  occ. eigenvalues --  -10.32819 -10.32776 -10.32668 -10.31119 -10.30928
 Alpha  occ. eigenvalues --  -10.30390 -10.28044 -10.27969  -1.19239  -1.15292
 Alpha  occ. eigenvalues --   -1.13110  -1.12940  -1.10681  -1.10532  -1.09512
 Alpha  occ. eigenvalues --   -1.09168  -1.08457  -1.05028  -1.04627  -1.02304
 Alpha  occ. eigenvalues --   -1.01104  -1.00063  -0.99606  -0.98474  -0.97033
 Alpha  occ. eigenvalues --   -0.96556  -0.96348  -0.92318  -0.91043  -0.87731
 Alpha  occ. eigenvalues --   -0.85999  -0.84063  -0.83384  -0.83356  -0.82473
 Alpha  occ. eigenvalues --   -0.81770  -0.78816  -0.77178  -0.74978  -0.74555
 Alpha  occ. eigenvalues --   -0.73540  -0.73201  -0.72460  -0.70642  -0.70511
 Alpha  occ. eigenvalues --   -0.67284  -0.67000  -0.66409  -0.65858  -0.64446
 Alpha  occ. eigenvalues --   -0.64352  -0.63703  -0.62593  -0.62288  -0.61659
 Alpha  occ. eigenvalues --   -0.60697  -0.60332  -0.60195  -0.59474  -0.59386
 Alpha  occ. eigenvalues --   -0.59276  -0.58228  -0.56617  -0.56184  -0.55846
 Alpha  occ. eigenvalues --   -0.55723  -0.55421  -0.55094  -0.54436  -0.54129
 Alpha  occ. eigenvalues --   -0.53832  -0.53581  -0.53486  -0.53115  -0.52929
 Alpha  occ. eigenvalues --   -0.52855  -0.52226  -0.51266  -0.50231  -0.50117
 Alpha  occ. eigenvalues --   -0.50008  -0.49664  -0.49432  -0.49237  -0.48773
 Alpha  occ. eigenvalues --   -0.48473  -0.48322  -0.48156  -0.47628  -0.47244
 Alpha  occ. eigenvalues --   -0.46458  -0.45706  -0.45374  -0.44302  -0.43699
 Alpha  occ. eigenvalues --   -0.40858  -0.40681  -0.39264  -0.37756  -0.37702
 Alpha  occ. eigenvalues --   -0.37226  -0.37199  -0.36605  -0.35739  -0.34911
 Alpha  occ. eigenvalues --   -0.34531  -0.33828  -0.33169  -0.33033  -0.32889
 Alpha  occ. eigenvalues --   -0.32613  -0.32394  -0.32124  -0.31823  -0.30413
 Alpha  occ. eigenvalues --   -0.30145  -0.30003  -0.25460  -0.25270
 Alpha virt. eigenvalues --    0.02622   0.04247   0.06684   0.08440   0.08816
 Alpha virt. eigenvalues --    0.09291   0.09858   0.10372   0.11441   0.11587
 Alpha virt. eigenvalues --    0.12840   0.14443   0.14611   0.14940   0.15057

 Mulliken charges:
               1
     1  N   -0.312941
     2  C    0.182309
     3  C    0.050864
     4  N   -0.258674
     5  C    0.139406
     6  H    0.025465
     7  N   -0.299115
     8  C    0.135126
     9  H    0.009487
    10  N   -0.287675
    11  C    0.259514
    12  C    0.106035
    13  N   -0.060773
    14  H    0.113009
    15  H    0.081844
    16  H    0.022631
    17  H    0.031155
    18  H    0.027471
    19  N   -0.310559
    20  C    0.250937
    21  C    0.180656
    22  N   -0.113757
    23  H    0.113226
    24  H    0.115590
    25  N   -0.310684
    26  C    0.240137
    27  N   -0.147623
    28  H    0.120411
    29  C    0.194254
    30  O   -0.322488
    31  C   -0.016281
    32  N   -0.226203
    33  C    0.130970
    34  H    0.021363
    35  H    0.029023
    36  H    0.028774
    37  H    0.024192
    38  H    0.060569
    39  H    0.059586
    40  H    0.072876
    41  H    0.028522
    42  C   -0.121097
    43  O   -0.263960
    44  C    0.170369
    45  H    0.131742
    46  N   -0.121657
    47  O   -0.343000
    48  C    0.338441
    49  H    0.044292
    50  C    0.165188
    51  C    0.037506
    52  N   -0.277819
    53  H    0.034936
    54  H    0.040165
    55  H    0.028854
    56  H    0.120530
    57  H    0.114826
    58  N   -0.056220
    59  C    0.088988
    60  C    0.254496
    61  N   -0.275324
    62  H    0.038517
    63  C    0.170699
    64  N   -0.310314
    65  H    0.038674
    66  C    0.138570
    67  N   -0.267214
    68  C    0.024501
    69  C    0.179740
    70  N   -0.313057
 Sum of Mulliken charges =  -0.00000

 Dipole moment (field-independent basis, Debye):
    X=             -8.6778    Y=              6.1923    Z=             -1.2618  Tot=             10.7350
 Quadrupole moment (field-independent basis, Debye-Ang):
   XX=           -160.6868   YY=           -215.1956   ZZ=           -252.5836
   XY=              3.5644   XZ=             -7.8311   YZ=              5.0883

 Normal termination of Gaussian 16 at Thu Jan 25 02:52:10 2018.
