 Gaussian 16, Revision A.03,
 Gaussian 16:  EM64L-G16RevA.03 25-Dec-2016

 ---------------------------------------
 #p wb97xd/cc-pvdz sp scf=(maxcycles=20)
 ---------------------------------------

 ------------------
 Base pair stacking
 ------------------
 Symbolic Z-matrix:
 Charge =  0 Multiplicity = 1

                         Standard orientation:
 ---------------------------------------------------------------------
 Center     Atomic      Atomic             Coordinates (Angstroms)
 Number     Number       Type             X           Y           Z
 ---------------------------------------------------------------------
      1          7           0       -6.459028   -1.646164    0.559185
      2          6           0       -7.856567   -1.172063    0.570069
      3          6           0       -4.270342   -1.756189    0.745906
      4          7           0       -4.685143   -3.003416    0.301957
      5          6           0       -5.987152   -2.887205    0.207233
      6          1           0       -6.658630   -3.682685   -0.117229
      7          7           0       -2.933807    0.049836    1.463461
      8          6           0       -4.069174    0.747354    1.572934
      9          1           0       -3.952647    1.774573    1.915719
     10          7           0       -5.321008    0.368261    1.323719
     11          6           0       -5.352571   -0.909018    0.908997
     12          6           0       -2.999082   -1.232575    1.043654
     13          7           0       -1.866812   -1.930477    0.933728
     14          1           0       -1.867785   -2.882843    0.626785
     15          1           0       -0.979465   -1.525379    1.154318
     16          1           0       -8.396530   -1.736302    1.194770
     17          1           0       -7.884060   -0.220207    0.873952
     18          1           0       -8.240042   -1.237285   -0.351174
     19          7           0       -2.695236    2.958779   -1.729995
     20          6           0       -1.387671    2.563135   -1.582396
     21          6           0       -3.183351    4.348716   -1.627405
     22          7           0        1.941826    3.345789   -0.979346
     23          1           0        2.812707    2.860105   -0.909241
     24          1           0        1.963713    4.337522   -0.850145
     25          7           0       -0.337528    3.371163   -1.320959
     26          6           0        0.795609    2.697188   -1.235081
     27          7           0        0.894886    1.336023   -1.392856
     28          1           0        1.802846    0.905046   -1.310200
     29          6           0       -0.172300    0.484937   -1.662341
     30          8           0        0.025236   -0.730077   -1.786681
     31          6           0       -1.396359    1.194532   -1.757445
     32          7           0       -2.683473    0.740099   -2.009858
     33          6           0       -3.418203    1.818860   -1.984072
     34          1           0       -4.496664    1.839628   -2.144595
     35          1           0       -3.853088    4.414871   -0.888568
     36          1           0       -2.414230    4.956394   -1.433910
     37          1           0       -3.610871    4.618108   -2.489653
     38          1           0        6.483417   -0.703478   -0.145025
     39          1           0        6.675966   -0.756944   -1.895657
     40          1           0        5.614936    0.446340   -1.162401
     41          1           0        4.170202   -4.797767   -1.161125
     42          6           0        4.003881   -3.721684   -1.212286
     43          8           0        1.652867   -3.911307   -1.465086
     44          6           0        2.671183   -3.226095   -1.374007
     45          1           0        1.646165   -1.462597   -1.540618
     46          7           0        2.572151   -1.850355   -1.426917
     47          8           0        3.411080    0.259759   -1.399101
     48          6           0        3.598208   -0.942888   -1.341783
     49          1           0        6.057207   -3.187111   -1.002766
     50          6           0        5.025205   -2.861396   -1.126227
     51          6           0        5.981140   -0.567051   -1.091169
     52          7           0        4.853254   -1.497899   -1.186786
     53          1           0        3.756264    3.747195    3.526175
     54          1           0        2.583259    3.882769    2.400218
     55          1           0        4.152369    3.955555    1.956753
     56          1           0        1.639416   -2.989954    1.246862
     57          1           0        3.244422   -2.630104    1.699164
     58          7           0        2.317843   -2.303625    1.509213
     59          6           0        2.002014   -1.010248    1.601950
     60          6           0        2.441729    1.290674    2.019256
     61          7           0        1.189344    1.700401    1.758312
     62          1           0       -0.617050    0.910706    1.198003
     63          6           0        0.419371    0.666010    1.426528
     64          7           0        0.733833   -0.630131    1.333085
     65          1           0        5.558032    1.552349    2.839228
     66          6           0        4.569112    1.201060    2.543281
     67          7           0        4.264787   -0.050280    2.299908
     68          6           0        2.918782   -0.007463    1.966503
     69          6           0        3.500218    3.529973    2.584243
     70          7           0        3.513337    2.066725    2.392618
 ---------------------------------------------------------------------

 SCF Done:  E(RwB97XD) =  -2048.74502956     A.U. after   15 cycles

 The electronic state is 1-A.
 Alpha  occ. eigenvalues --  -19.26077 -19.22517 -19.20756 -14.52702 -14.51820
 Alpha  occ. eigenvalues --  -14.48836 -14.48539 -14.48025 -14.47218 -14.47056
 Alpha  occ. eigenvalues --  -14.47016 -14.44876 -14.43379 -14.43369 -14.42190
 Alpha  occ. eigenvalues --  -14.41898 -14.41181 -14.40853 -14.40652 -14.39899
 Alpha  occ. eigenvalues --  -10.45707 -10.41399 -10.40562 -10.39048 -10.38349
 Alpha  occ. eigenvalues --  -10.38199 -10.37404 -10.36395 -10.35253 -10.35129
 Alpha  occ. eigenvalues --  -10.34874 -10.34456 -10.33851 -10.33511 -10.33298
 Alpha  occ. eigenvalues --  -10.33105 -10.32843 -10.31901 -10.31476 -10.30949
 Alpha  occ. eigenvalues --  -10.30802 -10.28259 -10.28211  -1.19657  -1.14505
 Alpha  occ. eigenvalues --   -1.13495  -1.13352  -1.11106  -1.10668  -1.09587
 Alpha  occ. eigenvalues --   -1.08733  -1.08407  -1.04706  -1.03983  -1.02754
 Alpha  occ. eigenvalues --   -1.00320  -1.00148  -0.99999  -0.98667  -0.96733
 Alpha  occ. eigenvalues --   -0.96647  -0.95944  -0.92359  -0.91390  -0.86920
 Alpha  occ. eigenvalues --   -0.85330  -0.84204  -0.83780  -0.83709  -0.82577
 Alpha  occ. eigenvalues --   -0.82094  -0.79182  -0.76280  -0.74742  -0.74000
 Alpha  occ. eigenvalues --   -0.73853  -0.73618  -0.72646  -0.70801  -0.69678
 Alpha  occ. eigenvalues --   -0.67560  -0.66805  -0.66051  -0.66027  -0.64680
 Alpha  occ. eigenvalues --   -0.63926  -0.63520  -0.62834  -0.62441  -0.61925
 Alpha  occ. eigenvalues --   -0.60072  -0.59969  -0.59804  -0.59757  -0.59146
 Alpha  occ. eigenvalues --   -0.58822  -0.58606  -0.56724  -0.56311  -0.56193
 Alpha  occ. eigenvalues --   -0.56173  -0.55172  -0.54806  -0.54639  -0.54504
 Alpha  occ. eigenvalues --   -0.53816  -0.53663  -0.53098  -0.53013  -0.52808
 Alpha  occ. eigenvalues --   -0.52573  -0.52103  -0.51555  -0.50499  -0.50325
 Alpha  occ. eigenvalues --   -0.49972  -0.49682  -0.49248  -0.49093  -0.48863
 Alpha  occ. eigenvalues --   -0.48537  -0.48417  -0.48253  -0.47849  -0.47559
 Alpha  occ. eigenvalues --   -0.46716  -0.45672  -0.44797  -0.44414  -0.43767
 Alpha  occ. eigenvalues --   -0.40882  -0.40002  -0.39635  -0.37460  -0.37368
 Alpha  occ. eigenvalues --   -0.37219  -0.36924  -0.36757  -0.35891  -0.34330
 Alpha  occ. eigenvalues --   -0.34025  -0.33658  -0.33472  -0.33205  -0.33148
 Alpha  occ. eigenvalues --   -0.32760  -0.32509  -0.32323  -0.31905  -0.30645
 Alpha  occ. eigenvalues --   -0.30139  -0.29196  -0.25674  -0.25386
 Alpha virt. eigenvalues --    0.02586   0.04802   0.07414   0.08224   0.08654
 Alpha virt. eigenvalues --    0.09084   0.09526   0.11163   0.11438   0.11743
 Alpha virt. eigenvalues --    0.12551   0.14233   0.14677   0.14761   0.14964

 Mulliken charges:
               1
     1  N   -0.311603
     2  C    0.181014
     3  C    0.039731
     4  N   -0.258817
     5  C    0.133404
     6  H    0.025579
     7  N   -0.294034
     8  C    0.135394
     9  H    0.008234
    10  N   -0.292476
    11  C    0.243351
    12  C    0.122875
    13  N   -0.052972
    14  H    0.111090
    15  H    0.089970
    16  H    0.024900
    17  H    0.033426
    18  H    0.025405
    19  N   -0.312461
    20  C    0.247723
    21  C    0.181102
    22  N   -0.117046
    23  H    0.114559
    24  H    0.115695
    25  N   -0.304488
    26  C    0.236358
    27  N   -0.133957
    28  H    0.113398
    29  C    0.163492
    30  O   -0.318997
    31  C    0.005386
    32  N   -0.224970
    33  C    0.130639
    34  H    0.028118
    35  H    0.029831
    36  H    0.028188
    37  H    0.024690
    38  H    0.064443
    39  H    0.058312
    40  H    0.073106
    41  H    0.031430
    42  C   -0.111428
    43  O   -0.267573
    44  C    0.149252
    45  H    0.135350
    46  N   -0.118364
    47  O   -0.347542
    48  C    0.351851
    49  H    0.049763
    50  C    0.169712
    51  C    0.042257
    52  N   -0.287945
    53  H    0.033683
    54  H    0.042951
    55  H    0.021147
    56  H    0.129390
    57  H    0.113061
    58  N   -0.061939
    59  C    0.083745
    60  C    0.232971
    61  N   -0.262468
    62  H    0.043220
    63  C    0.165738
    64  N   -0.300693
    65  H    0.032311
    66  C    0.135127
    67  N   -0.268219
    68  C    0.031703
    69  C    0.176967
    70  N   -0.313049
 Sum of Mulliken charges =  -0.00000

 Dipole moment (field-independent basis, Debye):
    X=              8.6999    Y=              5.6893    Z=              1.6594  Tot=             10.5266
 Quadrupole moment (field-independent basis, Debye-Ang):
   XX=           -152.4973   YY=           -216.4116   ZZ=           -251.4475
   XY=             -0.7615   XZ=              6.9508   YZ=             -5.7604

 Normal termination of Gaussian 16 at Wed Jan 24 12:23:25 2018.
