 Gaussian 16, Revision A.03,
 Gaussian 16:  EM64L-G16RevA.03 25-Dec-2016

 ---------------------------------------
 #p wb97xd/cc-pvdz sp scf=(maxcycles=20)
 ---------------------------------------

 ------------------
 Base pair stacking
 ------------------
 Symbolic Z-matrix:
 Charge =  0 Multiplicity = 1

                         Standard orientation:
 ---------------------------------------------------------------------
 Center     Atomic      Atomic             Coordinates (Angstroms)
 Number     Number       Type             X           Y           Z
 ---------------------------------------------------------------------
      1          7           0       -6.102678   -1.656188    0.840304
      2          6           0       -7.491730   -1.178630    0.697137
      3          6           0       -3.918351   -1.739937    1.083196
      4          7           0       -4.350271   -3.055684    0.999720
      5          6           0       -5.648965   -2.952575    0.856736
      6          1           0       -6.330848   -3.797661    0.757731
      7          7           0       -2.557967    0.176010    1.286825
      8          6           0       -3.682025    0.891983    1.179729
      9          1           0       -3.551101    1.972371    1.223167
     10          7           0       -4.937623    0.475706    1.027762
     11          6           0       -4.987209   -0.866033    0.986495
     12          6           0       -2.641304   -1.171617    1.241612
     13          7           0       -1.520361   -1.888043    1.348342
     14          1           0       -1.534805   -2.888150    1.320115
     15          1           0       -0.628419   -1.449756    1.460088
     16          1           0       -8.048053   -1.537857    1.446561
     17          1           0       -7.505716   -0.179486    0.722150
     18          1           0       -7.866581   -1.493832   -0.174716
     19          7           0       -3.158954    2.741185   -1.536980
     20          6           0       -1.843144    2.375757   -1.384747
     21          6           0       -3.701446    4.094776   -1.304177
     22          7           0        1.433374    3.199214   -0.579731
     23          1           0        2.318927    2.738149   -0.530134
     24          1           0        1.414168    4.171310   -0.344402
     25          7           0       -0.832898    3.185339   -1.000001
     26          6           0        0.321052    2.544226   -0.945266
     27          7           0        0.475944    1.212222   -1.244074
     28          1           0        1.396077    0.805378   -1.174794
     29          6           0       -0.549473    0.360158   -1.642047
     30          8           0       -0.302976   -0.826972   -1.888400
     31          6           0       -1.795247    1.034625   -1.705470
     32          7           0       -3.055621    0.567483   -2.052088
     33          6           0       -3.830351    1.611977   -1.937941
     34          1           0       -4.902982    1.613982   -2.134743
     35          1           0       -4.397095    4.058161   -0.587561
     36          1           0       -2.962203    4.703261   -1.018682
     37          1           0       -4.110121    4.441509   -2.147724
     38          1           0        6.092339   -0.762694   -0.017673
     39          1           0        6.344153   -0.619861   -1.755727
     40          1           0        5.215656    0.460867   -0.937280
     41          1           0        3.967404   -4.797834   -1.550276
     42          6           0        3.763004   -3.728689   -1.492035
     43          8           0        1.430234   -3.968211   -1.849688
     44          6           0        2.418861   -3.263270   -1.648525
     45          1           0        1.335081   -1.527313   -1.662892
     46          7           0        2.270592   -1.893973   -1.557484
     47          8           0        3.029222    0.227558   -1.273229
     48          6           0        3.258886   -0.967311   -1.338146
     49          1           0        5.787069   -3.151707   -1.151367
     50          6           0        4.748300   -2.849171   -1.276999
     51          6           0        5.616703   -0.541483   -0.961545
     52          7           0        4.527918   -1.493638   -1.197538
     53          1           0        4.173843    4.209684    2.333004
     54          1           0        3.015307    4.040883    1.196603
     55          1           0        4.590033    3.964803    0.774088
     56          1           0        1.963259   -2.866093    1.997983
     57          1           0        3.569481   -2.416346    2.355599
     58          7           0        2.650819   -2.143254    2.068004
     59          6           0        2.356768   -0.871379    1.790447
     60          6           0        2.832352    1.448017    1.553931
     61          7           0        1.590170    1.785657    1.170008
     62          1           0       -0.223804    0.895858    0.825953
     63          6           0        0.805705    0.710548    1.129331
     64          7           0        1.098339   -0.564149    1.406960
     65          1           0        5.943963    1.885477    2.314649
     66          6           0        4.952207    1.479148    2.113989
     67          7           0        4.628558    0.214076    2.225871
     68          6           0        3.287092    0.180528    1.873624
     69          6           0        3.923948    3.741014    1.485715
     70          7           0        3.913422    2.282595    1.711319
 ---------------------------------------------------------------------

 SCF Done:  E(RwB97XD) =  -2048.69325742     A.U. after   15 cycles

 The electronic state is 1-A.
 Alpha  occ. eigenvalues --  -19.25793 -19.21836 -19.20529 -14.52522 -14.52316
 Alpha  occ. eigenvalues --  -14.48707 -14.48564 -14.48056 -14.47739 -14.46597
 Alpha  occ. eigenvalues --  -14.45641 -14.45396 -14.43887 -14.42882 -14.42433
 Alpha  occ. eigenvalues --  -14.41869 -14.41386 -14.40912 -14.40549 -14.40211
 Alpha  occ. eigenvalues --  -10.45383 -10.40589 -10.39966 -10.39602 -10.38011
 Alpha  occ. eigenvalues --  -10.37873 -10.37707 -10.36898 -10.35480 -10.35313
 Alpha  occ. eigenvalues --  -10.34830 -10.34579 -10.34109 -10.34057 -10.33314
 Alpha  occ. eigenvalues --  -10.33090 -10.33074 -10.32234 -10.31042 -10.30933
 Alpha  occ. eigenvalues --  -10.30767 -10.28506 -10.27874  -1.19377  -1.15154
 Alpha  occ. eigenvalues --   -1.13178  -1.12875  -1.11293  -1.10442  -1.09238
 Alpha  occ. eigenvalues --   -1.09108  -1.08347  -1.05019  -1.04603  -1.02351
 Alpha  occ. eigenvalues --   -1.01038  -1.00507  -0.99589  -0.98439  -0.96980
 Alpha  occ. eigenvalues --   -0.96533  -0.96334  -0.92695  -0.90935  -0.87599
 Alpha  occ. eigenvalues --   -0.86168  -0.83916  -0.83898  -0.83383  -0.82344
 Alpha  occ. eigenvalues --   -0.82304  -0.78765  -0.76918  -0.74931  -0.74442
 Alpha  occ. eigenvalues --   -0.73437  -0.73214  -0.72938  -0.71085  -0.70419
 Alpha  occ. eigenvalues --   -0.67229  -0.66792  -0.66411  -0.66346  -0.64335
 Alpha  occ. eigenvalues --   -0.64308  -0.63610  -0.62824  -0.62772  -0.61573
 Alpha  occ. eigenvalues --   -0.60732  -0.60428  -0.60291  -0.59490  -0.59383
 Alpha  occ. eigenvalues --   -0.59332  -0.58275  -0.57030  -0.56456  -0.56288
 Alpha  occ. eigenvalues --   -0.55965  -0.55665  -0.55441  -0.55109  -0.54313
 Alpha  occ. eigenvalues --   -0.54071  -0.53483  -0.53151  -0.52978  -0.52771
 Alpha  occ. eigenvalues --   -0.52447  -0.52160  -0.51755  -0.50785  -0.50209
 Alpha  occ. eigenvalues --   -0.50008  -0.49493  -0.49305  -0.48941  -0.48818
 Alpha  occ. eigenvalues --   -0.48626  -0.48133  -0.48029  -0.47678  -0.47244
 Alpha  occ. eigenvalues --   -0.46859  -0.45970  -0.44956  -0.44050  -0.43784
 Alpha  occ. eigenvalues --   -0.41200  -0.41057  -0.39394  -0.38013  -0.37727
 Alpha  occ. eigenvalues --   -0.37204  -0.37104  -0.36684  -0.35908  -0.34772
 Alpha  occ. eigenvalues --   -0.34228  -0.33641  -0.33465  -0.33016  -0.32507
 Alpha  occ. eigenvalues --   -0.32308  -0.31841  -0.31680  -0.30929  -0.30646
 Alpha  occ. eigenvalues --   -0.30327  -0.29314  -0.25934  -0.24535
 Alpha virt. eigenvalues --    0.03186   0.04248   0.07211   0.07962   0.08473
 Alpha virt. eigenvalues --    0.09460   0.09816   0.10692   0.11166   0.11751
 Alpha virt. eigenvalues --    0.12512   0.13950   0.14314   0.14673   0.14952

 Mulliken charges:
               1
     1  N   -0.313417
     2  C    0.181390
     3  C    0.043373
     4  N   -0.261273
     5  C    0.135431
     6  H    0.026506
     7  N   -0.287167
     8  C    0.143729
     9  H    0.007212
    10  N   -0.291434
    11  C    0.252595
    12  C    0.119055
    13  N   -0.059216
    14  H    0.107895
    15  H    0.084639
    16  H    0.024765
    17  H    0.031893
    18  H    0.027363
    19  N   -0.303843
    20  C    0.234968
    21  C    0.180003
    22  N   -0.056497
    23  H    0.108280
    24  H    0.113106
    25  N   -0.296361
    26  C    0.197141
    27  N   -0.135915
    28  H    0.125221
    29  C    0.157281
    30  O   -0.319878
    31  C    0.016716
    32  N   -0.222830
    33  C    0.125428
    34  H    0.022357
    35  H    0.029764
    36  H    0.027307
    37  H    0.024250
    38  H    0.062600
    39  H    0.057551
    40  H    0.070767
    41  H    0.030707
    42  C   -0.112049
    43  O   -0.263303
    44  C    0.174151
    45  H    0.132642
    46  N   -0.127729
    47  O   -0.344049
    48  C    0.347887
    49  H    0.047090
    50  C    0.167275
    51  C    0.040613
    52  N   -0.289144
    53  H    0.040190
    54  H    0.017516
    55  H    0.033011
    56  H    0.121964
    57  H    0.116097
    58  N   -0.065908
    59  C    0.082720
    60  C    0.254653
    61  N   -0.303731
    62  H    0.035896
    63  C    0.177016
    64  N   -0.300064
    65  H    0.034665
    66  C    0.132225
    67  N   -0.263020
    68  C    0.032198
    69  C    0.176638
    70  N   -0.316910
 Sum of Mulliken charges =  -0.00000

 Dipole moment (field-independent basis, Debye):
    X=              8.0967    Y=              5.6523    Z=              3.0980  Tot=             10.3490
 Quadrupole moment (field-independent basis, Debye-Ang):
   XX=           -154.4867   YY=           -218.1465   ZZ=           -255.7991
   XY=             -0.6916   XZ=              2.3186   YZ=            -10.9016

 Normal termination of Gaussian 16 at Wed Jan 24 15:50:44 2018.
