 Gaussian 16, Revision A.03,
 Gaussian 16:  EM64L-G16RevA.03 25-Dec-2016

 ---------------------------------------
 #p wb97xd/cc-pvdz sp scf=(maxcycles=20)
 ---------------------------------------

 ------------------
 Base pair stacking
 ------------------
 Symbolic Z-matrix:
 Charge =  0 Multiplicity = 1

                         Standard orientation:
 ---------------------------------------------------------------------
 Center     Atomic      Atomic             Coordinates (Angstroms)
 Number     Number       Type             X           Y           Z
 ---------------------------------------------------------------------
      1          7           0        4.580828   -2.333606   -1.697067
      2          6           0        5.956909   -2.032178   -2.137007
      3          6           0        2.413764   -2.228167   -1.336497
      4          7           0        2.848520   -3.406052   -0.746339
      5          6           0        4.136697   -3.422437   -0.987186
      6          1           0        4.817268   -4.211975   -0.667196
      7          7           0        1.054915   -0.453297   -2.089050
      8          6           0        2.166928    0.076788   -2.608672
      9          1           0        2.031957    1.025723   -3.125938
     10          7           0        3.414782   -0.387139   -2.585363
     11          6           0        3.470273   -1.556413   -1.926458
     12          6           0        1.143923   -1.630439   -1.432169
     13          7           0        0.034997   -2.161182   -0.912775
     14          1           0        0.054012   -3.030892   -0.418356
     15          1           0       -0.852120   -1.707801   -1.000112
     16          1           0        6.284635   -2.763277   -2.735572
     17          1           0        5.966114   -1.165610   -2.635106
     18          1           0        6.556339   -1.962734   -1.339603
     19          7           0        4.700477    2.908097    0.735540
     20          6           0        3.372487    2.622450    0.942665
     21          6           0        5.248999    4.245482    0.433530
     22          7           0        0.067058    3.668615    1.146304
     23          1           0       -0.826869    3.258248    1.324440
     24          1           0        0.087252    4.652966    0.969192
     25          7           0        2.353782    3.508403    0.905387
     26          6           0        1.188886    2.932801    1.144776
     27          7           0        1.031488    1.592302    1.401269
     28          1           0        0.102701    1.239146    1.573361
     29          6           0        2.065445    0.662295    1.444567
     30          8           0        1.815730   -0.525418    1.684812
     31          6           0        3.323030    1.265793    1.189310
     32          7           0        4.594392    0.710890    1.138063
     33          6           0        5.376997    1.719926    0.866769
     34          1           0        6.459307    1.652794    0.751194
     35          1           0        5.712263    4.225427   -0.451789
     36          1           0        4.503582    4.910089    0.403352
     37          1           0        5.900275    4.508761    1.144396
     38          1           0       -4.826981    0.001376    1.710463
     39          1           0       -4.572295    0.030444    3.453721
     40          1           0       -3.645302    1.108562    2.409843
     41          1           0       -2.644217   -4.237685    2.352714
     42          6           0       -2.390426   -3.178992    2.297985
     43          8           0       -0.073221   -3.562809    1.965833
     44          6           0       -1.027163   -2.795500    2.092415
     45          1           0        0.135381   -1.122864    1.894679
     46          7           0       -0.815429   -1.432587    2.038750
     47          8           0       -1.473865    0.739991    2.098730
     48          6           0       -1.758720   -0.443124    2.160075
     49          1           0       -4.383811   -2.476060    2.577495
     50          6           0       -3.332925   -2.236955    2.419976
     51          6           0       -4.092249    0.128918    2.491464
     52          7           0       -3.049847   -0.892280    2.356198
     53          1           0       -5.694281    3.515355   -3.263974
     54          1           0       -4.268249    3.730149   -2.500824
     55          1           0       -5.666148    4.064253   -1.727312
     56          1           0       -3.495484   -2.855974   -0.159617
     57          1           0       -5.136908   -2.409629   -0.288429
     58          7           0       -4.173863   -2.160146   -0.395754
     59          6           0       -3.811449   -0.952893   -0.834377
     60          6           0       -4.197490    1.260138   -1.618684
     61          7           0       -2.896736    1.567394   -1.753013
     62          1           0       -1.060458    0.699836   -1.477206
     63          6           0       -2.134191    0.535167   -1.398130
     64          7           0       -2.495271   -0.674790   -0.958577
     65          1           0       -7.397151    1.711894   -1.720160
     66          6           0       -6.389538    1.313879   -1.596725
     67          7           0       -6.112485    0.106075   -1.169923
     68          6           0       -4.725974    0.058894   -1.179094
     69          6           0       -5.222149    3.455054   -2.384510
     70          7           0       -5.277945    2.066794   -1.886906
 ---------------------------------------------------------------------

 SCF Done:  E(RwB97XD) =  -2048.74360104     A.U. after   15 cycles

 The electronic state is 1-A.
 Alpha  occ. eigenvalues --  -19.25771 -19.22085 -19.20752 -14.52451 -14.52364
 Alpha  occ. eigenvalues --  -14.49101 -14.48619 -14.47710 -14.47655 -14.47077
 Alpha  occ. eigenvalues --  -14.46900 -14.45384 -14.44654 -14.44424 -14.42254
 Alpha  occ. eigenvalues --  -14.41902 -14.41244 -14.40240 -14.40203 -14.39810
 Alpha  occ. eigenvalues --  -10.45426 -10.41476 -10.40209 -10.40201 -10.38406
 Alpha  occ. eigenvalues --  -10.38205 -10.37957 -10.37242 -10.35894 -10.35019
 Alpha  occ. eigenvalues --  -10.34889 -10.34630 -10.33721 -10.33666 -10.32994
 Alpha  occ. eigenvalues --  -10.32789 -10.32455 -10.32447 -10.31250 -10.31208
 Alpha  occ. eigenvalues --  -10.29936 -10.28386 -10.27660  -1.19338  -1.15156
 Alpha  occ. eigenvalues --   -1.13404  -1.13112  -1.10855  -1.10282  -1.09661
 Alpha  occ. eigenvalues --   -1.09250  -1.08768  -1.05072  -1.04439  -1.02412
 Alpha  occ. eigenvalues --   -1.00965  -0.99971  -0.99863  -0.98779  -0.97076
 Alpha  occ. eigenvalues --   -0.96889  -0.95950  -0.92137  -0.91281  -0.87649
 Alpha  occ. eigenvalues --   -0.85831  -0.84404  -0.83548  -0.83001  -0.82780
 Alpha  occ. eigenvalues --   -0.81392  -0.78979  -0.77159  -0.74941  -0.74882
 Alpha  occ. eigenvalues --   -0.73862  -0.73358  -0.72186  -0.70569  -0.70280
 Alpha  occ. eigenvalues --   -0.67623  -0.66998  -0.66585  -0.65592  -0.64637
 Alpha  occ. eigenvalues --   -0.64353  -0.63935  -0.62848  -0.62028  -0.62001
 Alpha  occ. eigenvalues --   -0.60721  -0.60280  -0.59958  -0.59639  -0.59310
 Alpha  occ. eigenvalues --   -0.59189  -0.58592  -0.56889  -0.56037  -0.55917
 Alpha  occ. eigenvalues --   -0.55288  -0.55250  -0.54968  -0.54576  -0.54326
 Alpha  occ. eigenvalues --   -0.53834  -0.53729  -0.53614  -0.53225  -0.53028
 Alpha  occ. eigenvalues --   -0.52817  -0.52405  -0.50904  -0.50399  -0.50014
 Alpha  occ. eigenvalues --   -0.49828  -0.49595  -0.49429  -0.49282  -0.48993
 Alpha  occ. eigenvalues --   -0.48562  -0.48279  -0.48155  -0.47998  -0.47436
 Alpha  occ. eigenvalues --   -0.46163  -0.45765  -0.45467  -0.44264  -0.43734
 Alpha  occ. eigenvalues --   -0.40706  -0.40495  -0.39405  -0.37789  -0.37642
 Alpha  occ. eigenvalues --   -0.37550  -0.37514  -0.36287  -0.35825  -0.34939
 Alpha  occ. eigenvalues --   -0.34483  -0.34224  -0.33304  -0.32904  -0.32768
 Alpha  occ. eigenvalues --   -0.32700  -0.32526  -0.32250  -0.32088  -0.30189
 Alpha  occ. eigenvalues --   -0.30088  -0.29750  -0.25791  -0.25084
 Alpha virt. eigenvalues --    0.02461   0.04354   0.06800   0.08417   0.08807
 Alpha virt. eigenvalues --    0.09045   0.09564   0.10550   0.11201   0.11697
 Alpha virt. eigenvalues --    0.13623   0.14289   0.14465   0.15201   0.15310

 Mulliken charges:
               1
     1  N   -0.312385
     2  C    0.183048
     3  C    0.053452
     4  N   -0.251858
     5  C    0.142817
     6  H    0.025162
     7  N   -0.301702
     8  C    0.132650
     9  H    0.008665
    10  N   -0.287015
    11  C    0.257829
    12  C    0.096479
    13  N   -0.070371
    14  H    0.114528
    15  H    0.083546
    16  H    0.020678
    17  H    0.030979
    18  H    0.028799
    19  N   -0.311323
    20  C    0.252116
    21  C    0.180782
    22  N   -0.123762
    23  H    0.117754
    24  H    0.118475
    25  N   -0.312212
    26  C    0.250106
    27  N   -0.151017
    28  H    0.120666
    29  C    0.198724
    30  O   -0.320084
    31  C   -0.014246
    32  N   -0.229847
    33  C    0.127236
    34  H    0.023327
    35  H    0.028306
    36  H    0.029869
    37  H    0.025296
    38  H    0.061345
    39  H    0.059747
    40  H    0.075182
    41  H    0.029112
    42  C   -0.126971
    43  O   -0.260891
    44  C    0.167054
    45  H    0.133930
    46  N   -0.122779
    47  O   -0.350295
    48  C    0.352967
    49  H    0.042251
    50  C    0.165275
    51  C    0.037877
    52  N   -0.277752
    53  H    0.033899
    54  H    0.042558
    55  H    0.029073
    56  H    0.115434
    57  H    0.116091
    58  N   -0.061896
    59  C    0.093317
    60  C    0.252190
    61  N   -0.272694
    62  H    0.036910
    63  C    0.178240
    64  N   -0.318832
    65  H    0.038760
    66  C    0.140416
    67  N   -0.265877
    68  C    0.023419
    69  C    0.180104
    70  N   -0.312630
 Sum of Mulliken charges =  -0.00000

 Dipole moment (field-independent basis, Debye):
    X=             -8.4696    Y=              6.8705    Z=              0.2656  Tot=             10.9091
 Quadrupole moment (field-independent basis, Debye-Ang):
   XX=           -166.5265   YY=           -214.7399   ZZ=           -247.4747
   XY=              4.0138   XZ=            -14.1823   YZ=              0.0611

 Normal termination of Gaussian 16 at Wed Jan 24 23:22:40 2018.
