 Gaussian 16, Revision A.03,
 Gaussian 16:  EM64L-G16RevA.03 25-Dec-2016

 ---------------------------------------
 #p wb97xd/cc-pvdz sp scf=(maxcycles=20)
 ---------------------------------------

 ------------------
 Base pair stacking
 ------------------
 Symbolic Z-matrix:
 Charge =  0 Multiplicity = 1

                         Standard orientation:
 ---------------------------------------------------------------------
 Center     Atomic      Atomic             Coordinates (Angstroms)
 Number     Number       Type             X           Y           Z
 ---------------------------------------------------------------------
      1          7           0        5.804903   -1.691437   -1.039555
      2          6           0        7.198363   -1.225144   -0.902213
      3          6           0        3.615641   -1.757421   -1.239759
      4          7           0        4.044546   -3.076772   -1.231621
      5          6           0        5.346331   -2.984216   -1.111329
      6          1           0        6.027131   -3.834913   -1.069393
      7          7           0        2.258095    0.169734   -1.317986
      8          6           0        3.386717    0.876611   -1.199073
      9          1           0        3.258748    1.958139   -1.185450
     10          7           0        4.643751    0.450092   -1.094956
     11          6           0        4.689411   -0.892144   -1.122124
     12          6           0        2.337573   -1.178666   -1.342239
     13          7           0        1.212075   -1.886025   -1.460874
     14          1           0        1.223547   -2.886313   -1.483178
     15          1           0        0.319536   -1.440455   -1.531479
     16          1           0        7.737437   -1.547657   -1.680392
     17          1           0        7.215378   -0.226038   -0.877360
     18          1           0        7.590440   -1.584677   -0.055450
     19          7           0        3.493530    2.704370    1.406185
     20          6           0        2.171963    2.347171    1.288166
     21          6           0        4.043674    4.045696    1.125328
     22          7           0       -1.111324    3.178377    0.519449
     23          1           0       -2.001688    2.724427    0.498955
     24          1           0       -1.087793    4.143221    0.256341
     25          7           0        1.162057    3.155048    0.898929
     26          6           0        0.001656    2.523515    0.883257
     27          7           0       -0.159557    1.201979    1.222460
     28          1           0       -1.084380    0.802015    1.181382
     29          6           0        0.865364    0.351874    1.625847
     30          8           0        0.612884   -0.825472    1.910183
     31          6           0        2.118036    1.016129    1.647609
     32          7           0        3.380344    0.547111    1.984503
     33          6           0        4.162099    1.580651    1.826809
     34          1           0        5.238139    1.578127    2.004063
     35          1           0        4.725715    3.982359    0.397576
     36          1           0        3.304752    4.652818    0.836092
     37          1           0        4.470799    4.412221    1.951172
     38          1           0       -5.814813   -0.753848    0.154234
     39          1           0       -6.033455   -0.559722    1.891803
     40          1           0       -4.910584    0.486852    1.022781
     41          1           0       -3.698078   -4.763969    1.762001
     42          6           0       -3.485295   -3.698869    1.669780
     43          8           0       -1.148577   -3.950121    1.991888
     44          6           0       -2.134427   -3.241872    1.788707
     45          1           0       -1.035188   -1.516457    1.734257
     46          7           0       -1.975687   -1.877133    1.656201
     47          8           0       -2.720517    0.242570    1.325653
     48          6           0       -2.959569   -0.947780    1.428572
     49          1           0       -5.510051   -3.112712    1.349516
     50          6           0       -4.466513   -2.816533    1.447726
     51          6           0       -5.320009   -0.510599    1.082709
     52          7           0       -4.235582   -1.465912    1.325893
     53          1           0       -4.479906    4.267675   -2.016890
     54          1           0       -3.298217    4.039111   -0.915310
     55          1           0       -4.863921    3.945824   -0.463707
     56          1           0       -2.287970   -2.821498   -2.084434
     57          1           0       -3.899774   -2.350337   -2.384749
     58          7           0       -2.974277   -2.094337   -2.103448
     59          6           0       -2.669887   -0.838745   -1.768755
     60          6           0       -3.132095    1.467017   -1.406089
     61          7           0       -1.880875    1.781840   -1.032252
     62          1           0       -0.063217    0.871344   -0.771976
     63          6           0       -1.099561    0.704086   -1.062290
     64          7           0       -1.402546   -0.554327   -1.397220
     65          1           0       -6.257511    1.949910   -2.077470
     66          6           0       -5.263194    1.531542   -1.918612
     67          7           0       -4.946483    0.272882   -2.100691
     68          6           0       -3.598004    0.218334   -1.779219
     69          6           0       -4.213825    3.756414   -1.199693
     70          7           0       -4.213267    2.311142   -1.498362
 ---------------------------------------------------------------------

 SCF Done:  E(RwB97XD) =  -2048.68581870     A.U. after   15 cycles

 The electronic state is 1-A.
 Alpha  occ. eigenvalues --  -19.25557 -19.21661 -19.20269 -14.52893 -14.52183
 Alpha  occ. eigenvalues --  -14.48635 -14.48596 -14.48217 -14.47558 -14.46223
 Alpha  occ. eigenvalues --  -14.45744 -14.44714 -14.44420 -14.43437 -14.42545
 Alpha  occ. eigenvalues --  -14.41326 -14.41321 -14.40882 -14.40250 -14.40227
 Alpha  occ. eigenvalues --  -10.45194 -10.40245 -10.40167 -10.39799 -10.38246
 Alpha  occ. eigenvalues --  -10.37744 -10.37590 -10.37355 -10.35665 -10.35497
 Alpha  occ. eigenvalues --  -10.34828 -10.34671 -10.33995 -10.33682 -10.33248
 Alpha  occ. eigenvalues --  -10.32994 -10.32757 -10.32715 -10.30917 -10.30861
 Alpha  occ. eigenvalues --  -10.30537 -10.28466 -10.27448  -1.19232  -1.15540
 Alpha  occ. eigenvalues --   -1.12844  -1.12701  -1.11223  -1.10138  -1.09586
 Alpha  occ. eigenvalues --   -1.09055  -1.08078  -1.05157  -1.05020  -1.02183
 Alpha  occ. eigenvalues --   -1.01393  -1.00529  -0.99187  -0.98103  -0.97020
 Alpha  occ. eigenvalues --   -0.96807  -0.96087  -0.92728  -0.90811  -0.88001
 Alpha  occ. eigenvalues --   -0.86497  -0.83859  -0.83561  -0.83256  -0.82261
 Alpha  occ. eigenvalues --   -0.82053  -0.78633  -0.77334  -0.75438  -0.74095
 Alpha  occ. eigenvalues --   -0.73141  -0.73012  -0.72929  -0.71084  -0.70828
 Alpha  occ. eigenvalues --   -0.67273  -0.66901  -0.66358  -0.66237  -0.64744
 Alpha  occ. eigenvalues --   -0.64122  -0.63384  -0.62791  -0.62647  -0.61183
 Alpha  occ. eigenvalues --   -0.61052  -0.60591  -0.60523  -0.59778  -0.59369
 Alpha  occ. eigenvalues --   -0.59205  -0.58314  -0.56996  -0.56366  -0.56164
 Alpha  occ. eigenvalues --   -0.55900  -0.55703  -0.55469  -0.55059  -0.54487
 Alpha  occ. eigenvalues --   -0.53894  -0.53468  -0.53230  -0.53206  -0.52649
 Alpha  occ. eigenvalues --   -0.52499  -0.52031  -0.51707  -0.50816  -0.50170
 Alpha  occ. eigenvalues --   -0.49804  -0.49679  -0.49363  -0.49009  -0.48894
 Alpha  occ. eigenvalues --   -0.48406  -0.47926  -0.47795  -0.47151  -0.47007
 Alpha  occ. eigenvalues --   -0.46597  -0.45742  -0.44727  -0.44597  -0.43658
 Alpha  occ. eigenvalues --   -0.41434  -0.40994  -0.39310  -0.38297  -0.37983
 Alpha  occ. eigenvalues --   -0.37236  -0.36786  -0.36750  -0.35769  -0.34808
 Alpha  occ. eigenvalues --   -0.34263  -0.33660  -0.33540  -0.32823  -0.32247
 Alpha  occ. eigenvalues --   -0.32029  -0.31735  -0.31413  -0.31005  -0.30498
 Alpha  occ. eigenvalues --   -0.30306  -0.29974  -0.25892  -0.23975
 Alpha virt. eigenvalues --    0.03169   0.03806   0.06768   0.07910   0.08546
 Alpha virt. eigenvalues --    0.09619   0.10017   0.10450   0.11320   0.11810
 Alpha virt. eigenvalues --    0.12306   0.13878   0.14439   0.14969   0.15019

 Mulliken charges:
               1
     1  N   -0.314500
     2  C    0.181829
     3  C    0.046796
     4  N   -0.262168
     5  C    0.136351
     6  H    0.026422
     7  N   -0.290467
     8  C    0.148052
     9  H    0.010108
    10  N   -0.286655
    11  C    0.259414
    12  C    0.113143
    13  N   -0.061087
    14  H    0.107067
    15  H    0.082868
    16  H    0.024196
    17  H    0.031024
    18  H    0.028254
    19  N   -0.296291
    20  C    0.215795
    21  C    0.180212
    22  N   -0.048395
    23  H    0.113760
    24  H    0.107539
    25  N   -0.298675
    26  C    0.186188
    27  N   -0.153816
    28  H    0.129052
    29  C    0.170858
    30  O   -0.323975
    31  C    0.006850
    32  N   -0.221305
    33  C    0.129827
    34  H    0.017438
    35  H    0.029038
    36  H    0.026733
    37  H    0.023773
    38  H    0.061553
    39  H    0.057902
    40  H    0.068606
    41  H    0.030104
    42  C   -0.112810
    43  O   -0.262542
    44  C    0.176009
    45  H    0.131921
    46  N   -0.126824
    47  O   -0.340816
    48  C    0.342022
    49  H    0.045966
    50  C    0.165645
    51  C    0.042477
    52  N   -0.288350
    53  H    0.039653
    54  H    0.020352
    55  H    0.033738
    56  H    0.120970
    57  H    0.117420
    58  N   -0.062754
    59  C    0.083748
    60  C    0.278080
    61  N   -0.323957
    62  H    0.060498
    63  C    0.165078
    64  N   -0.297565
    65  H    0.037027
    66  C    0.131711
    67  N   -0.259937
    68  C    0.021313
    69  C    0.183537
    70  N   -0.315027
 Sum of Mulliken charges =  -0.00000

 Dipole moment (field-independent basis, Debye):
    X=             -8.4428    Y=              5.6264    Z=             -3.4931  Tot=             10.7303
 Quadrupole moment (field-independent basis, Debye-Ang):
   XX=           -155.7622   YY=           -218.7375   ZZ=           -256.3901
   XY=              0.9987   XZ=             -1.6979   YZ=             11.4675

 Normal termination of Gaussian 16 at Wed Jan 24 20:04:22 2018.
