 Gaussian 16, Revision A.03,
 Gaussian 16:  EM64L-G16RevA.03 25-Dec-2016

 ---------------------------------------
 #p wb97xd/cc-pvdz sp scf=(maxcycles=20)
 ---------------------------------------

 ------------------
 Base pair stacking
 ------------------
 Symbolic Z-matrix:
 Charge =  0 Multiplicity = 1

                         Standard orientation:
 ---------------------------------------------------------------------
 Center     Atomic      Atomic             Coordinates (Angstroms)
 Number     Number       Type             X           Y           Z
 ---------------------------------------------------------------------
      1          7           0       -7.154562   -1.523211    0.145488
      2          6           0       -8.525169   -1.032796   -0.097273
      3          6           0       -4.997198   -1.627771    0.560417
      4          7           0       -5.427848   -2.938224    0.412128
      5          6           0       -6.710337   -2.822786    0.168093
      6          1           0       -7.386448   -3.660606   -0.004751
      7          7           0       -3.647633    0.273457    0.916674
      8          6           0       -4.755761    0.999549    0.736598
      9          1           0       -4.623163    2.077720    0.815429
     10          7           0       -5.997268    0.595651    0.475009
     11          6           0       -6.050338   -0.744421    0.398790
     12          6           0       -3.734044   -1.072175    0.833684
     13          7           0       -2.628993   -1.798679    1.013134
     14          1           0       -2.646300   -2.797767    0.960642
     15          1           0       -1.746624   -1.369322    1.206052
     16          1           0       -9.141647   -1.405037    0.596682
     17          1           0       -8.535948   -0.034396   -0.050287
     18          1           0       -8.830536   -1.325469   -1.003413
     19          7           0       -1.953690    2.705039   -1.735334
     20          6           0       -0.660702    2.328253   -1.462801
     21          6           0       -2.485378    4.077808   -1.619060
     22          7           0        2.561012    3.144321   -0.454689
     23          1           0        3.430953    2.673002   -0.312163
     24          1           0        2.543263    4.128229   -0.274910
     25          7           0        0.333299    3.142250   -1.046348
     26          6           0        1.466862    2.487310   -0.868282
     27          7           0        1.617557    1.138432   -1.081210
     28          1           0        2.521563    0.721830   -0.919387
     29          6           0        0.608606    0.281532   -1.509676
     30          8           0        0.849528   -0.921210   -1.671246
     31          6           0       -0.615181    0.970708   -1.705264
     32          7           0       -1.854645    0.504601   -2.121635
     33          6           0       -2.614976    1.565782   -2.124465
     34          1           0       -3.669353    1.573481   -2.402880
     35          1           0       -3.233940    4.092147   -0.957054
     36          1           0       -1.758003    4.689725   -1.311262
     37          1           0       -2.821986    4.383172   -2.509158
     38          1           0        7.084637   -0.852037    0.678742
     39          1           0        7.470265   -0.810521   -1.040041
     40          1           0        6.304573    0.331706   -0.370840
     41          1           0        5.002544   -4.932961   -0.790101
     42          6           0        4.815517   -3.859186   -0.806130
     43          8           0        2.512296   -4.081978   -1.328267
     44          6           0        3.496584   -3.382375   -1.090529
     45          1           0        2.451594   -1.633270   -1.282752
     46          7           0        3.368974   -2.007983   -1.085970
     47          8           0        4.145710    0.114054   -0.860455
     48          6           0        4.355950   -1.086005   -0.842265
     49          1           0        6.818959   -3.295641   -0.343023
     50          6           0        5.798899   -2.984471   -0.564368
     51          6           0        6.686384   -0.676548   -0.309521
     52          7           0        5.599995   -1.623348   -0.576128
     53          1           0        2.999397    4.235008    2.591608
     54          1           0        1.934856    4.100196    1.362516
     55          1           0        3.537977    4.022684    1.065740
     56          1           0        0.786224   -2.815650    1.916642
     57          1           0        2.360904   -2.385416    2.412007
     58          7           0        1.469690   -2.099426    2.058224
     59          6           0        1.205419   -0.819549    1.787603
     60          6           0        1.710430    1.501232    1.643792
     61          7           0        0.504787    1.856209    1.169623
     62          1           0       -1.280335    0.987200    0.660928
     63          6           0       -0.279448    0.787831    1.041356
     64          7           0       -0.016609   -0.494878    1.311861
     65          1           0        4.753242    1.899448    2.661061
     66          6           0        3.778685    1.504766    2.372298
     67          7           0        3.440564    0.239777    2.428532
     68          6           0        2.131505    0.223646    1.969367
     69          6           0        2.815819    3.787472    1.716382
     70          7           0        2.779698    2.324412    1.906532
 ---------------------------------------------------------------------

 SCF Done:  E(RwB97XD) =  -2048.66293527     A.U. after   15 cycles

 The electronic state is 1-A.
 Alpha  occ. eigenvalues --  -19.25949 -19.22061 -19.20700 -14.52519 -14.51584
 Alpha  occ. eigenvalues --  -14.49234 -14.48913 -14.47981 -14.46962 -14.46813
 Alpha  occ. eigenvalues --  -14.46657 -14.44428 -14.42909 -14.42654 -14.42354
 Alpha  occ. eigenvalues --  -14.41937 -14.41848 -14.41414 -14.40904 -14.40633
 Alpha  occ. eigenvalues --  -10.45584 -10.41374 -10.40187 -10.38686 -10.38344
 Alpha  occ. eigenvalues --  -10.37869 -10.37052 -10.35906 -10.35888 -10.35404
 Alpha  occ. eigenvalues --  -10.34587 -10.34398 -10.34279 -10.33873 -10.33613
 Alpha  occ. eigenvalues --  -10.33493 -10.33449 -10.31486 -10.31293 -10.31171
 Alpha  occ. eigenvalues --  -10.30972 -10.29067 -10.28397  -1.19513  -1.14758
 Alpha  occ. eigenvalues --   -1.13293  -1.13086  -1.11841  -1.10752  -1.09409
 Alpha  occ. eigenvalues --   -1.09175  -1.08057  -1.05477  -1.03585  -1.02605
 Alpha  occ. eigenvalues --   -1.01813  -1.00921  -0.99278  -0.98638  -0.97434
 Alpha  occ. eigenvalues --   -0.96729  -0.95628  -0.93124  -0.91130  -0.87220
 Alpha  occ. eigenvalues --   -0.85607  -0.84408  -0.84175  -0.83774  -0.82753
 Alpha  occ. eigenvalues --   -0.82668  -0.78965  -0.76036  -0.74900  -0.74433
 Alpha  occ. eigenvalues --   -0.73740  -0.73458  -0.73391  -0.71559  -0.69555
 Alpha  occ. eigenvalues --   -0.68058  -0.66778  -0.66681  -0.65994  -0.64624
 Alpha  occ. eigenvalues --   -0.64051  -0.63825  -0.63197  -0.62961  -0.62895
 Alpha  occ. eigenvalues --   -0.60675  -0.60045  -0.59725  -0.59629  -0.59528
 Alpha  occ. eigenvalues --   -0.59303  -0.58552  -0.57028  -0.56839  -0.56775
 Alpha  occ. eigenvalues --   -0.56085  -0.55843  -0.55258  -0.54561  -0.54151
 Alpha  occ. eigenvalues --   -0.53721  -0.53425  -0.53329  -0.52794  -0.52561
 Alpha  occ. eigenvalues --   -0.52193  -0.52109  -0.51836  -0.51189  -0.50632
 Alpha  occ. eigenvalues --   -0.50259  -0.49569  -0.49523  -0.48925  -0.48909
 Alpha  occ. eigenvalues --   -0.48562  -0.48433  -0.48083  -0.47513  -0.47456
 Alpha  occ. eigenvalues --   -0.47442  -0.45556  -0.45453  -0.44079  -0.42556
 Alpha  occ. eigenvalues --   -0.41680  -0.39714  -0.39501  -0.37847  -0.37663
 Alpha  occ. eigenvalues --   -0.37343  -0.36594  -0.36100  -0.35609  -0.35232
 Alpha  occ. eigenvalues --   -0.34027  -0.33944  -0.33278  -0.33213  -0.32809
 Alpha  occ. eigenvalues --   -0.32418  -0.32120  -0.32026  -0.31940  -0.31412
 Alpha  occ. eigenvalues --   -0.30845  -0.28598  -0.26286  -0.25120
 Alpha virt. eigenvalues --    0.03046   0.04817   0.07351   0.07598   0.08311
 Alpha virt. eigenvalues --    0.09065   0.10016   0.10459   0.10906   0.12519
 Alpha virt. eigenvalues --    0.12980   0.13617   0.14224   0.14493   0.14720

 Mulliken charges:
               1
     1  N   -0.311319
     2  C    0.180939
     3  C    0.030814
     4  N   -0.259609
     5  C    0.134772
     6  H    0.028193
     7  N   -0.287570
     8  C    0.126877
     9  H    0.009820
    10  N   -0.287488
    11  C    0.243270
    12  C    0.123569
    13  N   -0.057052
    14  H    0.107473
    15  H    0.088609
    16  H    0.026209
    17  H    0.035305
    18  H    0.027016
    19  N   -0.307264
    20  C    0.228174
    21  C    0.182234
    22  N   -0.094296
    23  H    0.116710
    24  H    0.110970
    25  N   -0.253039
    26  C    0.164277
    27  N   -0.097100
    28  H    0.118794
    29  C    0.149743
    30  O   -0.319548
    31  C   -0.008281
    32  N   -0.217035
    33  C    0.129950
    34  H    0.031835
    35  H    0.029078
    36  H    0.027248
    37  H    0.025114
    38  H    0.061502
    39  H    0.059723
    40  H    0.072109
    41  H    0.032004
    42  C   -0.112696
    43  O   -0.265807
    44  C    0.176937
    45  H    0.135068
    46  N   -0.140400
    47  O   -0.350224
    48  C    0.366153
    49  H    0.048166
    50  C    0.172703
    51  C    0.043536
    52  N   -0.297637
    53  H    0.014183
    54  H    0.032619
    55  H   -0.010709
    56  H    0.121845
    57  H    0.114864
    58  N   -0.065858
    59  C    0.110125
    60  C    0.212279
    61  N   -0.256068
    62  H    0.054766
    63  C    0.153246
    64  N   -0.296843
    65  H    0.027661
    66  C    0.121310
    67  N   -0.262728
    68  C    0.033609
    69  C    0.223991
    70  N   -0.306824
 Sum of Mulliken charges =  -0.00000

 Dipole moment (field-independent basis, Debye):
    X=              7.5330    Y=              5.2651    Z=              3.0648  Tot=              9.6881
 Quadrupole moment (field-independent basis, Debye-Ang):
   XX=           -146.0930   YY=           -219.9482   ZZ=           -253.1576
   XY=              4.0296   XZ=             13.9566   YZ=            -11.5819

 Normal termination of Gaussian 16 at Wed Jan 24 14:17:22 2018.
