 Gaussian 16, Revision A.03,
 Gaussian 16:  EM64L-G16RevA.03 25-Dec-2016

 ---------------------------------------
 #p wb97xd/cc-pvdz sp scf=(maxcycles=20)
 ---------------------------------------

 ------------------
 Base pair stacking
 ------------------
 Symbolic Z-matrix:
 Charge =  0 Multiplicity = 1

                         Standard orientation:
 ---------------------------------------------------------------------
 Center     Atomic      Atomic             Coordinates (Angstroms)
 Number     Number       Type             X           Y           Z
 ---------------------------------------------------------------------
      1          7           0       -6.428456   -1.630641    0.603389
      2          6           0       -7.820494   -1.145291    0.535083
      3          6           0       -4.244146   -1.738424    0.836879
      4          7           0       -4.666610   -3.025865    0.538963
      5          6           0       -5.965658   -2.909404    0.410223
      6          1           0       -6.641335   -3.731589    0.172718
      7          7           0       -2.897770    0.127756    1.354152
      8          6           0       -4.026587    0.844204    1.361145
      9          1           0       -3.903377    1.903956    1.580218
     10          7           0       -5.278873    0.449962    1.139184
     11          6           0       -5.318917   -0.867483    0.880002
     12          6           0       -2.971513   -1.195075    1.090017
     13          7           0       -1.845797   -1.911934    1.082581
     14          1           0       -1.853139   -2.894192    0.891969
     15          1           0       -0.957220   -1.491829    1.267196
     16          1           0       -8.376002   -1.625314    1.214167
     17          1           0       -7.841580   -0.163641    0.722274
     18          1           0       -8.191103   -1.316876   -0.377719
     19          7           0       -2.757424    2.857648   -1.696781
     20          6           0       -1.448523    2.474438   -1.529544
     21          6           0       -3.267758    4.236360   -1.557423
     22          7           0        1.853072    3.279233   -0.812927
     23          1           0        2.728735    2.803002   -0.737633
     24          1           0        1.857530    4.265888   -0.647959
     25          7           0       -0.416999    3.286473   -1.212364
     26          6           0        0.723089    2.625023   -1.121216
     27          7           0        0.845743    1.271857   -1.324748
     28          1           0        1.757361    0.850341   -1.233995
     29          6           0       -0.202002    0.416851   -1.651931
     30          8           0        0.015932   -0.790156   -1.814328
     31          6           0       -1.433234    1.113017   -1.753386
     32          7           0       -2.706920    0.650837   -2.055091
     33          6           0       -3.457373    1.718073   -2.009942
     34          1           0       -4.531587    1.730204   -2.197510
     35          1           0       -3.956934    4.266957   -0.834304
     36          1           0       -2.512552    4.846896   -1.322544
     37          1           0       -3.677029    4.530874   -2.420314
     38          1           0        6.429272   -0.736475   -0.005992
     39          1           0        6.667000   -0.724360   -1.751842
     40          1           0        5.570620    0.437507   -1.003914
     41          1           0        4.201254   -4.822055   -1.226871
     42          6           0        4.020957   -3.747143   -1.243962
     43          8           0        1.680072   -3.958899   -1.564179
     44          6           0        2.685869   -3.263881   -1.422405
     45          1           0        1.640372   -1.509364   -1.552584
     46          7           0        2.568602   -1.888575   -1.428824
     47          8           0        3.376379    0.230186   -1.304128
     48          6           0        3.579120   -0.971148   -1.284866
     49          1           0        6.060458   -3.193107   -0.962408
     50          6           0        5.027389   -2.876965   -1.100881
     51          6           0        5.949311   -0.572812   -0.959360
     52          7           0        4.837608   -1.514578   -1.117269
     53          1           0        3.803041    3.981603    3.065667
     54          1           0        2.648349    3.992360    1.912998
     55          1           0        4.224540    3.996387    1.489112
     56          1           0        1.643120   -2.959739    1.576339
     57          1           0        3.245308   -2.563622    2.007849
     58          7           0        2.325414   -2.253419    1.765382
     59          6           0        2.023050   -0.955289    1.697450
     60          6           0        2.482837    1.374758    1.843076
     61          7           0        1.239186    1.762194    1.514966
     62          1           0       -0.567674    0.928329    1.024524
     63          6           0        0.462413    0.702892    1.297231
     64          7           0        0.763375   -0.598040    1.364763
     65          1           0        5.589527    1.703047    2.675461
     66          6           0        4.601117    1.328278    2.407979
     67          7           0        4.286124    0.059758    2.311433
     68          6           0        2.945748    0.075153    1.953846
     69          6           0        3.558404    3.655420    2.152569
     70          7           0        3.557637    2.179681    2.137856
 ---------------------------------------------------------------------

 SCF Done:  E(RwB97XD) =  -2048.73960523     A.U. after   15 cycles

 The electronic state is 1-A.
 Alpha  occ. eigenvalues --  -19.25970 -19.22209 -19.20684 -14.52533 -14.52017
 Alpha  occ. eigenvalues --  -14.48768 -14.48674 -14.47939 -14.47539 -14.46884
 Alpha  occ. eigenvalues --  -14.46739 -14.45017 -14.43525 -14.43274 -14.42148
 Alpha  occ. eigenvalues --  -14.42118 -14.41330 -14.40824 -14.40767 -14.40065
 Alpha  occ. eigenvalues --  -10.45584 -10.41222 -10.40299 -10.39232 -10.38252
 Alpha  occ. eigenvalues --  -10.37979 -10.37544 -10.36521 -10.35322 -10.35125
 Alpha  occ. eigenvalues --  -10.35013 -10.34378 -10.33998 -10.33823 -10.33260
 Alpha  occ. eigenvalues --  -10.33222 -10.33012 -10.31999 -10.31286 -10.30903
 Alpha  occ. eigenvalues --  -10.30891 -10.28427 -10.28132  -1.19536  -1.14679
 Alpha  occ. eigenvalues --   -1.13286  -1.13207  -1.11249  -1.10598  -1.09420
 Alpha  occ. eigenvalues --   -1.08703  -1.08504  -1.04880  -1.04141  -1.02599
 Alpha  occ. eigenvalues --   -1.00529  -1.00345  -0.99857  -0.98588  -0.96890
 Alpha  occ. eigenvalues --   -0.96574  -0.96107  -0.92541  -0.91191  -0.87109
 Alpha  occ. eigenvalues --   -0.85574  -0.84121  -0.83851  -0.83634  -0.82510
 Alpha  occ. eigenvalues --   -0.82235  -0.79001  -0.76465  -0.74667  -0.74193
 Alpha  occ. eigenvalues --   -0.73741  -0.73460  -0.72816  -0.70969  -0.69881
 Alpha  occ. eigenvalues --   -0.67449  -0.66647  -0.66238  -0.66221  -0.64535
 Alpha  occ. eigenvalues --   -0.63819  -0.63749  -0.62777  -0.62621  -0.61827
 Alpha  occ. eigenvalues --   -0.60247  -0.60076  -0.59910  -0.59609  -0.59314
 Alpha  occ. eigenvalues --   -0.59018  -0.58441  -0.56776  -0.56457  -0.56298
 Alpha  occ. eigenvalues --   -0.56062  -0.55373  -0.55119  -0.54709  -0.54445
 Alpha  occ. eigenvalues --   -0.53720  -0.53652  -0.53104  -0.53002  -0.52797
 Alpha  occ. eigenvalues --   -0.52424  -0.52246  -0.51690  -0.50653  -0.50210
 Alpha  occ. eigenvalues --   -0.50124  -0.49515  -0.49348  -0.48912  -0.48700
 Alpha  occ. eigenvalues --   -0.48650  -0.48427  -0.48245  -0.47940  -0.47451
 Alpha  occ. eigenvalues --   -0.46863  -0.45704  -0.44937  -0.44176  -0.43755
 Alpha  occ. eigenvalues --   -0.41064  -0.40177  -0.39525  -0.37530  -0.37297
 Alpha  occ. eigenvalues --   -0.37242  -0.37089  -0.36793  -0.35907  -0.34396
 Alpha  occ. eigenvalues --   -0.34045  -0.33537  -0.33383  -0.33322  -0.33069
 Alpha  occ. eigenvalues --   -0.32691  -0.32436  -0.32110  -0.31836  -0.30772
 Alpha  occ. eigenvalues --   -0.30298  -0.29216  -0.25789  -0.25352
 Alpha virt. eigenvalues --    0.02856   0.04637   0.07443   0.08052   0.08705
 Alpha virt. eigenvalues --    0.09107   0.09511   0.10998   0.11336   0.11687
 Alpha virt. eigenvalues --    0.12582   0.14193   0.14318   0.14667   0.14945

 Mulliken charges:
               1
     1  N   -0.311975
     2  C    0.181042
     3  C    0.039925
     4  N   -0.259663
     5  C    0.134221
     6  H    0.026181
     7  N   -0.291872
     8  C    0.135624
     9  H    0.008157
    10  N   -0.292108
    11  C    0.245610
    12  C    0.123258
    13  N   -0.054972
    14  H    0.109715
    15  H    0.088215
    16  H    0.025049
    17  H    0.033235
    18  H    0.026139
    19  N   -0.311679
    20  C    0.244466
    21  C    0.180923
    22  N   -0.102920
    23  H    0.114469
    24  H    0.114557
    25  N   -0.298460
    26  C    0.219610
    27  N   -0.125754
    28  H    0.114337
    29  C    0.153197
    30  O   -0.317809
    31  C    0.012644
    32  N   -0.224527
    33  C    0.128746
    34  H    0.027543
    35  H    0.029610
    36  H    0.027913
    37  H    0.024519
    38  H    0.063677
    39  H    0.057955
    40  H    0.072564
    41  H    0.031106
    42  C   -0.113205
    43  O   -0.266384
    44  C    0.164212
    45  H    0.134393
    46  N   -0.125970
    47  O   -0.347245
    48  C    0.352527
    49  H    0.048574
    50  C    0.169515
    51  C    0.041714
    52  N   -0.289378
    53  H    0.036191
    54  H    0.039525
    55  H    0.022671
    56  H    0.127353
    57  H    0.114349
    58  N   -0.064965
    59  C    0.085776
    60  C    0.224806
    61  N   -0.262122
    62  H    0.045170
    63  C    0.165338
    64  N   -0.300784
    65  H    0.032792
    66  C    0.135040
    67  N   -0.266592
    68  C    0.036907
    69  C    0.169926
    70  N   -0.312599
 Sum of Mulliken charges =  -0.00000

 Dipole moment (field-independent basis, Debye):
    X=              8.3527    Y=              5.6109    Z=              2.2891  Tot=             10.3194
 Quadrupole moment (field-independent basis, Debye-Ang):
   XX=           -152.6325   YY=           -217.0798   ZZ=           -253.1553
   XY=             -0.2386   XZ=              6.5705   YZ=             -8.2211

 Normal termination of Gaussian 16 at Wed Jan 24 08:54:51 2018.
