 Gaussian 16, Revision A.03,
 Gaussian 16:  EM64L-G16RevA.03 25-Dec-2016

 ---------------------------------------
 #p wb97xd/cc-pvdz sp scf=(maxcycles=20)
 ---------------------------------------

 ------------------
 Base pair stacking
 ------------------
 Symbolic Z-matrix:
 Charge =  0 Multiplicity = 1

                         Standard orientation:
 ---------------------------------------------------------------------
 Center     Atomic      Atomic             Coordinates (Angstroms)
 Number     Number       Type             X           Y           Z
 ---------------------------------------------------------------------
      1          7           0        4.907104   -1.837011   -1.564825
      2          6           0        6.316589   -1.399624   -1.573192
      3          6           0        2.707914   -1.857615   -1.544305
      4          7           0        3.108306   -3.185797   -1.563078
      5          6           0        4.417214   -3.120221   -1.574685
      6          1           0        5.081189   -3.984988   -1.590721
      7          7           0        1.389197    0.097569   -1.509777
      8          6           0        2.538312    0.781021   -1.512911
      9          1           0        2.434585    1.865145   -1.499687
     10          7           0        3.790439    0.328474   -1.529831
     11          6           0        3.805595   -1.014644   -1.545142
     12          6           0        1.438153   -1.252407   -1.525476
     13          7           0        0.292158   -1.936399   -1.522387
     14          1           0        0.280805   -2.936884   -1.533578
     15          1           0       -0.593634   -1.472359   -1.508780
     16          1           0        6.768222   -1.741499   -2.397406
     17          1           0        6.356509   -0.400921   -1.562296
     18          1           0        6.784101   -1.759037   -0.765572
     19          7           0        4.419235    2.652426    0.986727
     20          6           0        3.085446    2.322746    1.005793
     21          6           0        4.965875    3.978658    0.635991
     22          7           0       -0.240603    3.217028    0.559205
     23          1           0       -1.137665    2.782276    0.633364
     24          1           0       -0.223767    4.178464    0.283375
     25          7           0        2.058406    3.148326    0.709710
     26          6           0        0.889562    2.541933    0.817825
     27          7           0        0.736073    1.227661    1.187467
     28          1           0       -0.196224    0.847397    1.243934
     29          6           0        1.778602    0.359668    1.496634
     30          8           0        1.531785   -0.809031    1.819063
     31          6           0        3.040517    0.996848    1.384950
     32          7           0        4.320340    0.504035    1.599607
     33          6           0        5.103398    1.518788    1.351997
     34          1           0        6.191505    1.494762    1.420780
     35          1           0        5.570098    3.893283   -0.155476
     36          1           0        4.214296    4.598699    0.414754
     37          1           0        5.481051    4.344121    1.410484
     38          1           0       -5.036710   -0.615975    0.713911
     39          1           0       -5.076067   -0.399753    2.462157
     40          1           0       -4.024712    0.613520    1.472568
     41          1           0       -2.852233   -4.654630    2.150526
     42          6           0       -2.627943   -3.595362    2.024570
     43          8           0       -0.276366   -3.893865    2.114424
     44          6           0       -1.262871   -3.166530    2.002251
     45          1           0       -0.139449   -1.465933    1.817212
     46          7           0       -1.090244   -1.806947    1.837989
     47          8           0       -1.820794    0.324963    1.557867
     48          6           0       -2.072701   -0.858849    1.698609
     49          1           0       -4.662155   -2.968789    1.901277
     50          6           0       -3.608164   -2.694283    1.891055
     51          6           0       -4.446449   -0.374193    1.585231
     52          7           0       -3.362945   -1.350254    1.730347
     53          1           0       -5.299401    4.333110   -1.581101
     54          1           0       -4.018190    4.090097   -0.600517
     55          1           0       -5.532328    4.035237    0.006486
     56          1           0       -3.271219   -2.802146   -1.781426
     57          1           0       -4.894997   -2.299258   -1.924759
     58          7           0       -3.940909   -2.060534   -1.740543
     59          6           0       -3.578805   -0.808526   -1.453223
     60          6           0       -3.954914    1.510221   -1.074187
     61          7           0       -2.666329    1.801633   -0.831190
     62          1           0       -0.850816    0.854683   -0.742947
     63          6           0       -1.914249    0.706975   -0.926107
     64          7           0       -2.275033   -0.547877   -1.213772
     65          1           0       -7.121315    2.053854   -1.435483
     66          6           0       -6.124876    1.615695   -1.371785
     67          7           0       -5.853922    0.348711   -1.569320
     68          6           0       -4.481405    0.268224   -1.383668
     69          6           0       -4.963301    3.824429   -0.788461
     70          7           0       -5.022343    2.376566   -1.068113
 ---------------------------------------------------------------------

 SCF Done:  E(RwB97XD) =  -2048.73950888     A.U. after   15 cycles

 The electronic state is 1-A.
 Alpha  occ. eigenvalues --  -19.25200 -19.21417 -19.20293 -14.52919 -14.51979
 Alpha  occ. eigenvalues --  -14.49163 -14.48538 -14.48297 -14.47290 -14.46344
 Alpha  occ. eigenvalues --  -14.45838 -14.45738 -14.45007 -14.44940 -14.42903
 Alpha  occ. eigenvalues --  -14.41680 -14.41052 -14.40624 -14.40617 -14.40266
 Alpha  occ. eigenvalues --  -10.44884 -10.40761 -10.40699 -10.39553 -10.38410
 Alpha  occ. eigenvalues --  -10.37862 -10.37760 -10.37431 -10.36649 -10.35592
 Alpha  occ. eigenvalues --  -10.34399 -10.34312 -10.33992 -10.33744 -10.33164
 Alpha  occ. eigenvalues --  -10.33104 -10.33057 -10.32764 -10.30765 -10.30756
 Alpha  occ. eigenvalues --  -10.30422 -10.28321 -10.27730  -1.19014  -1.15678
 Alpha  occ. eigenvalues --   -1.12833  -1.12460  -1.10940  -1.10282  -1.10018
 Alpha  occ. eigenvalues --   -1.08876  -1.08115  -1.05584  -1.05078  -1.01927
 Alpha  occ. eigenvalues --   -1.01467  -1.00570  -0.99103  -0.98208  -0.97586
 Alpha  occ. eigenvalues --   -0.96670  -0.96317  -0.92750  -0.90658  -0.88211
 Alpha  occ. eigenvalues --   -0.86402  -0.83864  -0.83576  -0.83093  -0.82262
 Alpha  occ. eigenvalues --   -0.81985  -0.78440  -0.77653  -0.75581  -0.74299
 Alpha  occ. eigenvalues --   -0.73141  -0.72874  -0.72837  -0.71093  -0.70913
 Alpha  occ. eigenvalues --   -0.67560  -0.66865  -0.66278  -0.66056  -0.64913
 Alpha  occ. eigenvalues --   -0.64107  -0.63466  -0.62729  -0.62483  -0.61277
 Alpha  occ. eigenvalues --   -0.61059  -0.60824  -0.60622  -0.59902  -0.59312
 Alpha  occ. eigenvalues --   -0.59025  -0.57737  -0.56933  -0.56290  -0.55886
 Alpha  occ. eigenvalues --   -0.55773  -0.55713  -0.55634  -0.54824  -0.54238
 Alpha  occ. eigenvalues --   -0.53806  -0.53641  -0.53285  -0.53211  -0.52653
 Alpha  occ. eigenvalues --   -0.52614  -0.51943  -0.51480  -0.50603  -0.50333
 Alpha  occ. eigenvalues --   -0.49979  -0.49828  -0.49766  -0.48964  -0.48870
 Alpha  occ. eigenvalues --   -0.48481  -0.48024  -0.47959  -0.47389  -0.46976
 Alpha  occ. eigenvalues --   -0.46777  -0.45659  -0.45024  -0.44113  -0.43470
 Alpha  occ. eigenvalues --   -0.41479  -0.41044  -0.38977  -0.38268  -0.38183
 Alpha  occ. eigenvalues --   -0.37639  -0.37010  -0.36288  -0.35486  -0.35237
 Alpha  occ. eigenvalues --   -0.35025  -0.33973  -0.33351  -0.32980  -0.32663
 Alpha  occ. eigenvalues --   -0.32332  -0.32058  -0.31608  -0.31580  -0.30586
 Alpha  occ. eigenvalues --   -0.30447  -0.30211  -0.26070  -0.24785
 Alpha virt. eigenvalues --    0.02997   0.03984   0.06031   0.08059   0.09159
 Alpha virt. eigenvalues --    0.09473   0.09985   0.10246   0.10933   0.11728
 Alpha virt. eigenvalues --    0.12999   0.14147   0.14608   0.14930   0.15386

 Mulliken charges:
               1
     1  N   -0.313570
     2  C    0.184478
     3  C    0.053426
     4  N   -0.263816
     5  C    0.140855
     6  H    0.026552
     7  N   -0.286244
     8  C    0.121426
     9  H    0.018500
    10  N   -0.275231
    11  C    0.263350
    12  C    0.093100
    13  N   -0.066072
    14  H    0.108093
    15  H    0.079230
    16  H    0.021332
    17  H    0.029809
    18  H    0.030698
    19  N   -0.301382
    20  C    0.229482
    21  C    0.180961
    22  N   -0.102819
    23  H    0.109372
    24  H    0.112655
    25  N   -0.300467
    26  C    0.219545
    27  N   -0.119740
    28  H    0.111045
    29  C    0.175951
    30  O   -0.322198
    31  C   -0.005713
    32  N   -0.224988
    33  C    0.124977
    34  H    0.018776
    35  H    0.027912
    36  H    0.028166
    37  H    0.023471
    38  H    0.063523
    39  H    0.056974
    40  H    0.076652
    41  H    0.028860
    42  C   -0.114465
    43  O   -0.261475
    44  C    0.179215
    45  H    0.133120
    46  N   -0.128898
    47  O   -0.340461
    48  C    0.348290
    49  H    0.043493
    50  C    0.165071
    51  C    0.036937
    52  N   -0.280506
    53  H    0.035557
    54  H    0.036158
    55  H    0.032351
    56  H    0.119379
    57  H    0.119483
    58  N   -0.061133
    59  C    0.082249
    60  C    0.252270
    61  N   -0.283839
    62  H    0.022382
    63  C    0.198334
    64  N   -0.308095
    65  H    0.040297
    66  C    0.136661
    67  N   -0.255700
    68  C    0.006432
    69  C    0.181613
    70  N   -0.311651
 Sum of Mulliken charges =  -0.00000

 Dipole moment (field-independent basis, Debye):
    X=             -8.6161    Y=              5.8960    Z=             -2.4920  Tot=             10.7336
 Quadrupole moment (field-independent basis, Debye-Ang):
   XX=           -162.7311   YY=           -217.7234   ZZ=           -254.9004
   XY=              5.6053   XZ=            -12.9180   YZ=             11.3508

 Normal termination of Gaussian 16 at Wed Jan 24 22:14:25 2018.
