 Gaussian 16, Revision A.03,
 Gaussian 16:  EM64L-G16RevA.03 25-Dec-2016

 ---------------------------------------
 #p wb97xd/cc-pvdz sp scf=(maxcycles=20)
 ---------------------------------------

 ------------------
 Base pair stacking
 ------------------
 Symbolic Z-matrix:
 Charge =  0 Multiplicity = 1

                         Standard orientation:
 ---------------------------------------------------------------------
 Center     Atomic      Atomic             Coordinates (Angstroms)
 Number     Number       Type             X           Y           Z
 ---------------------------------------------------------------------
      1          7           0        4.235427   -2.393918   -1.851107
      2          6           0        5.600140   -2.112572   -2.337322
      3          6           0        2.084540   -2.254445   -1.413418
      4          7           0        2.519468   -3.443954   -0.847187
      5          6           0        3.797886   -3.480377   -1.133535
      6          1           0        4.475609   -4.283739   -0.843294
      7          7           0        0.730795   -0.451151   -2.105138
      8          6           0        1.832773    0.063905   -2.660047
      9          1           0        1.696023    1.018858   -3.165620
     10          7           0        3.072496   -0.421300   -2.684091
     11          6           0        3.131025   -1.596284   -2.035701
     12          6           0        0.822600   -1.634553   -1.459984
     13          7           0       -0.276315   -2.150307   -0.905404
     14          1           0       -0.254866   -3.023921   -0.418017
     15          1           0       -1.158009   -1.681296   -0.958178
     16          1           0        5.893925   -2.844588   -2.952154
     17          1           0        5.606714   -1.242553   -2.829410
     18          1           0        6.228399   -2.059324   -1.561147
     19          7           0        5.021124    2.817973    0.565440
     20          6           0        3.696534    2.553345    0.817401
     21          6           0        5.581618    4.148098    0.253513
     22          7           0        0.418849    3.653874    1.145027
     23          1           0       -0.475182    3.257402    1.351806
     24          1           0        0.449740    4.639049    0.974146
     25          7           0        2.692566    3.456708    0.822306
     26          6           0        1.527079    2.899167    1.098736
     27          7           0        1.355751    1.559636    1.351326
     28          1           0        0.427668    1.220999    1.553689
     29          6           0        2.374430    0.611917    1.351583
     30          8           0        2.112911   -0.573165    1.592273
     31          6           0        3.632440    1.195901    1.056221
     32          7           0        4.891461    0.619909    0.956207
     33          6           0        5.681285    1.617538    0.664422
     34          1           0        6.757538    1.532925    0.510199
     35          1           0        6.012998    4.126861   -0.647753
     36          1           0        4.847158    4.825466    0.254321
     37          1           0        6.261981    4.394918    0.942714
     38          1           0       -4.514718    0.066053    1.856409
     39          1           0       -4.198301    0.077645    3.589728
     40          1           0       -3.290231    1.147721    2.521235
     41          1           0       -2.384014   -4.214156    2.391657
     42          6           0       -2.114112   -3.159539    2.335337
     43          8           0        0.183006   -3.580104    1.918808
     44          6           0       -0.752528   -2.797696    2.084358
     45          1           0        0.430955   -1.143579    1.857259
     46          7           0       -0.519382   -1.438203    2.032704
     47          8           0       -1.137772    0.744717    2.130994
     48          6           0       -1.440632   -0.433821    2.194166
     49          1           0       -4.084010   -2.425014    2.690020
     50          6           0       -3.035356   -2.202596    2.497103
     51          6           0       -3.750835    0.175216    2.611820
     52          7           0       -2.731592   -0.862471    2.432693
     53          1           0       -5.986257    3.640194   -3.013128
     54          1           0       -4.530730    3.824998   -2.299414
     55          1           0       -5.894550    4.176940   -1.474649
     56          1           0       -3.789511   -2.790757   -0.032734
     57          1           0       -5.426524   -2.315668   -0.100332
     58          7           0       -4.463708   -2.081757   -0.239915
     59          6           0       -4.096221   -0.877557   -0.682684
     60          6           0       -4.471492    1.347561   -1.437474
     61          7           0       -3.171170    1.633704   -1.615577
     62          1           0       -1.341538    0.733062   -1.410887
     63          6           0       -2.414491    0.586042   -1.295055
     64          7           0       -2.780651   -0.620894   -0.851404
     65          1           0       -7.664477    1.854291   -1.422629
     66          6           0       -6.660146    1.438316   -1.337660
     67          7           0       -6.389080    0.222804   -0.929306
     68          6           0       -5.004771    0.152175   -0.987820
     69          6           0       -5.484530    3.565266   -2.151350
     70          7           0       -5.546664    2.174430   -1.661729
 ---------------------------------------------------------------------

 SCF Done:  E(RwB97XD) =  -2048.74222555     A.U. after   15 cycles

 The electronic state is 1-A.
 Alpha  occ. eigenvalues --  -19.25648 -19.21897 -19.20812 -14.52352 -14.52279
 Alpha  occ. eigenvalues --  -14.49191 -14.48806 -14.47632 -14.47555 -14.47098
 Alpha  occ. eigenvalues --  -14.46923 -14.45340 -14.44774 -14.44494 -14.42297
 Alpha  occ. eigenvalues --  -14.42185 -14.41371 -14.40360 -14.40160 -14.39974
 Alpha  occ. eigenvalues --  -10.45262 -10.41514 -10.40310 -10.39984 -10.38457
 Alpha  occ. eigenvalues --  -10.38002 -10.37927 -10.37281 -10.35978 -10.35054
 Alpha  occ. eigenvalues --  -10.34884 -10.34702 -10.33775 -10.33702 -10.32974
 Alpha  occ. eigenvalues --  -10.32834 -10.32547 -10.32514 -10.31280 -10.31181
 Alpha  occ. eigenvalues --  -10.29804 -10.28462 -10.27748  -1.19195  -1.15158
 Alpha  occ. eigenvalues --   -1.13456  -1.12936  -1.10935  -1.10288  -1.09696
 Alpha  occ. eigenvalues --   -1.09138  -1.08808  -1.05156  -1.04594  -1.02252
 Alpha  occ. eigenvalues --   -1.00962  -1.00052  -1.00003  -0.98837  -0.97156
 Alpha  occ. eigenvalues --   -0.96971  -0.95958  -0.92301  -0.91118  -0.87684
 Alpha  occ. eigenvalues --   -0.85833  -0.84480  -0.83405  -0.83022  -0.82850
 Alpha  occ. eigenvalues --   -0.81372  -0.78817  -0.77212  -0.74997  -0.74942
 Alpha  occ. eigenvalues --   -0.73900  -0.73212  -0.72285  -0.70622  -0.70369
 Alpha  occ. eigenvalues --   -0.67666  -0.67050  -0.66450  -0.65699  -0.64632
 Alpha  occ. eigenvalues --   -0.64396  -0.63869  -0.62868  -0.62161  -0.62054
 Alpha  occ. eigenvalues --   -0.60738  -0.60309  -0.59841  -0.59523  -0.59334
 Alpha  occ. eigenvalues --   -0.59176  -0.58621  -0.56965  -0.55999  -0.55973
 Alpha  occ. eigenvalues --   -0.55313  -0.55207  -0.55110  -0.54649  -0.54369
 Alpha  occ. eigenvalues --   -0.53798  -0.53723  -0.53661  -0.53240  -0.52856
 Alpha  occ. eigenvalues --   -0.52819  -0.52272  -0.50890  -0.50428  -0.50058
 Alpha  occ. eigenvalues --   -0.49859  -0.49558  -0.49495  -0.49231  -0.48989
 Alpha  occ. eigenvalues --   -0.48468  -0.48283  -0.48123  -0.47952  -0.47417
 Alpha  occ. eigenvalues --   -0.46201  -0.45737  -0.45388  -0.44436  -0.43746
 Alpha  occ. eigenvalues --   -0.40723  -0.40628  -0.39319  -0.37921  -0.37683
 Alpha  occ. eigenvalues --   -0.37623  -0.37552  -0.36336  -0.35690  -0.35007
 Alpha  occ. eigenvalues --   -0.34541  -0.34290  -0.33208  -0.32917  -0.32874
 Alpha  occ. eigenvalues --   -0.32693  -0.32577  -0.32145  -0.31971  -0.30326
 Alpha  occ. eigenvalues --   -0.30136  -0.29823  -0.25908  -0.25163
 Alpha virt. eigenvalues --    0.02863   0.04105   0.06854   0.08355   0.08738
 Alpha virt. eigenvalues --    0.08994   0.09516   0.10532   0.11283   0.11582
 Alpha virt. eigenvalues --    0.13748   0.14194   0.14428   0.15148   0.15309

 Mulliken charges:
               1
     1  N   -0.311891
     2  C    0.183369
     3  C    0.055490
     4  N   -0.248878
     5  C    0.144823
     6  H    0.026060
     7  N   -0.300767
     8  C    0.131200
     9  H    0.009256
    10  N   -0.284960
    11  C    0.256861
    12  C    0.089544
    13  N   -0.069707
    14  H    0.113322
    15  H    0.082056
    16  H    0.019715
    17  H    0.030787
    18  H    0.031084
    19  N   -0.311270
    20  C    0.252456
    21  C    0.180857
    22  N   -0.123937
    23  H    0.118587
    24  H    0.118798
    25  N   -0.312343
    26  C    0.249939
    27  N   -0.150922
    28  H    0.121140
    29  C    0.198049
    30  O   -0.319500
    31  C   -0.014136
    32  N   -0.231966
    33  C    0.125819
    34  H    0.023846
    35  H    0.028004
    36  H    0.030226
    37  H    0.025581
    38  H    0.061552
    39  H    0.058700
    40  H    0.075422
    41  H    0.028067
    42  C   -0.118593
    43  O   -0.253138
    44  C    0.152274
    45  H    0.136048
    46  N   -0.119463
    47  O   -0.352664
    48  C    0.355837
    49  H    0.040681
    50  C    0.163003
    51  C    0.039627
    52  N   -0.278918
    53  H    0.033779
    54  H    0.042482
    55  H    0.029495
    56  H    0.115160
    57  H    0.118344
    58  N   -0.066018
    59  C    0.086903
    60  C    0.249838
    61  N   -0.271803
    62  H    0.035947
    63  C    0.178454
    64  N   -0.317796
    65  H    0.038923
    66  C    0.141979
    67  N   -0.263400
    68  C    0.024932
    69  C    0.180123
    70  N   -0.312372
 Sum of Mulliken charges =  -0.00000

 Dipole moment (field-independent basis, Debye):
    X=             -8.2151    Y=              6.9849    Z=              0.5855  Tot=             10.7991
 Quadrupole moment (field-independent basis, Debye-Ang):
   XX=           -169.5273   YY=           -214.4126   ZZ=           -246.3425
   XY=              4.7077   XZ=            -16.9192   YZ=              0.2412

 Normal termination of Gaussian 16 at Thu Jan 25 00:08:37 2018.
