 Gaussian 16, Revision A.03,
 Gaussian 16:  EM64L-G16RevA.03 25-Dec-2016

 ---------------------------------------
 #p wb97xd/cc-pvdz sp scf=(maxcycles=20)
 ---------------------------------------

 ------------------
 Base pair stacking
 ------------------
 Symbolic Z-matrix:
 Charge =  0 Multiplicity = 1

                         Standard orientation:
 ---------------------------------------------------------------------
 Center     Atomic      Atomic             Coordinates (Angstroms)
 Number     Number       Type             X           Y           Z
 ---------------------------------------------------------------------
      1          7           0       -6.863340   -1.547334    0.326608
      2          6           0       -8.228435   -1.068258    0.035039
      3          6           0       -4.707125   -1.634172    0.751446
      4          7           0       -5.152582   -2.947953    0.734658
      5          6           0       -6.433793   -2.843056    0.479375
      6          1           0       -7.119379   -3.686295    0.390718
      7          7           0       -3.336051    0.277847    0.916728
      8          6           0       -4.435997    0.994710    0.664160
      9          1           0       -4.291211    2.073810    0.634858
     10          7           0       -5.682090    0.580685    0.443379
     11          6           0       -5.750292   -0.759603    0.501533
     12          6           0       -3.437670   -1.068287    0.968666
     13          7           0       -2.340806   -1.785605    1.220664
     14          1           0       -2.369398   -2.784671    1.268345
     15          1           0       -1.453570   -1.349074    1.370304
     16          1           0       -8.848780   -1.362256    0.762306
     17          1           0       -8.227937   -0.070101   -0.018060
     18          1           0       -8.537463   -1.446621   -0.837509
     19          7           0       -2.307922    2.660901   -1.665371
     20          6           0       -1.010741    2.291197   -1.403281
     21          6           0       -2.863776    4.016139   -1.478149
     22          7           0        2.189091    3.103827   -0.325123
     23          1           0        3.065869    2.639888   -0.201536
     24          1           0        2.153250    4.075890   -0.091638
     25          7           0       -0.033857    3.097379   -0.934447
     26          6           0        1.109372    2.452539   -0.783300
     27          7           0        1.284598    1.120153   -1.068867
     28          1           0        2.194359    0.710335   -0.922725
     29          6           0        0.293581    0.271533   -1.552181
     30          8           0        0.556161   -0.916295   -1.777685
     31          6           0       -0.940302    0.950027   -1.719686
     32          7           0       -2.168552    0.487064   -2.171334
     33          6           0       -2.946814    1.533998   -2.122075
     34          1           0       -3.999083    1.539530   -2.408363
     35          1           0       -3.617324    3.981506   -0.822582
     36          1           0       -2.149221    4.622149   -1.131127
     37          1           0       -3.198981    4.364497   -2.352853
     38          1           0        6.771715   -0.873245    0.624148
     39          1           0        7.169222   -0.730598   -1.086498
     40          1           0        5.979334    0.353467   -0.365141
     41          1           0        4.770362   -4.900976   -1.084234
     42          6           0        4.565184   -3.831201   -1.042705
     43          8           0        2.269995   -4.063091   -1.595367
     44          6           0        3.240435   -3.361407   -1.311356
     45          1           0        2.167225   -1.621973   -1.415691
     46          7           0        3.089391   -1.991671   -1.232237
     47          8           0        3.828158    0.127300   -0.883871
     48          6           0        4.058681   -1.068277   -0.930000
     49          1           0        6.555262   -3.260851   -0.532701
     50          6           0        5.531695   -2.954936   -0.745032
     51          6           0        6.377816   -0.650158   -0.356232
     52          7           0        5.309713   -1.598732   -0.683526
     53          1           0        3.355935    4.311918    2.191792
     54          1           0        2.289421    4.066869    0.981585
     55          1           0        3.891440    3.942006    0.695191
     56          1           0        1.063106   -2.745520    2.223772
     57          1           0        2.642742   -2.285662    2.674744
     58          7           0        1.754659   -2.026462    2.293505
     59          6           0        1.504731   -0.777168    1.896047
     60          6           0        2.035812    1.511755    1.521217
     61          7           0        0.834053    1.831088    1.013064
     62          1           0       -0.960964    0.935716    0.592569
     63          6           0        0.037774    0.764139    0.991733
     64          7           0        0.286241   -0.487960    1.389355
     65          1           0        5.083357    1.975419    2.495720
     66          6           0        4.104286    1.564834    2.247182
     67          7           0        3.751953    0.315698    2.429402
     68          6           0        2.442595    0.268474    1.973225
     69          6           0        3.166953    3.781199    1.365591
     70          7           0        3.114412    2.344992    1.701068
 ---------------------------------------------------------------------

 SCF Done:  E(RwB97XD) =  -2048.51332510     A.U. after   16 cycles

 The electronic state is 1-A.
 Alpha  occ. eigenvalues --  -19.25908 -19.21962 -19.20234 -14.52549 -14.52471
 Alpha  occ. eigenvalues --  -14.49253 -14.48371 -14.48011 -14.47912 -14.45296
 Alpha  occ. eigenvalues --  -14.45229 -14.44483 -14.44009 -14.43140 -14.42876
 Alpha  occ. eigenvalues --  -14.41960 -14.41485 -14.40815 -14.40715 -14.40402
 Alpha  occ. eigenvalues --  -10.45533 -10.41355 -10.40094 -10.39701 -10.38016
 Alpha  occ. eigenvalues --  -10.37821 -10.37738 -10.36751 -10.36007 -10.35313
 Alpha  occ. eigenvalues --  -10.35056 -10.34608 -10.34022 -10.33908 -10.33696
 Alpha  occ. eigenvalues --  -10.33576 -10.32860 -10.32522 -10.31303 -10.31131
 Alpha  occ. eigenvalues --  -10.30676 -10.29105 -10.27652  -1.19488  -1.16417
 Alpha  occ. eigenvalues --   -1.13323  -1.12995  -1.11862  -1.10312  -1.09594
 Alpha  occ. eigenvalues --   -1.09352  -1.09119  -1.05551  -1.04472  -1.03538
 Alpha  occ. eigenvalues --   -1.02508  -1.01038  -0.99216  -0.98140  -0.97499
 Alpha  occ. eigenvalues --   -0.96950  -0.96212  -0.93215  -0.91079  -0.88695
 Alpha  occ. eigenvalues --   -0.86988  -0.84444  -0.83713  -0.83622  -0.82789
 Alpha  occ. eigenvalues --   -0.82286  -0.78905  -0.77411  -0.75186  -0.74616
 Alpha  occ. eigenvalues --   -0.74029  -0.73465  -0.73380  -0.71633  -0.71008
 Alpha  occ. eigenvalues --   -0.68851  -0.67470  -0.66866  -0.66573  -0.65564
 Alpha  occ. eigenvalues --   -0.64386  -0.63760  -0.63477  -0.63154  -0.62919
 Alpha  occ. eigenvalues --   -0.61274  -0.60793  -0.60714  -0.60159  -0.59525
 Alpha  occ. eigenvalues --   -0.59433  -0.59271  -0.57154  -0.56793  -0.56716
 Alpha  occ. eigenvalues --   -0.56166  -0.55677  -0.55439  -0.54640  -0.54386
 Alpha  occ. eigenvalues --   -0.53631  -0.53371  -0.53197  -0.52827  -0.52442
 Alpha  occ. eigenvalues --   -0.52310  -0.52181  -0.51311  -0.51158  -0.50689
 Alpha  occ. eigenvalues --   -0.50071  -0.49796  -0.49459  -0.49376  -0.48644
 Alpha  occ. eigenvalues --   -0.48441  -0.48131  -0.47988  -0.47834  -0.47450
 Alpha  occ. eigenvalues --   -0.47097  -0.45891  -0.45546  -0.44015  -0.42668
 Alpha  occ. eigenvalues --   -0.41746  -0.39513  -0.39176  -0.38059  -0.37740
 Alpha  occ. eigenvalues --   -0.37335  -0.36783  -0.36347  -0.35700  -0.35161
 Alpha  occ. eigenvalues --   -0.34100  -0.33971  -0.33292  -0.33103  -0.32525
 Alpha  occ. eigenvalues --   -0.32075  -0.31981  -0.31672  -0.31462  -0.31353
 Alpha  occ. eigenvalues --   -0.30911  -0.28688  -0.26374  -0.24171
 Alpha virt. eigenvalues --    0.02867   0.03203   0.06789   0.07321   0.08263
 Alpha virt. eigenvalues --    0.09111   0.09604   0.10340   0.11185   0.12495
 Alpha virt. eigenvalues --    0.12846   0.13741   0.13900   0.14133   0.15451

 Mulliken charges:
               1
     1  N   -0.312217
     2  C    0.180959
     3  C    0.034575
     4  N   -0.260629
     5  C    0.135417
     6  H    0.028327
     7  N   -0.287504
     8  C    0.131798
     9  H    0.006737
    10  N   -0.286779
    11  C    0.246574
    12  C    0.125710
    13  N   -0.059734
    14  H    0.107218
    15  H    0.087782
    16  H    0.025999
    17  H    0.034875
    18  H    0.027748
    19  N   -0.307819
    20  C    0.212364
    21  C    0.182337
    22  N   -0.082654
    23  H    0.117556
    24  H    0.084355
    25  N   -0.256308
    26  C    0.159645
    27  N   -0.105654
    28  H    0.119236
    29  C    0.124884
    30  O   -0.319042
    31  C    0.008323
    32  N   -0.218495
    33  C    0.120176
    34  H    0.029448
    35  H    0.022974
    36  H    0.026752
    37  H    0.024667
    38  H    0.061599
    39  H    0.059034
    40  H    0.071823
    41  H    0.031847
    42  C   -0.112501
    43  O   -0.263575
    44  C    0.178238
    45  H    0.134789
    46  N   -0.139302
    47  O   -0.347040
    48  C    0.361728
    49  H    0.047600
    50  C    0.170633
    51  C    0.043436
    52  N   -0.295970
    53  H    0.011417
    54  H    0.040446
    55  H   -0.000960
    56  H    0.122961
    57  H    0.117454
    58  N   -0.067686
    59  C    0.112130
    60  C    0.226880
    61  N   -0.257881
    62  H    0.088475
    63  C    0.162170
    64  N   -0.295870
    65  H    0.034162
    66  C    0.136168
    67  N   -0.264279
    68  C    0.036123
    69  C    0.218576
    70  N   -0.332224
 Sum of Mulliken charges =  -0.00000

 Dipole moment (field-independent basis, Debye):
    X=              7.4887    Y=              4.8215    Z=              4.3526  Tot=              9.9133
 Quadrupole moment (field-independent basis, Debye-Ang):
   XX=           -148.5414   YY=           -222.1948   ZZ=           -254.9340
   XY=              2.3005   XZ=             11.3576   YZ=            -12.7827

 Normal termination of Gaussian 16 at Wed Jan 24 22:49:12 2018.
