 Gaussian 16, Revision A.03,
 Gaussian 16:  EM64L-G16RevA.03 25-Dec-2016

 ---------------------------------------
 #p wb97xd/cc-pvdz sp scf=(maxcycles=20)
 ---------------------------------------

 ------------------
 Base pair stacking
 ------------------
 Symbolic Z-matrix:
 Charge =  0 Multiplicity = 1

                         Standard orientation:
 ---------------------------------------------------------------------
 Center     Atomic      Atomic             Coordinates (Angstroms)
 Number     Number       Type             X           Y           Z
 ---------------------------------------------------------------------
      1          7           0        4.585782   -1.957438   -1.740329
      2          6           0        5.992838   -1.538108   -1.889915
      3          6           0        2.392435   -1.953585   -1.577447
      4          7           0        2.787599   -3.278715   -1.465207
      5          6           0        4.093196   -3.227998   -1.567838
      6          1           0        4.752686   -4.095251   -1.524223
      7          7           0        1.083381    0.005189   -1.689383
      8          6           0        2.231537    0.672069   -1.846145
      9          1           0        2.131474    1.751243   -1.954064
     10          7           0        3.478879    0.208208   -1.889431
     11          6           0        3.489801   -1.127508   -1.747459
     12          6           0        1.127981   -1.337727   -1.549141
     13          7           0       -0.017067   -2.005190   -1.392539
     14          1           0       -0.031511   -2.999910   -1.285129
     15          1           0       -0.899025   -1.533960   -1.377251
     16          1           0        6.389598   -1.978808   -2.695240
     17          1           0        6.035770   -0.545477   -1.999220
     18          1           0        6.510560   -1.804937   -1.077042
     19          7           0        4.723449    2.671907    0.847089
     20          6           0        3.388581    2.359881    0.940973
     21          6           0        5.267438    4.003667    0.513626
     22          7           0        0.055403    3.316557    0.750030
     23          1           0       -0.841834    2.891381    0.865918
     24          1           0        0.069769    4.288018    0.511774
     25          7           0        2.357918    3.210614    0.745942
     26          6           0        1.188948    2.616273    0.906844
     27          7           0        1.038650    1.290349    1.233729
     28          1           0        0.105982    0.920826    1.336456
     29          6           0        2.084938    0.396512    1.439119
     30          8           0        1.840789   -0.780792    1.730809
     31          6           0        3.347020    1.020477    1.269737
     32          7           0        4.629976    0.502072    1.380044
     33          6           0        5.411541    1.515262    1.121555
     34          1           0        6.501285    1.473696    1.117518
     35          1           0        5.817241    3.942124   -0.318674
     36          1           0        4.513169    4.642284    0.366978
     37          1           0        5.837926    4.330535    1.266298
     38          1           0       -4.781848   -0.454079    1.069203
     39          1           0       -4.703493   -0.308098    2.823399
     40          1           0       -3.702698    0.729922    1.807391
     41          1           0       -2.573963   -4.576743    2.198585
     42          6           0       -2.341256   -3.516389    2.099955
     43          8           0        0.006038   -3.850189    2.022879
     44          6           0       -0.973771   -3.105583    2.004682
     45          1           0        0.162574   -1.414321    1.813178
     46          7           0       -0.790235   -1.742953    1.883091
     47          8           0       -1.502880    0.408253    1.735902
     48          6           0       -1.764213   -0.776743    1.846189
     49          1           0       -4.368752   -2.857776    2.135709
     50          6           0       -3.313372   -2.597427    2.066900
     51          6           0       -4.132126   -0.255707    1.908592
     52          7           0       -3.057420   -1.251458    1.943459
     53          1           0       -5.585743    4.269521   -1.832513
     54          1           0       -4.244596    4.130468   -0.913776
     55          1           0       -5.716598    4.162295   -0.209305
     56          1           0       -3.591795   -2.859805   -1.320302
     57          1           0       -5.220229   -2.361059   -1.418088
     58          7           0       -4.255680   -2.111883   -1.324417
     59          6           0       -3.872810   -0.838487   -1.210144
     60          6           0       -4.218164    1.512341   -1.083511
     61          7           0       -2.915902    1.817396   -0.959108
     62          1           0       -1.100744    0.869307   -0.875852
     63          6           0       -2.174117    0.711733   -0.972232
     64          7           0       -2.555708   -0.564544   -1.086596
     65          1           0       -7.399953    2.041352   -1.303826
     66          6           0       -6.402531    1.603783   -1.252596
     67          7           0       -6.147899    0.319739   -1.316474
     68          6           0       -4.766476    0.247918   -1.210462
     69          6           0       -5.200488    3.854024   -1.008543
     70          7           0       -5.280898    2.384010   -1.111478
 ---------------------------------------------------------------------

 SCF Done:  E(RwB97XD) =  -2048.74847923     A.U. after   15 cycles

 The electronic state is 1-A.
 Alpha  occ. eigenvalues --  -19.25223 -19.21355 -19.20417 -14.52732 -14.51842
 Alpha  occ. eigenvalues --  -14.49149 -14.48750 -14.48203 -14.47197 -14.46547
 Alpha  occ. eigenvalues --  -14.46306 -14.45675 -14.45009 -14.44931 -14.42935
 Alpha  occ. eigenvalues --  -14.41896 -14.40931 -14.40923 -14.40810 -14.40444
 Alpha  occ. eigenvalues --  -10.44834 -10.40999 -10.40644 -10.39486 -10.38241
 Alpha  occ. eigenvalues --  -10.38014 -10.37628 -10.37398 -10.36444 -10.35628
 Alpha  occ. eigenvalues --  -10.34344 -10.34214 -10.34102 -10.33647 -10.33390
 Alpha  occ. eigenvalues --  -10.33077 -10.33044 -10.32943 -10.30946 -10.30696
 Alpha  occ. eigenvalues --  -10.30225 -10.28335 -10.27976  -1.18849  -1.15519
 Alpha  occ. eigenvalues --   -1.12993  -1.12380  -1.10870  -1.10483  -1.09987
 Alpha  occ. eigenvalues --   -1.08738  -1.08332  -1.05496  -1.05126  -1.01835
 Alpha  occ. eigenvalues --   -1.01310  -1.00614  -0.99440  -0.98375  -0.97510
 Alpha  occ. eigenvalues --   -0.96574  -0.96526  -0.92814  -0.90582  -0.88062
 Alpha  occ. eigenvalues --   -0.86228  -0.84032  -0.83561  -0.82998  -0.82439
 Alpha  occ. eigenvalues --   -0.81881  -0.78347  -0.77545  -0.75381  -0.74484
 Alpha  occ. eigenvalues --   -0.73375  -0.72847  -0.72763  -0.71003  -0.70858
 Alpha  occ. eigenvalues --   -0.67391  -0.67139  -0.66241  -0.65998  -0.64754
 Alpha  occ. eigenvalues --   -0.64180  -0.63456  -0.62705  -0.62443  -0.61548
 Alpha  occ. eigenvalues --   -0.61034  -0.60703  -0.60372  -0.59798  -0.59183
 Alpha  occ. eigenvalues --   -0.59004  -0.58051  -0.56751  -0.56445  -0.55761
 Alpha  occ. eigenvalues --   -0.55666  -0.55597  -0.55529  -0.54860  -0.54086
 Alpha  occ. eigenvalues --   -0.53892  -0.53551  -0.53304  -0.53176  -0.52806
 Alpha  occ. eigenvalues --   -0.52334  -0.51905  -0.51383  -0.50398  -0.50361
 Alpha  occ. eigenvalues --   -0.50007  -0.49868  -0.49666  -0.48991  -0.48796
 Alpha  occ. eigenvalues --   -0.48618  -0.48021  -0.47842  -0.47655  -0.47028
 Alpha  occ. eigenvalues --   -0.46705  -0.45671  -0.45284  -0.44435  -0.43437
 Alpha  occ. eigenvalues --   -0.41203  -0.41145  -0.38954  -0.38169  -0.38090
 Alpha  occ. eigenvalues --   -0.37332  -0.37150  -0.36741  -0.35376  -0.35212
 Alpha  occ. eigenvalues --   -0.35008  -0.33977  -0.33346  -0.33222  -0.32758
 Alpha  occ. eigenvalues --   -0.32400  -0.32386  -0.31750  -0.31397  -0.30601
 Alpha  occ. eigenvalues --   -0.30507  -0.30294  -0.26126  -0.25030
 Alpha virt. eigenvalues --    0.03273   0.03859   0.06383   0.08031   0.09082
 Alpha virt. eigenvalues --    0.09417   0.09879   0.10214   0.10937   0.11569
 Alpha virt. eigenvalues --    0.13338   0.14444   0.14651   0.14703   0.14984

 Mulliken charges:
               1
     1  N   -0.312176
     2  C    0.184607
     3  C    0.059577
     4  N   -0.261427
     5  C    0.144078
     6  H    0.027399
     7  N   -0.288777
     8  C    0.121955
     9  H    0.015595
    10  N   -0.274282
    11  C    0.259199
    12  C    0.087508
    13  N   -0.068869
    14  H    0.111262
    15  H    0.081103
    16  H    0.020310
    17  H    0.030566
    18  H    0.031986
    19  N   -0.308898
    20  C    0.250001
    21  C    0.181261
    22  N   -0.115684
    23  H    0.117452
    24  H    0.115914
    25  N   -0.307305
    26  C    0.231300
    27  N   -0.125748
    28  H    0.113155
    29  C    0.173067
    30  O   -0.320891
    31  C   -0.000547
    32  N   -0.231293
    33  C    0.123655
    34  H    0.020719
    35  H    0.027457
    36  H    0.029082
    37  H    0.024142
    38  H    0.064950
    39  H    0.057549
    40  H    0.076783
    41  H    0.027676
    42  C   -0.117113
    43  O   -0.260906
    44  C    0.174968
    45  H    0.134607
    46  N   -0.127790
    47  O   -0.345356
    48  C    0.353363
    49  H    0.042013
    50  C    0.164062
    51  C    0.034286
    52  N   -0.279228
    53  H    0.034854
    54  H    0.037927
    55  H    0.031248
    56  H    0.118795
    57  H    0.119895
    58  N   -0.061856
    59  C    0.071843
    60  C    0.249495
    61  N   -0.277313
    62  H    0.018633
    63  C    0.191287
    64  N   -0.310586
    65  H    0.040195
    66  C    0.139434
    67  N   -0.257776
    68  C    0.018628
    69  C    0.181246
    70  N   -0.312270
 Sum of Mulliken charges =  -0.00000

 Dipole moment (field-independent basis, Debye):
    X=             -8.5075    Y=              6.1945    Z=             -1.6245  Tot=             10.6484
 Quadrupole moment (field-independent basis, Debye-Ang):
   XX=           -165.9894   YY=           -216.0451   ZZ=           -252.8959
   XY=              6.3383   XZ=            -15.8753   YZ=              9.0857

 Normal termination of Gaussian 16 at Wed Jan 24 13:43:49 2018.
