 Gaussian 16, Revision A.03,
 Gaussian 16:  EM64L-G16RevA.03 25-Dec-2016

 ---------------------------------------
 #p wb97xd/cc-pvdz sp scf=(maxcycles=20)
 ---------------------------------------

 ------------------
 Base pair stacking
 ------------------
 Symbolic Z-matrix:
 Charge =  0 Multiplicity = 1

                         Standard orientation:
 ---------------------------------------------------------------------
 Center     Atomic      Atomic             Coordinates (Angstroms)
 Number     Number       Type             X           Y           Z
 ---------------------------------------------------------------------
      1          7           0        5.523465   -1.765639   -1.231169
      2          6           0        6.924970   -1.305462   -1.186024
      3          6           0        3.326992   -1.822398   -1.329102
      4          7           0        3.746454   -3.142783   -1.255897
      5          6           0        5.052956   -3.055737   -1.199834
      6          1           0        5.728904   -3.908799   -1.134050
      7          7           0        1.981010    0.109323   -1.469622
      8          6           0        3.118826    0.811056   -1.446403
      9          1           0        2.999286    1.892492   -1.496134
     10          7           0        4.376220    0.379510   -1.371347
     11          6           0        4.411087   -0.962137   -1.314826
     12          6           0        2.049738   -1.238615   -1.411298
     13          7           0        0.915046   -1.940848   -1.434346
     14          1           0        0.918405   -2.940599   -1.393269
     15          1           0        0.023418   -1.491789   -1.493425
     16          1           0        7.426129   -1.682018   -1.965268
     17          1           0        6.950181   -0.307006   -1.225751
     18          1           0        7.352243   -1.614448   -0.336347
     19          7           0        3.790028    2.732136    1.304286
     20          6           0        2.462457    2.382943    1.243751
     21          6           0        4.333475    4.074966    1.017665
     22          7           0       -0.849010    3.240990    0.643993
     23          1           0       -1.741774    2.791573    0.658965
     24          1           0       -0.832763    4.209590    0.394462
     25          7           0        1.439624    3.201306    0.914887
     26          6           0        0.276399    2.575514    0.944847
     27          7           0        0.124314    1.249771    1.271593
     28          1           0       -0.803559    0.854790    1.268448
     29          6           0        1.162593    0.388888    1.613248
     30          8           0        0.917514   -0.791438    1.891666
     31          6           0        2.418436    1.046878    1.585481
     32          7           0        3.692738    0.566938    1.855144
     33          6           0        4.471705    1.599078    1.675970
     34          1           0        5.554891    1.588844    1.801962
     35          1           0        4.979968    4.019468    0.257547
     36          1           0        3.584966    4.689844    0.772858
     37          1           0        4.801177    4.426965    1.827716
     38          1           0       -5.585607   -0.663250    0.443639
     39          1           0       -5.720723   -0.494403    2.192318
     40          1           0       -4.634620    0.559939    1.286730
     41          1           0       -3.416750   -4.707075    1.889386
     42          6           0       -3.202847   -3.641695    1.803048
     43          8           0       -0.854885   -3.908705    2.010243
     44          6           0       -1.845418   -3.192867    1.864593
     45          1           0       -0.740729   -1.471981    1.783790
     46          7           0       -1.685801   -1.827041    1.745050
     47          8           0       -2.434021    0.300879    1.481777
     48          6           0       -2.674335   -0.889764    1.578169
     49          1           0       -5.237306   -3.041326    1.587883
     50          6           0       -4.188714   -2.751538    1.640917
     51          6           0       -5.046109   -0.436385    1.351134
     52          7           0       -3.956545   -1.400321    1.528396
     53          1           0       -4.752390    4.221533   -2.127909
     54          1           0       -3.523910    4.051549   -1.067699
     55          1           0       -5.068297    4.002677   -0.541811
     56          1           0       -2.616088   -2.879112   -1.840523
     57          1           0       -4.236407   -2.411927   -2.098240
     58          7           0       -3.297375   -2.147830   -1.875318
     59          6           0       -2.969316   -0.876635   -1.635298
     60          6           0       -3.398334    1.451984   -1.400280
     61          7           0       -2.129340    1.777417   -1.103359
     62          1           0       -0.308309    0.867218   -0.866697
     63          6           0       -1.357845    0.692201   -1.099312
     64          7           0       -1.684533   -0.581837   -1.339456
     65          1           0       -6.547325    1.922391   -1.961307
     66          6           0       -5.549850    1.505075   -1.820496
     67          7           0       -5.250617    0.234313   -1.935814
     68          6           0       -3.889436    0.186843   -1.671864
     69          6           0       -4.453390    3.760511   -1.292419
     70          7           0       -4.476552    2.299270   -1.497987
 ---------------------------------------------------------------------

 SCF Done:  E(RwB97XD) =  -2048.73509458     A.U. after   15 cycles

 The electronic state is 1-A.
 Alpha  occ. eigenvalues --  -19.25431 -19.21630 -19.20274 -14.52894 -14.52119
 Alpha  occ. eigenvalues --  -14.48758 -14.48474 -14.48347 -14.47472 -14.46356
 Alpha  occ. eigenvalues --  -14.45834 -14.45240 -14.44613 -14.44391 -14.42508
 Alpha  occ. eigenvalues --  -14.41452 -14.41159 -14.40767 -14.40374 -14.40179
 Alpha  occ. eigenvalues --  -10.45090 -10.40545 -10.40372 -10.39762 -10.38369
 Alpha  occ. eigenvalues --  -10.37814 -10.37577 -10.37542 -10.35973 -10.35433
 Alpha  occ. eigenvalues --  -10.34591 -10.34511 -10.33839 -10.33823 -10.33119
 Alpha  occ. eigenvalues --  -10.32976 -10.32912 -10.32883 -10.30891 -10.30711
 Alpha  occ. eigenvalues --  -10.30607 -10.28337 -10.27576  -1.19122  -1.15586
 Alpha  occ. eigenvalues --   -1.12773  -1.12656  -1.11065  -1.10171  -1.09685
 Alpha  occ. eigenvalues --   -1.09002  -1.08010  -1.05271  -1.04946  -1.02109
 Alpha  occ. eigenvalues --   -1.01412  -1.00434  -0.98964  -0.98106  -0.97229
 Alpha  occ. eigenvalues --   -0.96740  -0.96163  -0.92643  -0.90781  -0.88041
 Alpha  occ. eigenvalues --   -0.86401  -0.83733  -0.83605  -0.83199  -0.82143
 Alpha  occ. eigenvalues --   -0.82085  -0.78588  -0.77425  -0.75362  -0.74134
 Alpha  occ. eigenvalues --   -0.73097  -0.72954  -0.72822  -0.70971  -0.70830
 Alpha  occ. eigenvalues --   -0.67322  -0.66776  -0.66244  -0.66159  -0.64752
 Alpha  occ. eigenvalues --   -0.64102  -0.63399  -0.62674  -0.62454  -0.61146
 Alpha  occ. eigenvalues --   -0.60932  -0.60593  -0.60515  -0.59751  -0.59338
 Alpha  occ. eigenvalues --   -0.59142  -0.57767  -0.56798  -0.56280  -0.56006
 Alpha  occ. eigenvalues --   -0.55808  -0.55749  -0.55465  -0.54619  -0.54425
 Alpha  occ. eigenvalues --   -0.53860  -0.53560  -0.53264  -0.53222  -0.52776
 Alpha  occ. eigenvalues --   -0.52500  -0.52000  -0.51591  -0.50645  -0.50041
 Alpha  occ. eigenvalues --   -0.49992  -0.49721  -0.49622  -0.48994  -0.48851
 Alpha  occ. eigenvalues --   -0.48433  -0.47976  -0.47843  -0.47151  -0.46991
 Alpha  occ. eigenvalues --   -0.46648  -0.45625  -0.45094  -0.44391  -0.43611
 Alpha  occ. eigenvalues --   -0.41333  -0.40916  -0.39187  -0.38131  -0.37989
 Alpha  occ. eigenvalues --   -0.37244  -0.36838  -0.36650  -0.35540  -0.35021
 Alpha  occ. eigenvalues --   -0.34685  -0.33479  -0.33407  -0.32792  -0.32512
 Alpha  occ. eigenvalues --   -0.32284  -0.32006  -0.31778  -0.31498  -0.30730
 Alpha  occ. eigenvalues --   -0.30403  -0.30277  -0.25759  -0.24605
 Alpha virt. eigenvalues --    0.02946   0.03958   0.06505   0.08077   0.08797
 Alpha virt. eigenvalues --    0.09504   0.09999   0.10332   0.11295   0.11849
 Alpha virt. eigenvalues --    0.12321   0.14000   0.14601   0.14985   0.15209

 Mulliken charges:
               1
     1  N   -0.314190
     2  C    0.182261
     3  C    0.048771
     4  N   -0.261966
     5  C    0.137785
     6  H    0.026229
     7  N   -0.295301
     8  C    0.140685
     9  H    0.012094
    10  N   -0.284105
    11  C    0.262083
    12  C    0.108248
    13  N   -0.059749
    14  H    0.108052
    15  H    0.081673
    16  H    0.023519
    17  H    0.030710
    18  H    0.028499
    19  N   -0.299601
    20  C    0.225758
    21  C    0.180511
    22  N   -0.077671
    23  H    0.110721
    24  H    0.109215
    25  N   -0.303099
    26  C    0.203823
    27  N   -0.148955
    28  H    0.123450
    29  C    0.185784
    30  O   -0.324600
    31  C   -0.011134
    32  N   -0.221974
    33  C    0.132608
    34  H    0.017845
    35  H    0.028980
    36  H    0.027283
    37  H    0.023399
    38  H    0.060259
    39  H    0.058572
    40  H    0.070419
    41  H    0.029298
    42  C   -0.114483
    43  O   -0.262706
    44  C    0.175523
    45  H    0.131912
    46  N   -0.125454
    47  O   -0.338968
    48  C    0.336734
    49  H    0.045015
    50  C    0.164817
    51  C    0.041771
    52  N   -0.284462
    53  H    0.037315
    54  H    0.032521
    55  H    0.031766
    56  H    0.120525
    57  H    0.117086
    58  N   -0.059385
    59  C    0.086222
    60  C    0.265820
    61  N   -0.294616
    62  H    0.060505
    63  C    0.155291
    64  N   -0.300412
    65  H    0.038822
    66  C    0.135991
    67  N   -0.261032
    68  C    0.020004
    69  C    0.180425
    70  N   -0.312738
 Sum of Mulliken charges =  -0.00000

 Dipole moment (field-independent basis, Debye):
    X=             -8.5895    Y=              5.7550    Z=             -2.9410  Tot=             10.7494
 Quadrupole moment (field-independent basis, Debye-Ang):
   XX=           -157.6942   YY=           -217.6865   ZZ=           -255.6507
   XY=              2.3282   XZ=             -5.0684   YZ=             10.3643

 Normal termination of Gaussian 16 at Wed Jan 24 16:02:43 2018.
