 Gaussian 16, Revision A.03,
 Gaussian 16:  EM64L-G16RevA.03 25-Dec-2016

 ---------------------------------------
 #p wb97xd/cc-pvdz sp scf=(maxcycles=20)
 ---------------------------------------

 ------------------
 Base pair stacking
 ------------------
 Symbolic Z-matrix:
 Charge =  0 Multiplicity = 1

                         Standard orientation:
 ---------------------------------------------------------------------
 Center     Atomic      Atomic             Coordinates (Angstroms)
 Number     Number       Type             X           Y           Z
 ---------------------------------------------------------------------
      1          7           0        4.916617   -2.107744   -1.585237
      2          6           0        6.312070   -1.726801   -1.877810
      3          6           0        2.728319   -2.084277   -1.365884
      4          7           0        3.148832   -3.331940   -0.928567
      5          6           0        4.450367   -3.296143   -1.078221
      6          1           0        5.125505   -4.116307   -0.832361
      7          7           0        1.383488   -0.233468   -1.939358
      8          6           0        2.515746    0.382241   -2.295011
      9          1           0        2.394523    1.396302   -2.673470
     10          7           0        3.769361   -0.064543   -2.253535
     11          6           0        3.806746   -1.318659   -1.773732
     12          6           0        1.454608   -1.494648   -1.460355
     13          7           0        0.325457   -2.110921   -1.104815
     14          1           0        0.330768   -3.044670   -0.745230
     15          1           0       -0.563782   -1.660530   -1.185703
     16          1           0        6.695927   -2.355729   -2.554034
     17          1           0        6.335225   -0.795270   -2.239518
     18          1           0        6.854565   -1.770402   -1.038896
     19          7           0        4.386917    2.879240    0.997300
     20          6           0        3.054852    2.562664    1.113227
     21          6           0        4.923210    4.227515    0.722977
     22          7           0       -0.280755    3.529098    1.075457
     23          1           0       -1.174941    3.098244    1.193985
     24          1           0       -0.271693    4.512391    0.891700
     25          7           0        2.020419    3.423160    0.996932
     26          6           0        0.855653    2.820933    1.158980
     27          7           0        0.712689    1.478792    1.415364
     28          1           0       -0.217186    1.104248    1.524917
     29          6           0        1.762976    0.574667    1.539110
     30          8           0        1.525440   -0.617103    1.771494
     31          6           0        3.020613    1.206940    1.367496
     32          7           0        4.305332    0.682950    1.410349
     33          6           0        5.080734    1.708901    1.185914
     34          1           0        6.169795    1.667454    1.147139
     35          1           0        5.447946    4.212656   -0.127448
     36          1           0        4.166091    4.873483    0.634852
     37          1           0        5.516402    4.511565    1.475481
     38          1           0       -5.113315   -0.252690    1.326564
     39          1           0       -4.982632   -0.205329    3.083074
     40          1           0       -4.010551    0.887875    2.097519
     41          1           0       -2.880447   -4.432567    2.156904
     42          6           0       -2.648809   -3.368392    2.110973
     43          8           0       -0.305470   -3.697742    1.945519
     44          6           0       -1.284015   -2.953121    1.998239
     45          1           0       -0.150757   -1.253974    1.868113
     46          7           0       -1.101665   -1.585846    1.947809
     47          8           0       -1.814421    0.570349    1.942692
     48          6           0       -2.074533   -0.618931    1.994110
     49          1           0       -4.673142   -2.712486    2.243901
     50          6           0       -3.619799   -2.448858    2.158419
     51          6           0       -4.438595   -0.101818    2.156052
     52          7           0       -3.365149   -1.098137    2.103059
     53          1           0       -5.359220    3.783139   -2.981019
     54          1           0       -3.993193    3.898547   -2.096286
     55          1           0       -5.447330    4.095589   -1.381630
     56          1           0       -3.231144   -2.954266   -0.712934
     57          1           0       -4.869831   -2.513893   -0.888692
     58          7           0       -3.907638   -2.239285   -0.889889
     59          6           0       -3.543893   -0.975529   -1.117439
     60          6           0       -3.926181    1.325215   -1.588790
     61          7           0       -2.626619    1.665126   -1.584332
     62          1           0       -0.793961    0.788690   -1.312601
     63          6           0       -1.866570    0.600808   -1.334422
     64          7           0       -2.228980   -0.665749   -1.106248
     65          1           0       -7.121104    1.747648   -1.846064
     66          6           0       -6.115358    1.348043   -1.712880
     67          7           0       -5.840451    0.093393   -1.452210
     68          6           0       -4.455760    0.065198   -1.371025
     69          6           0       -4.946291    3.597402   -2.089397
     70          7           0       -5.004063    2.149608   -1.809093
 ---------------------------------------------------------------------

 SCF Done:  E(RwB97XD) =  -2048.74765539     A.U. after   15 cycles

 The electronic state is 1-A.
 Alpha  occ. eigenvalues --  -19.25636 -19.21933 -19.20579 -14.52493 -14.52308
 Alpha  occ. eigenvalues --  -14.48906 -14.48622 -14.47909 -14.47596 -14.46895
 Alpha  occ. eigenvalues --  -14.46671 -14.45523 -14.44607 -14.44489 -14.42100
 Alpha  occ. eigenvalues --  -14.42069 -14.41028 -14.40519 -14.40388 -14.39938
 Alpha  occ. eigenvalues --  -10.45297 -10.41277 -10.40229 -10.40053 -10.38234
 Alpha  occ. eigenvalues --  -10.38083 -10.37970 -10.37324 -10.35946 -10.35053
 Alpha  occ. eigenvalues --  -10.34860 -10.34436 -10.33876 -10.33467 -10.33270
 Alpha  occ. eigenvalues --  -10.32843 -10.32660 -10.32601 -10.31119 -10.31049
 Alpha  occ. eigenvalues --  -10.30192 -10.28187 -10.27865  -1.19220  -1.15265
 Alpha  occ. eigenvalues --   -1.13215  -1.12931  -1.10660  -1.10524  -1.09609
 Alpha  occ. eigenvalues --   -1.09157  -1.08575  -1.05087  -1.04587  -1.02282
 Alpha  occ. eigenvalues --   -1.01072  -1.00021  -0.99753  -0.98590  -0.97097
 Alpha  occ. eigenvalues --   -0.96694  -0.96200  -0.92281  -0.91085  -0.87730
 Alpha  occ. eigenvalues --   -0.85953  -0.84207  -0.83407  -0.83221  -0.82600
 Alpha  occ. eigenvalues --   -0.81623  -0.78827  -0.77206  -0.74998  -0.74688
 Alpha  occ. eigenvalues --   -0.73662  -0.73204  -0.72373  -0.70632  -0.70451
 Alpha  occ. eigenvalues --   -0.67419  -0.67032  -0.66428  -0.65770  -0.64489
 Alpha  occ. eigenvalues --   -0.64386  -0.63774  -0.62675  -0.62203  -0.61802
 Alpha  occ. eigenvalues --   -0.60728  -0.60350  -0.60108  -0.59499  -0.59348
 Alpha  occ. eigenvalues --   -0.59270  -0.58375  -0.56721  -0.56101  -0.55883
 Alpha  occ. eigenvalues --   -0.55537  -0.55371  -0.55050  -0.54482  -0.54202
 Alpha  occ. eigenvalues --   -0.53780  -0.53654  -0.53533  -0.53079  -0.52976
 Alpha  occ. eigenvalues --   -0.52899  -0.52259  -0.51124  -0.50250  -0.50120
 Alpha  occ. eigenvalues --   -0.49978  -0.49596  -0.49440  -0.49285  -0.48849
 Alpha  occ. eigenvalues --   -0.48419  -0.48355  -0.48214  -0.47791  -0.47292
 Alpha  occ. eigenvalues --   -0.46355  -0.45722  -0.45435  -0.44288  -0.43669
 Alpha  occ. eigenvalues --   -0.40823  -0.40645  -0.39271  -0.37772  -0.37730
 Alpha  occ. eigenvalues --   -0.37348  -0.37336  -0.36488  -0.35714  -0.34960
 Alpha  occ. eigenvalues --   -0.34546  -0.34001  -0.33189  -0.32929  -0.32769
 Alpha  occ. eigenvalues --   -0.32687  -0.32552  -0.32142  -0.31922  -0.30295
 Alpha  occ. eigenvalues --   -0.30184  -0.29930  -0.25564  -0.25279
 Alpha virt. eigenvalues --    0.02556   0.04329   0.06616   0.08520   0.08878
 Alpha virt. eigenvalues --    0.09181   0.09740   0.10427   0.11380   0.11503
 Alpha virt. eigenvalues --    0.13283   0.14487   0.14710   0.14753   0.15072

 Mulliken charges:
               1
     1  N   -0.312662
     2  C    0.182868
     3  C    0.052704
     4  N   -0.256697
     5  C    0.141364
     6  H    0.025491
     7  N   -0.299551
     8  C    0.133505
     9  H    0.009322
    10  N   -0.286537
    11  C    0.259589
    12  C    0.100614
    13  N   -0.065881
    14  H    0.114217
    15  H    0.082582
    16  H    0.021651
    17  H    0.031036
    18  H    0.028222
    19  N   -0.311004
    20  C    0.252329
    21  C    0.180745
    22  N   -0.120620
    23  H    0.116418
    24  H    0.117108
    25  N   -0.311978
    26  C    0.247481
    27  N   -0.147870
    28  H    0.118724
    29  C    0.195961
    30  O   -0.321671
    31  C   -0.014810
    32  N   -0.228350
    33  C    0.128892
    34  H    0.022048
    35  H    0.028581
    36  H    0.029329
    37  H    0.024652
    38  H    0.060890
    39  H    0.059714
    40  H    0.074152
    41  H    0.028235
    42  C   -0.124826
    43  O   -0.262991
    44  C    0.171297
    45  H    0.132442
    46  N   -0.123824
    47  O   -0.346718
    48  C    0.346245
    49  H    0.043166
    50  C    0.166036
    51  C    0.036728
    52  N   -0.277325
    53  H    0.034455
    54  H    0.041183
    55  H    0.029097
    56  H    0.118062
    57  H    0.115360
    58  N   -0.058255
    59  C    0.091140
    60  C    0.254763
    61  N   -0.275065
    62  H    0.035648
    63  C    0.177063
    64  N   -0.315340
    65  H    0.039006
    66  C    0.139008
    67  N   -0.266258
    68  C    0.021877
    69  C    0.180155
    70  N   -0.312922
 Sum of Mulliken charges =  -0.00000

 Dipole moment (field-independent basis, Debye):
    X=             -8.6186    Y=              6.4643    Z=             -0.6255  Tot=             10.7916
 Quadrupole moment (field-independent basis, Debye-Ang):
   XX=           -163.4574   YY=           -214.7790   ZZ=           -250.8784
   XY=              4.1294   XZ=            -11.3654   YZ=              3.3874

 Normal termination of Gaussian 16 at Wed Jan 24 13:20:30 2018.
