 Gaussian 16, Revision A.03,
 Gaussian 16:  EM64L-G16RevA.03 25-Dec-2016

 ---------------------------------------
 #p wb97xd/cc-pvdz sp scf=(maxcycles=20)
 ---------------------------------------

 ------------------
 Base pair stacking
 ------------------
 Symbolic Z-matrix:
 Charge =  0 Multiplicity = 1

                         Standard orientation:
 ---------------------------------------------------------------------
 Center     Atomic      Atomic             Coordinates (Angstroms)
 Number     Number       Type             X           Y           Z
 ---------------------------------------------------------------------
      1          7           0       -6.965812   -1.397917    0.206463
      2          6           0       -8.341926   -0.867742    0.263502
      3          6           0       -4.787236   -1.628181    0.401607
      4          7           0       -5.247176   -2.787619   -0.205743
      5          6           0       -6.541283   -2.602489   -0.299002
      6          1           0       -7.240430   -3.318587   -0.731849
      7          7           0       -3.387380    0.008420    1.363316
      8          6           0       -4.493753    0.735478    1.550152
      9          1           0       -4.339429    1.703345    2.025206
     10          7           0       -5.756204    0.447813    1.239717
     11          6           0       -5.835057   -0.762184    0.661691
     12          6           0       -3.500052   -1.204519    0.779213
     13          7           0       -2.396800   -1.931763    0.591861
     14          1           0       -2.433093   -2.835266    0.163389
     15          1           0       -1.496861   -1.598472    0.873249
     16          1           0       -8.915815   -1.483764    0.803250
     17          1           0       -8.334026    0.036915    0.688561
     18          1           0       -8.712285   -0.795802   -0.662592
     19          7           0       -2.470717    2.641834   -1.703841
     20          6           0       -1.133485    2.390245   -1.512652
     21          6           0       -3.113860    3.966865   -1.597254
     22          7           0        2.064120    3.523662   -0.769377
     23          1           0        2.980505    3.135913   -0.673860
     24          1           0        1.970821    4.508860   -0.623148
     25          7           0       -0.189968    3.303876   -1.197823
     26          6           0        1.007238    2.757703   -1.079574
     27          7           0        1.263028    1.419406   -1.255746
     28          1           0        2.209691    1.089856   -1.145366
     29          6           0        0.307676    0.461253   -1.579976
     30          8           0        0.643566   -0.721639   -1.716588
     31          6           0       -0.983464    1.032969   -1.710357
     32          7           0       -2.201995    0.444300   -2.019451
     33          6           0       -3.052640    1.434437   -2.004190
     34          1           0       -4.120166    1.339122   -2.205660
     35          1           0       -3.813214    3.943329   -0.883709
     36          1           0       -2.424670    4.651755   -1.364402
     37          1           0       -3.537068    4.205040   -2.470746
     38          1           0        6.994709   -0.014916    0.172143
     39          1           0        7.255522   -0.010711   -1.570438
     40          1           0        6.041243    1.052519   -0.858799
     41          1           0        5.189895   -4.318073   -0.999186
     42          6           0        4.906844   -3.266161   -1.039015
     43          8           0        2.602283   -3.709333   -1.385004
     44          6           0        3.534049   -2.917743   -1.243635
     45          1           0        2.325911   -1.275346   -1.420506
     46          7           0        3.284542   -1.560606   -1.277712
     47          8           0        3.881910    0.628323   -1.183019
     48          6           0        4.199478   -0.547185   -1.138321
     49          1           0        6.878956   -2.512260   -0.742016
     50          6           0        5.822304   -2.300176   -0.899657
     51          6           0        6.515102    0.084596   -0.790220
     52          7           0        5.502022   -0.963095   -0.944374
     53          1           0        3.418217    3.106546    3.964825
     54          1           0        2.271119    3.438955    2.853155
     55          1           0        3.849150    3.499022    2.440457
     56          1           0        1.055466   -3.177349    0.803225
     57          1           0        2.666489   -2.950755    1.316424
     58          7           0        1.757953   -2.561617    1.160358
     59          6           0        1.495884   -1.278481    1.417386
     60          6           0        2.025944    0.927054    2.135961
     61          7           0        0.796672    1.422299    1.916727
     62          1           0       -1.031982    0.792866    1.238175
     63          6           0       -0.010889    0.474870    1.444377
     64          7           0        0.249698   -0.810836    1.186258
     65          1           0        5.136323    0.941675    3.017709
     66          6           0        4.138486    0.675960    2.667498
     67          7           0        3.785364   -0.518486    2.259697
     68          6           0        2.448191   -0.373125    1.919744
     69          6           0        3.169030    3.024956    2.999805
     70          7           0        3.123153    1.599810    2.619224
 ---------------------------------------------------------------------

 SCF Done:  E(RwB97XD) =  -2048.74602762     A.U. after   15 cycles

 The electronic state is 1-A.
 Alpha  occ. eigenvalues --  -19.26074 -19.22483 -19.20821 -14.52654 -14.51250
 Alpha  occ. eigenvalues --  -14.48992 -14.48861 -14.48170 -14.47201 -14.47150
 Alpha  occ. eigenvalues --  -14.46059 -14.44305 -14.42671 -14.42540 -14.42271
 Alpha  occ. eigenvalues --  -14.42122 -14.41645 -14.41068 -14.40905 -14.40268
 Alpha  occ. eigenvalues --  -10.45730 -10.41521 -10.40552 -10.38456 -10.38162
 Alpha  occ. eigenvalues --  -10.38080 -10.36861 -10.35743 -10.35541 -10.35498
 Alpha  occ. eigenvalues --  -10.34532 -10.34301 -10.34164 -10.33574 -10.33356
 Alpha  occ. eigenvalues --  -10.33241 -10.33077 -10.31333 -10.31220 -10.31161
 Alpha  occ. eigenvalues --  -10.30887 -10.28728 -10.28304  -1.19646  -1.13910
 Alpha  occ. eigenvalues --   -1.13519  -1.13437  -1.11572  -1.10731  -1.09551
 Alpha  occ. eigenvalues --   -1.08853  -1.07525  -1.05103  -1.03118  -1.02797
 Alpha  occ. eigenvalues --   -1.00507  -1.00143  -0.99668  -0.98736  -0.97133
 Alpha  occ. eigenvalues --   -0.96686  -0.95132  -0.92734  -0.91307  -0.86304
 Alpha  occ. eigenvalues --   -0.84757  -0.84261  -0.84136  -0.83918  -0.82590
 Alpha  occ. eigenvalues --   -0.82497  -0.79139  -0.75551  -0.74797  -0.73953
 Alpha  occ. eigenvalues --   -0.73656  -0.73266  -0.73037  -0.71208  -0.68924
 Alpha  occ. eigenvalues --   -0.67655  -0.66819  -0.66428  -0.65280  -0.64716
 Alpha  occ. eigenvalues --   -0.63970  -0.62925  -0.62869  -0.62620  -0.62023
 Alpha  occ. eigenvalues --   -0.60297  -0.59861  -0.59773  -0.59073  -0.58814
 Alpha  occ. eigenvalues --   -0.58627  -0.58177  -0.56732  -0.56612  -0.56593
 Alpha  occ. eigenvalues --   -0.56209  -0.55443  -0.54672  -0.54553  -0.54072
 Alpha  occ. eigenvalues --   -0.53856  -0.53609  -0.53123  -0.52733  -0.52589
 Alpha  occ. eigenvalues --   -0.52251  -0.51886  -0.51486  -0.50937  -0.50386
 Alpha  occ. eigenvalues --   -0.50331  -0.49729  -0.49257  -0.49166  -0.49022
 Alpha  occ. eigenvalues --   -0.48463  -0.48408  -0.47806  -0.47782  -0.47579
 Alpha  occ. eigenvalues --   -0.47113  -0.45356  -0.45215  -0.44335  -0.43083
 Alpha  occ. eigenvalues --   -0.41323  -0.39665  -0.39391  -0.37512  -0.37425
 Alpha  occ. eigenvalues --   -0.37334  -0.36335  -0.36188  -0.36049  -0.34689
 Alpha  occ. eigenvalues --   -0.33721  -0.33673  -0.33654  -0.33064  -0.32897
 Alpha  occ. eigenvalues --   -0.32548  -0.32507  -0.32297  -0.31996  -0.31135
 Alpha  occ. eigenvalues --   -0.30479  -0.28365  -0.25926  -0.25635
 Alpha virt. eigenvalues --    0.02712   0.05332   0.07815   0.08026   0.08495
 Alpha virt. eigenvalues --    0.09314   0.09511   0.10827   0.11421   0.12135
 Alpha virt. eigenvalues --    0.12677   0.13829   0.14539   0.14619   0.15825

 Mulliken charges:
               1
     1  N   -0.310937
     2  C    0.180783
     3  C    0.033544
     4  N   -0.257264
     5  C    0.132201
     6  H    0.026845
     7  N   -0.288997
     8  C    0.128197
     9  H    0.011794
    10  N   -0.289753
    11  C    0.236319
    12  C    0.119516
    13  N   -0.048679
    14  H    0.109114
    15  H    0.089728
    16  H    0.026260
    17  H    0.034757
    18  H    0.025135
    19  N   -0.310516
    20  C    0.245799
    21  C    0.181015
    22  N   -0.123880
    23  H    0.113886
    24  H    0.117459
    25  N   -0.304097
    26  C    0.242813
    27  N   -0.131050
    28  H    0.115882
    29  C    0.161865
    30  O   -0.321908
    31  C   -0.000583
    32  N   -0.222917
    33  C    0.131471
    34  H    0.029994
    35  H    0.031569
    36  H    0.028192
    37  H    0.024435
    38  H    0.060573
    39  H    0.060788
    40  H    0.072441
    41  H    0.031269
    42  C   -0.108915
    43  O   -0.277612
    44  C    0.152233
    45  H    0.138144
    46  N   -0.126881
    47  O   -0.352788
    48  C    0.362277
    49  H    0.049312
    50  C    0.182834
    51  C    0.041548
    52  N   -0.291813
    53  H    0.031552
    54  H    0.042515
    55  H    0.017802
    56  H    0.126666
    57  H    0.115531
    58  N   -0.041932
    59  C    0.100500
    60  C    0.240681
    61  N   -0.265795
    62  H    0.044143
    63  C    0.153983
    64  N   -0.299188
    65  H    0.027245
    66  C    0.129936
    67  N   -0.267962
    68  C    0.015462
    69  C    0.179326
    70  N   -0.311870
 Sum of Mulliken charges =  -0.00000

 Dipole moment (field-independent basis, Debye):
    X=              7.8231    Y=              6.0025    Z=              1.8051  Tot=             10.0244
 Quadrupole moment (field-independent basis, Debye-Ang):
   XX=           -143.2718   YY=           -222.1631   ZZ=           -250.5299
   XY=              5.9034   XZ=             13.8963   YZ=             -4.7716

 Normal termination of Gaussian 16 at Tue Jan 23 03:32:11 2018.
