 Gaussian 16, Revision A.03,
 Gaussian 16:  EM64L-G16RevA.03 25-Dec-2016

 ---------------------------------------
 #p wb97xd/cc-pvdz sp scf=(maxcycles=20)
 ---------------------------------------

 ------------------
 Base pair stacking
 ------------------
 Symbolic Z-matrix:
 Charge =  0 Multiplicity = 1

                         Standard orientation:
 ---------------------------------------------------------------------
 Center     Atomic      Atomic             Coordinates (Angstroms)
 Number     Number       Type             X           Y           Z
 ---------------------------------------------------------------------
      1          7           0        5.805329   -1.580257   -1.044486
      2          6           0        7.185036   -1.056527   -1.033383
      3          6           0        3.614672   -1.743011   -1.153343
      4          7           0        4.089810   -3.030391   -0.949311
      5          6           0        5.390589   -2.880820   -0.891893
      6          1           0        6.101877   -3.692904   -0.738561
      7          7           0        2.188374    0.104903   -1.490736
      8          6           0        3.294486    0.855081   -1.526899
      9          1           0        3.129003    1.920348   -1.682105
     10          7           0        4.568348    0.488665   -1.400709
     11          6           0        4.660402   -0.838421   -1.214176
     12          6           0        2.314486   -1.226784   -1.301539
     13          7           0        1.211515   -1.977306   -1.265148
     14          1           0        1.257521   -2.967312   -1.127348
     15          1           0        0.302107   -1.575814   -1.374325
     16          1           0        7.711236   -1.484045   -1.768594
     17          1           0        7.167614   -0.066431   -1.169481
     18          1           0        7.615084   -1.262945   -0.154495
     19          7           0        3.842970    2.297769    1.384995
     20          6           0        2.483773    2.117638    1.294510
     21          6           0        4.557591    3.558991    1.103318
     22          7           0       -0.678552    3.379489    0.609542
     23          1           0       -1.620892    3.045982    0.605696
     24          1           0       -0.534759    4.336044    0.354500
     25          7           0        1.579983    3.055005    0.935964
     26          6           0        0.346862    2.580662    0.941634
     27          7           0        0.021598    1.287573    1.272789
     28          1           0       -0.948282    1.012322    1.249636
     29          6           0        0.935062    0.306219    1.644765
     30          8           0        0.536999   -0.831355    1.924454
     31          6           0        2.264039    0.800884    1.643323
     32          7           0        3.461193    0.167107    1.946689
     33          6           0        4.367816    1.091488    1.780047
     34          1           0        5.437884    0.946383    1.932266
     35          1           0        5.209434    3.415714    0.359424
     36          1           0        3.898311    4.260778    0.836688
     37          1           0        5.046937    3.856830    1.922252
     38          1           0       -5.862893    0.099760    0.318775
     39          1           0       -6.016257    0.300269    2.062605
     40          1           0       -4.785370    1.201422    1.177055
     41          1           0       -4.254363   -4.171133    1.841500
     42          6           0       -3.906126   -3.141922    1.753779
     43          8           0       -1.615886   -3.699956    2.019365
     44          6           0       -2.504811   -2.866682    1.845375
     45          1           0       -1.190754   -1.299078    1.780695
     46          7           0       -2.171834   -1.532903    1.721302
     47          8           0       -2.640000    0.669674    1.426873
     48          6           0       -3.030413   -0.480395    1.524769
     49          1           0       -5.843314   -2.292648    1.485763
     50          6           0       -4.768100   -2.136451    1.562365
     51          6           0       -5.320356    0.265336    1.237639
     52          7           0       -4.365174   -0.826207    1.447144
     53          1           0       -4.707871    3.833457   -2.596178
     54          1           0       -3.485921    3.820892   -1.515072
     55          1           0       -5.032919    3.754933   -0.998813
     56          1           0       -2.270758   -3.105191   -1.605616
     57          1           0       -3.906535   -2.736954   -1.919840
     58          7           0       -2.982497   -2.411427   -1.716356
     59          6           0       -2.712472   -1.109782   -1.598135
     60          6           0       -3.244346    1.209453   -1.593197
     61          7           0       -1.994201    1.617653   -1.319463
     62          1           0       -0.138538    0.815734   -0.981714
     63          6           0       -1.176697    0.572971   -1.204340
     64          7           0       -1.445230   -0.731451   -1.322391
     65          1           0       -6.403789    1.484219   -2.221351
     66          6           0       -5.390983    1.126818   -2.033098
     67          7           0       -5.035845   -0.134705   -2.022423
     68          6           0       -3.677124   -0.096421   -1.744662
     69          6           0       -4.399228    3.468831   -1.717667
     70          7           0       -4.356878    1.994989   -1.780839
 ---------------------------------------------------------------------

 SCF Done:  E(RwB97XD) =  -2048.74663721     A.U. after   15 cycles

 The electronic state is 1-A.
 Alpha  occ. eigenvalues --  -19.25575 -19.21738 -19.20382 -14.52666 -14.52138
 Alpha  occ. eigenvalues --  -14.48762 -14.48325 -14.48322 -14.47544 -14.46538
 Alpha  occ. eigenvalues --  -14.45873 -14.45641 -14.44333 -14.44248 -14.42513
 Alpha  occ. eigenvalues --  -14.41658 -14.41367 -14.41123 -14.40535 -14.40359
 Alpha  occ. eigenvalues --  -10.45163 -10.40773 -10.40047 -10.39853 -10.38150
 Alpha  occ. eigenvalues --  -10.37923 -10.37538 -10.37294 -10.35701 -10.35562
 Alpha  occ. eigenvalues --  -10.34643 -10.34299 -10.34048 -10.33902 -10.33374
 Alpha  occ. eigenvalues --  -10.33202 -10.33002 -10.32745 -10.31087 -10.30858
 Alpha  occ. eigenvalues --  -10.30476 -10.28526 -10.27702  -1.19200  -1.15360
 Alpha  occ. eigenvalues --   -1.12898  -1.12762  -1.11325  -1.10235  -1.09359
 Alpha  occ. eigenvalues --   -1.09025  -1.08174  -1.05148  -1.04887  -1.02191
 Alpha  occ. eigenvalues --   -1.01179  -1.00607  -0.99204  -0.98234  -0.97069
 Alpha  occ. eigenvalues --   -0.96815  -0.96219  -0.92836  -0.90773  -0.87799
 Alpha  occ. eigenvalues --   -0.86165  -0.83988  -0.83695  -0.83272  -0.82388
 Alpha  occ. eigenvalues --   -0.82104  -0.78591  -0.77158  -0.75016  -0.74223
 Alpha  occ. eigenvalues --   -0.73250  -0.73051  -0.72999  -0.71163  -0.70559
 Alpha  occ. eigenvalues --   -0.67007  -0.66890  -0.66421  -0.66223  -0.64437
 Alpha  occ. eigenvalues --   -0.64158  -0.63437  -0.62855  -0.62461  -0.61300
 Alpha  occ. eigenvalues --   -0.60781  -0.60625  -0.60528  -0.59617  -0.59245
 Alpha  occ. eigenvalues --   -0.58955  -0.57859  -0.56858  -0.56554  -0.56173
 Alpha  occ. eigenvalues --   -0.55763  -0.55684  -0.55451  -0.54425  -0.54189
 Alpha  occ. eigenvalues --   -0.53919  -0.53532  -0.53303  -0.53234  -0.52717
 Alpha  occ. eigenvalues --   -0.52572  -0.52114  -0.51874  -0.50869  -0.50295
 Alpha  occ. eigenvalues --   -0.49885  -0.49785  -0.49220  -0.49022  -0.48809
 Alpha  occ. eigenvalues --   -0.48494  -0.48258  -0.47999  -0.47235  -0.47095
 Alpha  occ. eigenvalues --   -0.46982  -0.45587  -0.44797  -0.44739  -0.43560
 Alpha  occ. eigenvalues --   -0.41153  -0.40955  -0.39254  -0.37813  -0.37794
 Alpha  occ. eigenvalues --   -0.37365  -0.36968  -0.36847  -0.35927  -0.34663
 Alpha  occ. eigenvalues --   -0.34512  -0.33683  -0.33579  -0.33015  -0.32923
 Alpha  occ. eigenvalues --   -0.32406  -0.32215  -0.31945  -0.31611  -0.30958
 Alpha  occ. eigenvalues --   -0.30591  -0.29800  -0.25876  -0.24792
 Alpha virt. eigenvalues --    0.03349   0.03738   0.07040   0.07664   0.08735
 Alpha virt. eigenvalues --    0.09455   0.09979   0.10355   0.11140   0.11803
 Alpha virt. eigenvalues --    0.12754   0.14081   0.14246   0.14860   0.15140

 Mulliken charges:
               1
     1  N   -0.313980
     2  C    0.180507
     3  C    0.060612
     4  N   -0.260662
     5  C    0.136850
     6  H    0.026598
     7  N   -0.288928
     8  C    0.139014
     9  H    0.010511
    10  N   -0.288185
    11  C    0.249890
    12  C    0.104732
    13  N   -0.055060
    14  H    0.109347
    15  H    0.084022
    16  H    0.025708
    17  H    0.030079
    18  H    0.026785
    19  N   -0.294095
    20  C    0.229589
    21  C    0.180072
    22  N   -0.093125
    23  H    0.112373
    24  H    0.111428
    25  N   -0.302190
    26  C    0.210484
    27  N   -0.146213
    28  H    0.127550
    29  C    0.174714
    30  O   -0.323616
    31  C   -0.000307
    32  N   -0.223965
    33  C    0.130969
    34  H    0.016895
    35  H    0.029077
    36  H    0.026657
    37  H    0.022497
    38  H    0.064070
    39  H    0.058003
    40  H    0.067945
    41  H    0.027842
    42  C   -0.111395
    43  O   -0.266231
    44  C    0.169950
    45  H    0.131682
    46  N   -0.121241
    47  O   -0.337155
    48  C    0.334516
    49  H    0.046820
    50  C    0.168053
    51  C    0.034987
    52  N   -0.281432
    53  H    0.036264
    54  H    0.035375
    55  H    0.028106
    56  H    0.124920
    57  H    0.117444
    58  N   -0.059583
    59  C    0.087966
    60  C    0.253288
    61  N   -0.280830
    62  H    0.051688
    63  C    0.147652
    64  N   -0.298173
    65  H    0.036975
    66  C    0.126435
    67  N   -0.259880
    68  C    0.022380
    69  C    0.180616
    70  N   -0.303688
 Sum of Mulliken charges =  -0.00000

 Dipole moment (field-independent basis, Debye):
    X=             -7.5321    Y=              6.2452    Z=             -3.0840  Tot=             10.2590
 Quadrupole moment (field-independent basis, Debye-Ang):
   XX=           -150.7934   YY=           -222.9283   ZZ=           -256.2583
   XY=             -3.3836   XZ=             -0.0383   YZ=             10.5944

 Normal termination of Gaussian 16 at Mon Jan 22 20:09:13 2018.
