 Gaussian 16, Revision A.03,
 Gaussian 16:  EM64L-G16RevA.03 25-Dec-2016

 ---------------------------------------
 #p wb97xd/cc-pvdz sp scf=(maxcycles=20)
 ---------------------------------------

 ------------------
 Base pair stacking
 ------------------
 Symbolic Z-matrix:
 Charge =  0 Multiplicity = 1

                         Standard orientation:
 ---------------------------------------------------------------------
 Center     Atomic      Atomic             Coordinates (Angstroms)
 Number     Number       Type             X           Y           Z
 ---------------------------------------------------------------------
      1          7           0       -5.223616   -2.000079    1.307624
      2          6           0       -6.600161   -1.601205    1.659808
      3          6           0       -3.035471   -2.052208    1.091746
      4          7           0       -3.515025   -3.190272    0.459633
      5          6           0       -4.814103   -3.113312    0.614989
      6          1           0       -5.527832   -3.847994    0.241108
      7          7           0       -1.603468   -0.388293    1.954117
      8          6           0       -2.705803    0.218513    2.406017
      9          1           0       -2.536470    1.150949    2.942824
     10          7           0       -3.979933   -0.151816    2.294883
     11          6           0       -4.076889   -1.308775    1.619249
     12          6           0       -1.734473   -1.550622    1.278182
     13          7           0       -0.635266   -2.157848    0.826304
     14          1           0       -0.684944   -3.020018    0.320907
     15          1           0        0.274862   -1.771883    0.977460
     16          1           0       -7.019594   -2.310629    2.226351
     17          1           0       -6.579042   -0.740131    2.166970
     18          1           0       -7.138522   -1.481641    0.825620
     19          7           0       -4.430405    2.526951   -0.986420
     20          6           0       -3.066298    2.379312   -1.060275
     21          6           0       -5.136115    3.775210   -0.633543
     22          7           0        0.124039    3.722710   -0.779557
     23          1           0        1.067727    3.410977   -0.886912
     24          1           0       -0.011029    4.679136   -0.519345
     25          7           0       -2.148805    3.342021   -0.824776
     26          6           0       -0.914301    2.896042   -0.975488
     27          7           0       -0.600183    1.606330   -1.329676
     28          1           0        0.371751    1.353737   -1.421873
     29          6           0       -1.527821    0.599218   -1.576845
     30          8           0       -1.139017   -0.532662   -1.890528
     31          6           0       -2.858466    1.063255   -1.418871
     32          7           0       -4.067765    0.398053   -1.567165
     33          6           0       -4.969730    1.303603   -1.301386
     34          1           0       -6.046500    1.131892   -1.320495
     35          1           0       -5.688996    3.627310    0.185754
     36          1           0       -4.466657    4.495560   -0.456906
     37          1           0       -5.728500    4.050412   -1.389952
     38          1           0        5.383908    0.567079   -1.086909
     39          1           0        5.319207    0.746957   -2.838504
     40          1           0        4.183434    1.631783   -1.819453
     41          1           0        3.707100   -3.760195   -2.355588
     42          6           0        3.347057   -2.738135   -2.237323
     43          8           0        1.055853   -3.352167   -2.215752
     44          6           0        1.938691   -2.496405   -2.160480
     45          1           0        0.604308   -0.958604   -1.953269
     46          7           0        1.590761   -1.169027   -2.011312
     47          8           0        2.037251    1.047567   -1.800181
     48          6           0        2.440869   -0.094486   -1.932368
     49          1           0        5.281111   -1.841026   -2.216633
     50          6           0        4.201066   -1.710611   -2.163348
     51          6           0        4.729819    0.707480   -1.934555
     52          7           0        3.783228   -0.408484   -2.014200
     53          1           0        5.324887    3.062147    3.619853
     54          1           0        3.972335    3.387434    2.767284
     55          1           0        5.439285    3.623267    2.091630
     56          1           0        2.877167   -3.105704    0.298445
     57          1           0        4.534643   -2.782772    0.540516
     58          7           0        3.587430   -2.463685    0.587349
     59          6           0        3.285950   -1.236331    1.016184
     60          6           0        3.779871    0.936161    1.851696
     61          7           0        2.499034    1.337586    1.903975
     62          1           0        0.626625    0.610107    1.497172
     63          6           0        1.688297    0.367206    1.486874
     64          7           0        1.988323   -0.862737    1.056976
     65          1           0        6.990150    1.149620    2.169073
     66          6           0        5.966556    0.828039    1.974667
     67          7           0        5.630882   -0.352723    1.515553
     68          6           0        4.247101   -0.297469    1.432897
     69          6           0        4.909161    3.043550    2.710556
     70          7           0        4.896203    1.658762    2.200445
 ---------------------------------------------------------------------

 SCF Done:  E(RwB97XD) =  -2048.74283652     A.U. after   15 cycles

 The electronic state is 1-A.
 Alpha  occ. eigenvalues --  -19.25889 -19.22381 -19.20697 -14.52537 -14.52347
 Alpha  occ. eigenvalues --  -14.48943 -14.48086 -14.48057 -14.47851 -14.47016
 Alpha  occ. eigenvalues --  -14.46799 -14.45439 -14.44204 -14.44120 -14.42140
 Alpha  occ. eigenvalues --  -14.41811 -14.41106 -14.40605 -14.40477 -14.39905
 Alpha  occ. eigenvalues --  -10.45494 -10.41375 -10.40363 -10.39872 -10.38333
 Alpha  occ. eigenvalues --  -10.37935 -10.37830 -10.37082 -10.35653 -10.34963
 Alpha  occ. eigenvalues --  -10.34955 -10.34498 -10.33762 -10.33541 -10.33362
 Alpha  occ. eigenvalues --  -10.32749 -10.32667 -10.32593 -10.31140 -10.31046
 Alpha  occ. eigenvalues --  -10.30511 -10.28263 -10.27899  -1.19453  -1.15100
 Alpha  occ. eigenvalues --   -1.13335  -1.13305  -1.10731  -1.10631  -1.09499
 Alpha  occ. eigenvalues --   -1.09143  -1.08681  -1.04777  -1.04562  -1.02552
 Alpha  occ. eigenvalues --   -1.00920  -0.99951  -0.99866  -0.98675  -0.96801
 Alpha  occ. eigenvalues --   -0.96751  -0.96267  -0.92249  -0.91166  -0.87520
 Alpha  occ. eigenvalues --   -0.85790  -0.84268  -0.83566  -0.83347  -0.82642
 Alpha  occ. eigenvalues --   -0.81769  -0.78998  -0.76970  -0.74777  -0.74727
 Alpha  occ. eigenvalues --   -0.73773  -0.73422  -0.72373  -0.70549  -0.70336
 Alpha  occ. eigenvalues --   -0.67526  -0.66839  -0.66527  -0.65766  -0.64618
 Alpha  occ. eigenvalues --   -0.64209  -0.63867  -0.62780  -0.62196  -0.61906
 Alpha  occ. eigenvalues --   -0.60582  -0.60319  -0.60122  -0.59547  -0.59238
 Alpha  occ. eigenvalues --   -0.59178  -0.58497  -0.56755  -0.56106  -0.56056
 Alpha  occ. eigenvalues --   -0.55790  -0.55227  -0.54936  -0.54484  -0.54002
 Alpha  occ. eigenvalues --   -0.53780  -0.53708  -0.53536  -0.53377  -0.53117
 Alpha  occ. eigenvalues --   -0.52708  -0.52412  -0.51268  -0.50344  -0.50218
 Alpha  occ. eigenvalues --   -0.49909  -0.49596  -0.49547  -0.49051  -0.48980
 Alpha  occ. eigenvalues --   -0.48769  -0.48530  -0.48341  -0.47826  -0.47454
 Alpha  occ. eigenvalues --   -0.46444  -0.45865  -0.45434  -0.44344  -0.43382
 Alpha  occ. eigenvalues --   -0.40633  -0.40594  -0.39472  -0.37642  -0.37491
 Alpha  occ. eigenvalues --   -0.37418  -0.37413  -0.36587  -0.36069  -0.34630
 Alpha  occ. eigenvalues --   -0.34273  -0.34031  -0.33500  -0.32967  -0.32841
 Alpha  occ. eigenvalues --   -0.32832  -0.32682  -0.32516  -0.32012  -0.30372
 Alpha  occ. eigenvalues --   -0.29995  -0.29274  -0.25677  -0.25173
 Alpha virt. eigenvalues --    0.02699   0.04185   0.06918   0.08345   0.08669
 Alpha virt. eigenvalues --    0.09191   0.09638   0.10533   0.11508   0.11871
 Alpha virt. eigenvalues --    0.13127   0.14269   0.14634   0.14902   0.14946

 Mulliken charges:
               1
     1  N   -0.311750
     2  C    0.181081
     3  C    0.056625
     4  N   -0.256566
     5  C    0.141154
     6  H    0.024983
     7  N   -0.298915
     8  C    0.133434
     9  H    0.009356
    10  N   -0.290490
    11  C    0.250791
    12  C    0.098372
    13  N   -0.054299
    14  H    0.115556
    15  H    0.082964
    16  H    0.023719
    17  H    0.030656
    18  H    0.024423
    19  N   -0.310134
    20  C    0.255654
    21  C    0.180917
    22  N   -0.122418
    23  H    0.116732
    24  H    0.118055
    25  N   -0.311742
    26  C    0.248107
    27  N   -0.149901
    28  H    0.120165
    29  C    0.195933
    30  O   -0.321798
    31  C   -0.016396
    32  N   -0.225481
    33  C    0.128152
    34  H    0.020786
    35  H    0.029422
    36  H    0.029486
    37  H    0.024269
    38  H    0.063793
    39  H    0.059323
    40  H    0.073325
    41  H    0.025024
    42  C   -0.123600
    43  O   -0.267875
    44  C    0.160242
    45  H    0.130668
    46  N   -0.112221
    47  O   -0.343867
    48  C    0.337646
    49  H    0.045762
    50  C    0.171246
    51  C    0.037456
    52  N   -0.274854
    53  H    0.034004
    54  H    0.041736
    55  H    0.027695
    56  H    0.126447
    57  H    0.112971
    58  N   -0.046158
    59  C    0.086921
    60  C    0.249588
    61  N   -0.274693
    62  H    0.034878
    63  C    0.171580
    64  N   -0.311558
    65  H    0.037221
    66  C    0.134735
    67  N   -0.265412
    68  C    0.015725
    69  C    0.180792
    70  N   -0.309439
 Sum of Mulliken charges =  -0.00000

 Dipole moment (field-independent basis, Debye):
    X=              7.8047    Y=              6.9435    Z=              1.3009  Tot=             10.5270
 Quadrupole moment (field-independent basis, Debye-Ang):
   XX=           -154.8493   YY=           -220.1873   ZZ=           -252.6741
   XY=              0.8296   XZ=             -6.2750   YZ=             -2.6590

 Normal termination of Gaussian 16 at Tue Jan 23 02:09:59 2018.
