 Gaussian 16, Revision A.03,
 Gaussian 16:  EM64L-G16RevA.03 25-Dec-2016

 ---------------------------------------
 #p wb97xd/cc-pvdz sp scf=(maxcycles=20)
 ---------------------------------------

 ------------------
 Base pair stacking
 ------------------
 Symbolic Z-matrix:
 Charge =  0 Multiplicity = 1

                         Standard orientation:
 ---------------------------------------------------------------------
 Center     Atomic      Atomic             Coordinates (Angstroms)
 Number     Number       Type             X           Y           Z
 ---------------------------------------------------------------------
      1          7           0        4.577455   -1.755710   -1.768751
      2          6           0        5.960062   -1.285994   -1.982640
      3          6           0        2.390207   -1.838045   -1.553144
      4          7           0        2.848733   -3.132293   -1.354674
      5          6           0        4.148113   -3.030897   -1.492509
      6          1           0        4.847925   -3.862193   -1.402153
      7          7           0        0.989578    0.046610   -1.775032
      8          6           0        2.101987    0.750857   -2.007750
      9          1           0        1.949696    1.813587   -2.191255
     10          7           0        3.368329    0.341364   -2.047643
     11          6           0        3.444227   -0.978443   -1.809383
     12          6           0        1.099402   -1.278983   -1.538801
     13          7           0       -0.009882   -1.983681   -1.306283
     14          1           0        0.024130   -2.967437   -1.126625
     15          1           0       -0.912243   -1.552541   -1.303754
     16          1           0        6.359817   -1.766596   -2.763285
     17          1           0        5.954577   -0.303168   -2.164738
     18          1           0        6.506609   -1.468799   -1.165413
     19          7           0        5.073975    2.142686    0.844053
     20          6           0        3.709896    2.010786    0.943673
     21          6           0        5.788448    3.389157    0.502646
     22          7           0        0.532258    3.400115    0.758962
     23          1           0       -0.412980    3.098144    0.879717
     24          1           0        0.674377    4.360088    0.516129
     25          7           0        2.800376    2.989824    0.747980
     26          6           0        1.563551    2.556394    0.915404
     27          7           0        1.240051    1.263490    1.248967
     28          1           0        0.267029    1.021324    1.356408
     29          6           0        2.159388    0.239697    1.455171
     30          8           0        1.762434   -0.893608    1.753139
     31          6           0        3.492397    0.690111    1.278830
     32          7           0        4.695715    0.006648    1.387434
     33          6           0        5.603707    0.906182    1.121712
     34          1           0        6.678301    0.720494    1.114376
     35          1           0        6.322072    3.251759   -0.331125
     36          1           0        5.124935    4.121519    0.355426
     37          1           0        6.400080    3.640657    1.251941
     38          1           0       -4.760908    0.305466    1.111261
     39          1           0       -4.657235    0.447150    2.864493
     40          1           0       -3.531531    1.339043    1.840438
     41          1           0       -3.114764   -4.068734    2.252795
     42          6           0       -2.743908   -3.049027    2.148465
     43          8           0       -0.461903   -3.691403    2.065418
     44          6           0       -1.334417   -2.823556    2.046885
     45          1           0        0.015367   -1.298699    1.843844
     46          7           0       -0.972324   -1.497796    1.918346
     47          8           0       -1.394062    0.728259    1.763400
     48          6           0       -1.809751   -0.411151    1.880056
     49          1           0       -4.666053   -2.127273    2.187645
     50          6           0       -3.585748   -2.009429    2.114234
     51          6           0       -4.087444    0.419475    1.947626
     52          7           0       -3.154097   -0.709820    1.983691
     53          1           0       -5.871837    3.986084   -2.064712
     54          1           0       -4.506648    3.975220   -1.171280
     55          1           0       -5.963379    3.992921   -0.435297
     56          1           0       -3.538771   -2.989776   -1.085060
     57          1           0       -5.190300   -2.572967   -1.179052
     58          7           0       -4.236596   -2.274648   -1.127266
     59          6           0       -3.910925   -0.980450   -1.115113
     60          6           0       -4.362288    1.355518   -1.151099
     61          7           0       -3.073253    1.726878   -1.080954
     62          1           0       -1.214697    0.869680   -0.973370
     63          6           0       -2.281400    0.657559   -1.031858
     64          7           0       -2.605653   -0.639477   -1.043921
     65          1           0       -7.569135    1.723937   -1.331576
     66          6           0       -6.551615    1.336402   -1.273053
     67          7           0       -6.239062    0.063832   -1.249734
     68          6           0       -4.853868    0.061911   -1.172505
     69          6           0       -5.450448    3.650040   -1.222387
     70          7           0       -5.464691    2.174323   -1.216345
 ---------------------------------------------------------------------

 SCF Done:  E(RwB97XD) =  -2048.74934751     A.U. after   15 cycles

 The electronic state is 1-A.
 Alpha  occ. eigenvalues --  -19.25316 -19.21438 -19.20506 -14.52750 -14.51818
 Alpha  occ. eigenvalues --  -14.48929 -14.48861 -14.48239 -14.47238 -14.46691
 Alpha  occ. eigenvalues --  -14.46568 -14.45683 -14.44925 -14.44773 -14.42820
 Alpha  occ. eigenvalues --  -14.42000 -14.41213 -14.40966 -14.40890 -14.40528
 Alpha  occ. eigenvalues --  -10.44883 -10.41159 -10.40538 -10.39563 -10.38244
 Alpha  occ. eigenvalues --  -10.38143 -10.37588 -10.37384 -10.36330 -10.35646
 Alpha  occ. eigenvalues --  -10.34394 -10.34184 -10.34076 -10.33639 -10.33628
 Alpha  occ. eigenvalues --  -10.33114 -10.33079 -10.33044 -10.31064 -10.30627
 Alpha  occ. eigenvalues --  -10.30401 -10.28375 -10.28155  -1.18888  -1.15538
 Alpha  occ. eigenvalues --   -1.13132  -1.12462  -1.10896  -1.10656  -1.09886
 Alpha  occ. eigenvalues --   -1.08732  -1.08476  -1.05354  -1.05166  -1.01873
 Alpha  occ. eigenvalues --   -1.01289  -1.00624  -0.99644  -0.98526  -0.97413
 Alpha  occ. eigenvalues --   -0.96709  -0.96578  -0.92871  -0.90550  -0.88043
 Alpha  occ. eigenvalues --   -0.86194  -0.84208  -0.83627  -0.82962  -0.82586
 Alpha  occ. eigenvalues --   -0.81973  -0.78351  -0.77470  -0.75289  -0.74651
 Alpha  occ. eigenvalues --   -0.73560  -0.72858  -0.72788  -0.71017  -0.70813
 Alpha  occ. eigenvalues --   -0.67353  -0.67251  -0.66250  -0.66021  -0.64651
 Alpha  occ. eigenvalues --   -0.64298  -0.63504  -0.62714  -0.62559  -0.61757
 Alpha  occ. eigenvalues --   -0.61011  -0.60694  -0.60513  -0.59753  -0.59126
 Alpha  occ. eigenvalues --   -0.58941  -0.58277  -0.56869  -0.56513  -0.55763
 Alpha  occ. eigenvalues --   -0.55740  -0.55639  -0.55486  -0.54768  -0.54091
 Alpha  occ. eigenvalues --   -0.53919  -0.53638  -0.53345  -0.53151  -0.52943
 Alpha  occ. eigenvalues --   -0.52180  -0.51840  -0.51473  -0.50433  -0.50360
 Alpha  occ. eigenvalues --   -0.50118  -0.49949  -0.49641  -0.49083  -0.48834
 Alpha  occ. eigenvalues --   -0.48771  -0.48148  -0.47939  -0.47843  -0.47102
 Alpha  occ. eigenvalues --   -0.46786  -0.45668  -0.45481  -0.44639  -0.43148
 Alpha  occ. eigenvalues --   -0.41244  -0.41072  -0.39020  -0.38140  -0.38024
 Alpha  occ. eigenvalues --   -0.37346  -0.37273  -0.36984  -0.35455  -0.35212
 Alpha  occ. eigenvalues --   -0.34829  -0.34082  -0.33403  -0.33334  -0.32880
 Alpha  occ. eigenvalues --   -0.32511  -0.32486  -0.31861  -0.31432  -0.30610
 Alpha  occ. eigenvalues --   -0.30451  -0.30344  -0.25999  -0.25373
 Alpha virt. eigenvalues --    0.03540   0.03587   0.06346   0.07997   0.08963
 Alpha virt. eigenvalues --    0.09266   0.09786   0.10217   0.10920   0.11881
 Alpha virt. eigenvalues --    0.13305   0.14230   0.14501   0.14602   0.14723

 Mulliken charges:
               1
     1  N   -0.308197
     2  C    0.181203
     3  C    0.060267
     4  N   -0.259511
     5  C    0.147519
     6  H    0.027662
     7  N   -0.290167
     8  C    0.123483
     9  H    0.013455
    10  N   -0.276421
    11  C    0.250577
    12  C    0.084547
    13  N   -0.065541
    14  H    0.113920
    15  H    0.082511
    16  H    0.022654
    17  H    0.028575
    18  H    0.029673
    19  N   -0.307887
    20  C    0.263273
    21  C    0.182412
    22  N   -0.121198
    23  H    0.121621
    24  H    0.117399
    25  N   -0.307718
    26  C    0.233881
    27  N   -0.129898
    28  H    0.116930
    29  C    0.178537
    30  O   -0.320854
    31  C   -0.010369
    32  N   -0.229921
    33  C    0.117595
    34  H    0.020789
    35  H    0.026435
    36  H    0.030155
    37  H    0.024185
    38  H    0.069420
    39  H    0.056429
    40  H    0.075657
    41  H    0.024617
    42  C   -0.117121
    43  O   -0.264967
    44  C    0.173261
    45  H    0.132737
    46  N   -0.125708
    47  O   -0.347323
    48  C    0.350410
    49  H    0.042533
    50  C    0.167249
    51  C    0.036889
    52  N   -0.277103
    53  H    0.034770
    54  H    0.039927
    55  H    0.030220
    56  H    0.120021
    57  H    0.118797
    58  N   -0.061540
    59  C    0.090242
    60  C    0.229013
    61  N   -0.266999
    62  H    0.022698
    63  C    0.179797
    64  N   -0.311775
    65  H    0.039977
    66  C    0.135493
    67  N   -0.254293
    68  C    0.009206
    69  C    0.181344
    70  N   -0.305451
 Sum of Mulliken charges =  -0.00000

 Dipole moment (field-independent basis, Debye):
    X=             -7.6673    Y=              6.9858    Z=             -1.5535  Tot=             10.4882
 Quadrupole moment (field-independent basis, Debye-Ang):
   XX=           -159.0999   YY=           -221.8913   ZZ=           -253.3864
   XY=              3.0434   XZ=            -14.6537   YZ=             10.4041

 Normal termination of Gaussian 16 at Tue Jan 23 11:41:59 2018.
