 Gaussian 16, Revision A.03,
 Gaussian 16:  EM64L-G16RevA.03 25-Dec-2016

 ---------------------------------------
 #p wb97xd/cc-pvdz sp scf=(maxcycles=20)
 ---------------------------------------

 ------------------
 Base pair stacking
 ------------------
 Symbolic Z-matrix:
 Charge =  0 Multiplicity = 1

                         Standard orientation:
 ---------------------------------------------------------------------
 Center     Atomic      Atomic             Coordinates (Angstroms)
 Number     Number       Type             X           Y           Z
 ---------------------------------------------------------------------
      1          7           0        4.889762   -1.884953   -1.593271
      2          6           0        6.268385   -1.442258   -1.878621
      3          6           0        2.702829   -1.953028   -1.369637
      4          7           0        3.173190   -3.193712   -0.964406
      5          6           0        4.471914   -3.103039   -1.115357
      6          1           0        5.179392   -3.901911   -0.891257
      7          7           0        1.284828   -0.142796   -1.894288
      8          6           0        2.391065    0.525627   -2.236365
      9          1           0        2.229096    1.543268   -2.589117
     10          7           0        3.661375    0.127597   -2.208242
     11          6           0        3.749263   -1.135664   -1.760050
     12          6           0        1.406698   -1.411763   -1.447127
     13          7           0        0.303595   -2.080632   -1.105175
     14          1           0        0.346531   -3.022128   -0.769088
     15          1           0       -0.602862   -1.663673   -1.173237
     16          1           0        6.674823   -2.038548   -2.571039
     17          1           0        6.253980   -0.501802   -2.216933
     18          1           0        6.814446   -1.485404   -1.041996
     19          7           0        4.769022    2.302968    0.950562
     20          6           0        3.404486    2.167832    1.038906
     21          6           0        5.483381    3.551472    0.616463
     22          7           0        0.225274    3.550136    0.829973
     23          1           0       -0.720219    3.245862    0.942670
     24          1           0        0.367169    4.510729    0.589454
     25          7           0        2.494341    3.145038    0.836978
     26          6           0        1.257199    2.708584    0.993808
     27          7           0        0.933941    1.414543    1.323170
     28          1           0       -0.039366    1.170021    1.422393
     29          6           0        1.853914    0.392600    1.535640
     30          8           0        1.457143   -0.741967    1.829005
     31          6           0        3.187279    0.846264    1.370706
     32          7           0        4.391239    0.165415    1.488293
     33          6           0        5.299306    1.067339    1.231049
     34          1           0        6.374336    0.884110    1.232240
     35          1           0        6.024102    3.416314   -0.213091
     36          1           0        4.819424    4.282493    0.464726
     37          1           0        6.088327    3.803462    1.371017
     38          1           0       -5.063487    0.443011    1.135441
     39          1           0       -4.974408    0.582793    2.889630
     40          1           0       -3.842455    1.478493    1.875856
     41          1           0       -3.416674   -3.928813    2.285129
     42          6           0       -3.047314   -2.908135    2.185033
     43          8           0       -0.763238   -3.545207    2.119820
     44          6           0       -1.637563   -2.679327    2.095220
     45          1           0       -0.289669   -1.151150    1.904993
     46          7           0       -1.277469   -1.352595    1.971207
     47          8           0       -1.703035    0.872679    1.815495
     48          6           0       -2.117050   -0.267818    1.927393
     49          1           0       -4.971824   -1.990818    2.209664
     50          6           0       -3.891230   -1.870430    2.145194
     51          6           0       -4.397114    0.557532    1.977405
     52          7           0       -3.461512   -0.569672    2.019718
     53          1           0       -5.613184    3.630319   -2.823483
     54          1           0       -4.250355    3.777242   -1.938490
     55          1           0       -5.709168    3.899063   -1.216619
     56          1           0       -3.216089   -3.072681   -0.728410
     57          1           0       -4.871266   -2.692838   -0.890267
     58          7           0       -3.920603   -2.380663   -0.886241
     59          6           0       -3.607377   -1.098302   -1.082720
     60          6           0       -4.080987    1.196672   -1.495678
     61          7           0       -2.795763    1.587205   -1.484949
     62          1           0       -0.929375    0.777005   -1.238390
     63          6           0       -1.993836    0.547698   -1.263070
     64          7           0       -2.305620   -0.737432   -1.066043
     65          1           0       -7.290710    1.499444   -1.736808
     66          6           0       -6.269693    1.136495   -1.615391
     67          7           0       -5.945033   -0.112487   -1.386672
     68          6           0       -4.560099   -0.088230   -1.308608
     69          6           0       -5.190865    3.438775   -1.937505
     70          7           0       -5.190999    1.983286   -1.693427
 ---------------------------------------------------------------------

 SCF Done:  E(RwB97XD) =  -2048.74978331     A.U. after   15 cycles

 The electronic state is 1-A.
 Alpha  occ. eigenvalues --  -19.25580 -19.21812 -19.20566 -14.52595 -14.52205
 Alpha  occ. eigenvalues --  -14.48916 -14.48489 -14.48112 -14.47483 -14.46839
 Alpha  occ. eigenvalues --  -14.46649 -14.45596 -14.44586 -14.44485 -14.42306
 Alpha  occ. eigenvalues --  -14.42049 -14.41138 -14.40711 -14.40688 -14.40206
 Alpha  occ. eigenvalues --  -10.45189 -10.41254 -10.40237 -10.39909 -10.38221
 Alpha  occ. eigenvalues --  -10.38145 -10.37682 -10.37389 -10.36040 -10.35292
 Alpha  occ. eigenvalues --  -10.34690 -10.34448 -10.33960 -10.33569 -10.33471
 Alpha  occ. eigenvalues --  -10.32910 -10.32866 -10.32858 -10.31032 -10.30848
 Alpha  occ. eigenvalues --  -10.30473 -10.28203 -10.28106  -1.19150  -1.15360
 Alpha  occ. eigenvalues --   -1.13197  -1.12812  -1.10732  -1.10670  -1.09610
 Alpha  occ. eigenvalues --   -1.09037  -1.08555  -1.05071  -1.04840  -1.02166
 Alpha  occ. eigenvalues --   -1.01141  -1.00258  -0.99730  -0.98581  -0.97119
 Alpha  occ. eigenvalues --   -0.96710  -0.96404  -0.92540  -0.90855  -0.87799
 Alpha  occ. eigenvalues --   -0.86027  -0.84220  -0.83460  -0.83284  -0.82597
 Alpha  occ. eigenvalues --   -0.81868  -0.78663  -0.77246  -0.75036  -0.74693
 Alpha  occ. eigenvalues --   -0.73642  -0.73072  -0.72587  -0.70759  -0.70584
 Alpha  occ. eigenvalues --   -0.67415  -0.67031  -0.66290  -0.65986  -0.64437
 Alpha  occ. eigenvalues --   -0.64397  -0.63702  -0.62653  -0.62433  -0.61811
 Alpha  occ. eigenvalues --   -0.60779  -0.60511  -0.60325  -0.59499  -0.59324
 Alpha  occ. eigenvalues --   -0.59102  -0.58361  -0.56758  -0.56297  -0.55831
 Alpha  occ. eigenvalues --   -0.55759  -0.55475  -0.55227  -0.54431  -0.54129
 Alpha  occ. eigenvalues --   -0.53802  -0.53602  -0.53536  -0.53044  -0.52982
 Alpha  occ. eigenvalues --   -0.52893  -0.52134  -0.51361  -0.50359  -0.50203
 Alpha  occ. eigenvalues --   -0.50120  -0.49780  -0.49376  -0.49275  -0.48846
 Alpha  occ. eigenvalues --   -0.48604  -0.48390  -0.48283  -0.47802  -0.47250
 Alpha  occ. eigenvalues --   -0.46593  -0.45775  -0.45427  -0.44451  -0.43264
 Alpha  occ. eigenvalues --   -0.40899  -0.40865  -0.39210  -0.37857  -0.37787
 Alpha  occ. eigenvalues --   -0.37378  -0.37329  -0.36747  -0.35745  -0.34963
 Alpha  occ. eigenvalues --   -0.34533  -0.34017  -0.33209  -0.33141  -0.32868
 Alpha  occ. eigenvalues --   -0.32708  -0.32565  -0.32144  -0.31915  -0.30502
 Alpha  occ. eigenvalues --   -0.30209  -0.29855  -0.25623  -0.25481
 Alpha virt. eigenvalues --    0.03016   0.03964   0.06481   0.08295   0.09028
 Alpha virt. eigenvalues --    0.09215   0.09712   0.10338   0.11249   0.11830
 Alpha virt. eigenvalues --    0.13142   0.14260   0.14632   0.14700   0.14850

 Mulliken charges:
               1
     1  N   -0.310220
     2  C    0.181299
     3  C    0.056355
     4  N   -0.257869
     5  C    0.144650
     6  H    0.026244
     7  N   -0.295386
     8  C    0.131099
     9  H    0.010579
    10  N   -0.285404
    11  C    0.253359
    12  C    0.091855
    13  N   -0.060677
    14  H    0.114901
    15  H    0.083585
    16  H    0.023193
    17  H    0.029315
    18  H    0.026806
    19  N   -0.308600
    20  C    0.259233
    21  C    0.181528
    22  N   -0.122902
    23  H    0.118740
    24  H    0.117634
    25  N   -0.311923
    26  C    0.247922
    27  N   -0.142988
    28  H    0.117016
    29  C    0.190941
    30  O   -0.321770
    31  C   -0.015800
    32  N   -0.227888
    33  C    0.123026
    34  H    0.020334
    35  H    0.028261
    36  H    0.029731
    37  H    0.024083
    38  H    0.066065
    39  H    0.058901
    40  H    0.074740
    41  H    0.024233
    42  C   -0.119866
    43  O   -0.266755
    44  C    0.170549
    45  H    0.131157
    46  N   -0.122259
    47  O   -0.345891
    48  C    0.346607
    49  H    0.043378
    50  C    0.169212
    51  C    0.035943
    52  N   -0.276565
    53  H    0.034525
    54  H    0.040594
    55  H    0.029044
    56  H    0.122715
    57  H    0.115308
    58  N   -0.056194
    59  C    0.095507
    60  C    0.245201
    61  N   -0.272069
    62  H    0.031087
    63  C    0.174750
    64  N   -0.314119
    65  H    0.038703
    66  C    0.133801
    67  N   -0.259433
    68  C    0.006410
    69  C    0.181206
    70  N   -0.306746
 Sum of Mulliken charges =  -0.00000

 Dipole moment (field-independent basis, Debye):
    X=             -7.7160    Y=              6.9925    Z=             -1.3326  Tot=             10.4980
 Quadrupole moment (field-independent basis, Debye-Ang):
   XX=           -156.7453   YY=           -220.6829   ZZ=           -253.4450
   XY=              0.6430   XZ=            -10.7710   YZ=              6.8767

 Normal termination of Gaussian 16 at Tue Jan 23 11:18:40 2018.
