 Gaussian 16, Revision A.03,
 Gaussian 16:  EM64L-G16RevA.03 25-Dec-2016

 ---------------------------------------
 #p wb97xd/cc-pvdz sp scf=(maxcycles=20)
 ---------------------------------------

 ------------------
 Base pair stacking
 ------------------
 Symbolic Z-matrix:
 Charge =  0 Multiplicity = 1

                         Standard orientation:
 ---------------------------------------------------------------------
 Center     Atomic      Atomic             Coordinates (Angstroms)
 Number     Number       Type             X           Y           Z
 ---------------------------------------------------------------------
      1          7           0        4.310309   -1.581389   -1.821976
      2          6           0        5.701250   -1.095137   -1.904748
      3          6           0        2.118001   -1.678803   -1.675033
      4          7           0        2.561494   -2.991858   -1.737619
      5          6           0        3.864529   -2.880623   -1.823649
      6          1           0        4.555429   -3.721456   -1.891443
      7          7           0        0.737900    0.228650   -1.533982
      8          6           0        1.861009    0.951660   -1.592670
      9          1           0        1.721476    2.031244   -1.556546
     10          7           0        3.124678    0.543239   -1.688824
     11          6           0        3.184517   -0.798204   -1.725975
     12          6           0        0.831665   -1.118463   -1.573586
     13          7           0       -0.288323   -1.841914   -1.515123
     14          1           0       -0.266330   -2.841941   -1.541285
     15          1           0       -1.187076   -1.409213   -1.443232
     16          1           0        6.115532   -1.409810   -2.758867
     17          1           0        5.707810   -0.095882   -1.880559
     18          1           0        6.226870   -1.449052   -1.131138
     19          7           0        5.333956    2.014668    0.705270
     20          6           0        3.969954    1.873502    0.792565
     21          6           0        6.041381    3.254206    0.326089
     22          7           0        0.782428    3.224290    0.515400
     23          1           0       -0.161497    2.918008    0.635524
     24          1           0        0.918918    4.175770    0.238311
     25          7           0        3.054145    2.835696    0.548573
     26          6           0        1.819265    2.397014    0.716608
     27          7           0        1.503273    1.114526    1.094629
     28          1           0        0.531190    0.867231    1.198836
     29          6           0        2.429161    0.108101    1.350928
     30          8           0        2.038734   -1.016954    1.686446
     31          6           0        3.760177    0.564352    1.174568
     32          7           0        4.968181   -0.102948    1.324087
     33          6           0        5.871297    0.794639    1.036081
     34          1           0        6.947540    0.619135    1.049328
     35          1           0        6.587025    3.090670   -0.495086
     36          1           0        5.373183    3.974101    0.142953
     37          1           0        6.640924    3.539596    1.073023
     38          1           0       -4.486397    0.094362    0.917412
     39          1           0       -4.406791    0.302917    2.665207
     40          1           0       -3.276072    1.166421    1.622515
     41          1           0       -2.815352   -4.217758    2.243975
     42          6           0       -2.452496   -3.199171    2.105918
     43          8           0       -0.163829   -3.822262    2.076013
     44          6           0       -1.043918   -2.964151    2.013705
     45          1           0        0.294416   -1.435111    1.770301
     46          7           0       -0.692307   -1.640748    1.839787
     47          8           0       -1.132294    0.573732    1.595590
     48          6           0       -1.539050   -0.564421    1.749924
     49          1           0       -4.383322   -2.295119    2.085987
     50          6           0       -3.303276   -2.169747    2.021834
     51          6           0       -3.824916    0.246237    1.757313
     52          7           0       -2.881847   -0.871874    1.847779
     53          1           0       -6.083498    4.229407   -1.153380
     54          1           0       -4.739923    4.017772   -0.252200
     55          1           0       -6.213456    3.901972    0.440148
     56          1           0       -3.829281   -2.827539   -1.581812
     57          1           0       -5.474786   -2.379564   -1.623413
     58          7           0       -4.520250   -2.110310   -1.490796
     59          6           0       -4.184771   -0.850503   -1.205300
     60          6           0       -4.616730    1.448361   -0.769005
     61          7           0       -3.326832    1.781103   -0.596172
     62          1           0       -1.478151    0.896808   -0.627552
     63          6           0       -2.544806    0.714692   -0.751391
     64          7           0       -2.878897   -0.547921   -1.037356
     65          1           0       -7.815411    1.886341   -0.938623
     66          6           0       -6.802654    1.482293   -0.939329
     67          7           0       -6.500766    0.228330   -1.171942
     68          6           0       -5.117848    0.193136   -1.067005
     69          6           0       -5.684793    3.721971   -0.389479
     70          7           0       -5.710795    2.276875   -0.687871
 ---------------------------------------------------------------------

 SCF Done:  E(RwB97XD) =  -2048.71984679     A.U. after   15 cycles

 The electronic state is 1-A.
 Alpha  occ. eigenvalues --  -19.25000 -19.21003 -19.20497 -14.52952 -14.51259
 Alpha  occ. eigenvalues --  -14.49199 -14.48996 -14.48478 -14.46938 -14.46633
 Alpha  occ. eigenvalues --  -14.46493 -14.45827 -14.45293 -14.44983 -14.43330
 Alpha  occ. eigenvalues --  -14.41943 -14.41311 -14.41243 -14.41195 -14.40739
 Alpha  occ. eigenvalues --  -10.44481 -10.41094 -10.40876 -10.39145 -10.38368
 Alpha  occ. eigenvalues --  -10.38071 -10.37780 -10.36902 -10.36435 -10.36031
 Alpha  occ. eigenvalues --  -10.34325 -10.34216 -10.33886 -10.33691 -10.33389
 Alpha  occ. eigenvalues --  -10.33300 -10.33200 -10.32941 -10.31153 -10.30310
 Alpha  occ. eigenvalues --  -10.30246 -10.28685 -10.28104  -1.18615  -1.15780
 Alpha  occ. eigenvalues --   -1.13186  -1.12066  -1.11150  -1.10693  -1.10291
 Alpha  occ. eigenvalues --   -1.08575  -1.08240  -1.05733  -1.05540  -1.01541
 Alpha  occ. eigenvalues --   -1.01450  -1.01078  -0.99671  -0.98530  -0.97795
 Alpha  occ. eigenvalues --   -0.96863  -0.96729  -0.93248  -0.90098  -0.88405
 Alpha  occ. eigenvalues --   -0.86398  -0.84261  -0.83896  -0.82695  -0.82400
 Alpha  occ. eigenvalues --   -0.82106  -0.77978  -0.77707  -0.75605  -0.74659
 Alpha  occ. eigenvalues --   -0.73636  -0.73182  -0.72473  -0.71417  -0.71134
 Alpha  occ. eigenvalues --   -0.67532  -0.67364  -0.66609  -0.65675  -0.64924
 Alpha  occ. eigenvalues --   -0.64257  -0.63339  -0.63085  -0.62502  -0.61796
 Alpha  occ. eigenvalues --   -0.61315  -0.60971  -0.60734  -0.60145  -0.58969
 Alpha  occ. eigenvalues --   -0.58696  -0.58279  -0.57429  -0.56768  -0.56164
 Alpha  occ. eigenvalues --   -0.55852  -0.55780  -0.55567  -0.55106  -0.54247
 Alpha  occ. eigenvalues --   -0.54144  -0.53914  -0.53397  -0.53005  -0.52840
 Alpha  occ. eigenvalues --   -0.51797  -0.51644  -0.51063  -0.50698  -0.50528
 Alpha  occ. eigenvalues --   -0.50119  -0.49900  -0.49662  -0.49128  -0.48995
 Alpha  occ. eigenvalues --   -0.48745  -0.48078  -0.47873  -0.47269  -0.46985
 Alpha  occ. eigenvalues --   -0.46905  -0.45283  -0.45033  -0.44757  -0.42816
 Alpha  occ. eigenvalues --   -0.41537  -0.41211  -0.38965  -0.38379  -0.38226
 Alpha  occ. eigenvalues --   -0.37967  -0.37224  -0.36786  -0.35541  -0.35221
 Alpha  occ. eigenvalues --   -0.35138  -0.34431  -0.33760  -0.33403  -0.32923
 Alpha  occ. eigenvalues --   -0.32573  -0.32223  -0.31793  -0.30865  -0.30768
 Alpha  occ. eigenvalues --   -0.30505  -0.30313  -0.26366  -0.25230
 Alpha virt. eigenvalues --    0.03082   0.04213   0.06035   0.07546   0.08935
 Alpha virt. eigenvalues --    0.09133   0.09659   0.09958   0.10739   0.12022
 Alpha virt. eigenvalues --    0.13490   0.14069   0.14426   0.14552   0.14639

 Mulliken charges:
               1
     1  N   -0.307568
     2  C    0.183452
     3  C    0.070677
     4  N   -0.262596
     5  C    0.147928
     6  H    0.028962
     7  N   -0.282678
     8  C    0.119434
     9  H    0.016690
    10  N   -0.265527
    11  C    0.244655
    12  C    0.073376
    13  N   -0.067546
    14  H    0.110578
    15  H    0.081811
    16  H    0.021247
    17  H    0.028047
    18  H    0.032694
    19  N   -0.306624
    20  C    0.272282
    21  C    0.183646
    22  N   -0.097147
    23  H    0.125208
    24  H    0.117419
    25  N   -0.283056
    26  C    0.151527
    27  N   -0.099186
    28  H    0.120016
    29  C    0.152277
    30  O   -0.317179
    31  C    0.004698
    32  N   -0.228685
    33  C    0.105690
    34  H    0.021018
    35  H    0.023552
    36  H    0.030572
    37  H    0.024702
    38  H    0.065077
    39  H    0.047670
    40  H    0.082806
    41  H    0.025116
    42  C   -0.115772
    43  O   -0.264983
    44  C    0.176454
    45  H    0.134521
    46  N   -0.127848
    47  O   -0.347619
    48  C    0.345492
    49  H    0.042496
    50  C    0.166463
    51  C    0.043825
    52  N   -0.275120
    53  H    0.035037
    54  H    0.039848
    55  H    0.031892
    56  H    0.119539
    57  H    0.121577
    58  N   -0.064949
    59  C    0.075400
    60  C    0.207121
    61  N   -0.257672
    62  H    0.022179
    63  C    0.161839
    64  N   -0.299298
    65  H    0.041371
    66  C    0.138088
    67  N   -0.253922
    68  C    0.035343
    69  C    0.180791
    70  N   -0.307129
 Sum of Mulliken charges =  -0.00000

 Dipole moment (field-independent basis, Debye):
    X=             -7.7022    Y=              7.0312    Z=             -2.2991  Tot=             10.6793
 Quadrupole moment (field-independent basis, Debye-Ang):
   XX=           -161.0440   YY=           -224.4005   ZZ=           -253.5077
   XY=              6.2531   XZ=            -17.6111   YZ=             14.3822

 Normal termination of Gaussian 16 at Tue Jan 23 08:13:41 2018.
