 Gaussian 16, Revision A.03,
 Gaussian 16:  EM64L-G16RevA.03 25-Dec-2016

 ---------------------------------------
 #p wb97xd/cc-pvdz sp scf=(maxcycles=20)
 ---------------------------------------

 ------------------
 Base pair stacking
 ------------------
 Symbolic Z-matrix:
 Charge =  0 Multiplicity = 1

                         Standard orientation:
 ---------------------------------------------------------------------
 Center     Atomic      Atomic             Coordinates (Angstroms)
 Number     Number       Type             X           Y           Z
 ---------------------------------------------------------------------
      1          7           0        5.816219   -1.614157   -1.035326
      2          6           0        7.197408   -1.095704   -1.074128
      3          6           0        3.624111   -1.776372   -1.110635
      4          7           0        4.097750   -3.048353   -0.823500
      5          6           0        5.399454   -2.899724   -0.789622
      6          1           0        6.110027   -3.701844   -0.588078
      7          7           0        2.199542    0.048978   -1.559706
      8          6           0        3.307312    0.791058   -1.658438
      9          1           0        3.143193    1.843733   -1.884749
     10          7           0        4.581381    0.429740   -1.520247
     11          6           0        4.671661   -0.881727   -1.243981
     12          6           0        2.323910   -1.267013   -1.280815
     13          7           0        1.219286   -2.009433   -1.181852
     14          1           0        1.263958   -2.987797   -0.976874
     15          1           0        0.309922   -1.613205   -1.309152
     16          1           0        7.714811   -1.574491   -1.783514
     17          1           0        7.181347   -0.117218   -1.277700
     18          1           0        7.635922   -1.242816   -0.187521
     19          7           0        3.826357    2.354172    1.391772
     20          6           0        2.466773    2.171903    1.312112
     21          6           0        4.535237    3.620814    1.120065
     22          7           0       -0.705043    3.434943    0.674890
     23          1           0       -1.646587    3.099180    0.675741
     24          1           0       -0.565994    4.395173    0.431283
     25          7           0        1.557318    3.111730    0.974946
     26          6           0        0.325439    2.634282    0.986268
     27          7           0        0.006459    1.336105    1.303242
     28          1           0       -0.962947    1.058779    1.285847
     29          6           0        0.925811    0.352124    1.653147
     30          8           0        0.533166   -0.790060    1.921450
     31          6           0        2.253545    0.850062    1.645395
     32          7           0        3.455090    0.215253    1.928592
     33          6           0        4.357872    1.144025    1.765523
     34          1           0        5.429709    0.999549    1.905372
     35          1           0        5.180120    3.489098    0.368005
     36          1           0        3.871737    4.324467    0.869270
     37          1           0        5.031845    3.908894    1.938105
     38          1           0       -5.884262    0.146545    0.390710
     39          1           0       -6.021066    0.323364    2.138471
     40          1           0       -4.801005    1.239318    1.253121
     41          1           0       -4.250910   -4.140303    1.840429
     42          6           0       -3.905972   -3.109156    1.763112
     43          8           0       -1.611945   -3.665009    1.998905
     44          6           0       -2.504477   -2.831686    1.844734
     45          1           0       -1.194805   -1.260108    1.788259
     46          7           0       -2.175862   -1.495545    1.735292
     47          8           0       -2.652051    0.709596    1.474929
     48          6           0       -3.038787   -0.442641    1.561225
     49          1           0       -5.847671   -2.261173    1.525335
     50          6           0       -4.772128   -2.103358    1.593555
     51          6           0       -5.333175    0.301184    1.306378
     52          7           0       -4.373437   -0.790697    1.491967
     53          1           0       -4.697328    3.716859   -2.848911
     54          1           0       -3.464359    3.774261   -1.781864
     55          1           0       -5.006131    3.749273   -1.246713
     56          1           0       -2.269429   -3.145887   -1.408928
     57          1           0       -3.907334   -2.794409   -1.731174
     58          7           0       -2.980348   -2.458891   -1.559852
     59          6           0       -2.705508   -1.153147   -1.534007
     60          6           0       -3.230847    1.162792   -1.682941
     61          7           0       -1.976819    1.584466   -1.450508
     62          1           0       -0.120011    0.801157   -1.077243
     63          6           0       -1.161082    0.547314   -1.272186
     64          7           0       -1.434438   -0.761205   -1.297690
     65          1           0       -6.395820    1.404788   -2.296583
     66          6           0       -5.382122    1.057630   -2.094462
     67          7           0       -5.030402   -0.201411   -2.000782
     68          6           0       -3.668794   -0.148878   -1.740029
     69          6           0       -4.380679    3.412303   -1.950586
     70          7           0       -4.343061    1.937460   -1.912852
 ---------------------------------------------------------------------

 SCF Done:  E(RwB97XD) =  -2048.75084184     A.U. after   15 cycles

 The electronic state is 1-A.
 Alpha  occ. eigenvalues --  -19.25656 -19.21853 -19.20434 -14.52552 -14.52203
 Alpha  occ. eigenvalues --  -14.48687 -14.48447 -14.48202 -14.47612 -14.46644
 Alpha  occ. eigenvalues --  -14.46134 -14.45565 -14.44235 -14.44211 -14.42384
 Alpha  occ. eigenvalues --  -14.41751 -14.41282 -14.41028 -14.40618 -14.40291
 Alpha  occ. eigenvalues --  -10.45241 -10.40893 -10.39955 -10.39935 -10.38072
 Alpha  occ. eigenvalues --  -10.37997 -10.37599 -10.37201 -10.35655 -10.35467
 Alpha  occ. eigenvalues --  -10.34724 -10.34154 -10.34012 -10.33971 -10.33291
 Alpha  occ. eigenvalues --  -10.33136 -10.33088 -10.32664 -10.31027 -10.30929
 Alpha  occ. eigenvalues --  -10.30574 -10.28444 -10.27800  -1.19248  -1.15255
 Alpha  occ. eigenvalues --   -1.12966  -1.12864  -1.11247  -1.10317  -1.09251
 Alpha  occ. eigenvalues --   -1.09089  -1.08269  -1.05055  -1.04783  -1.02264
 Alpha  occ. eigenvalues --   -1.01070  -1.00500  -0.99347  -0.98304  -0.96980
 Alpha  occ. eigenvalues --   -0.96718  -0.96306  -0.92738  -0.90840  -0.87685
 Alpha  occ. eigenvalues --   -0.86042  -0.83911  -0.83791  -0.83324  -0.82311
 Alpha  occ. eigenvalues --   -0.82196  -0.78655  -0.77053  -0.74878  -0.74314
 Alpha  occ. eigenvalues --   -0.73348  -0.73125  -0.72910  -0.71072  -0.70444
 Alpha  occ. eigenvalues --   -0.67062  -0.66825  -0.66337  -0.66281  -0.64317
 Alpha  occ. eigenvalues --   -0.64219  -0.63510  -0.62757  -0.62486  -0.61419
 Alpha  occ. eigenvalues --   -0.60671  -0.60496  -0.60423  -0.59508  -0.59285
 Alpha  occ. eigenvalues --   -0.58995  -0.57979  -0.56732  -0.56504  -0.56180
 Alpha  occ. eigenvalues --   -0.55781  -0.55602  -0.55346  -0.54377  -0.54108
 Alpha  occ. eigenvalues --   -0.53938  -0.53478  -0.53382  -0.53178  -0.52723
 Alpha  occ. eigenvalues --   -0.52652  -0.52167  -0.51798  -0.50768  -0.50238
 Alpha  occ. eigenvalues --   -0.49934  -0.49801  -0.49248  -0.48950  -0.48736
 Alpha  occ. eigenvalues --   -0.48591  -0.48347  -0.48083  -0.47326  -0.47163
 Alpha  occ. eigenvalues --   -0.46934  -0.45609  -0.44831  -0.44732  -0.43630
 Alpha  occ. eigenvalues --   -0.41090  -0.40832  -0.39278  -0.37740  -0.37655
 Alpha  occ. eigenvalues --   -0.37238  -0.37045  -0.36925  -0.35943  -0.34663
 Alpha  occ. eigenvalues --   -0.34414  -0.33686  -0.33484  -0.33161  -0.33025
 Alpha  occ. eigenvalues --   -0.32475  -0.32254  -0.31996  -0.31678  -0.30903
 Alpha  occ. eigenvalues --   -0.30507  -0.29751  -0.25803  -0.24934
 Alpha virt. eigenvalues --    0.03261   0.03864   0.07137   0.07791   0.08660
 Alpha virt. eigenvalues --    0.09437   0.10012   0.10379   0.11135   0.11791
 Alpha virt. eigenvalues --    0.12764   0.14192   0.14311   0.14821   0.15136

 Mulliken charges:
               1
     1  N   -0.313690
     2  C    0.180528
     3  C    0.060254
     4  N   -0.260075
     5  C    0.136690
     6  H    0.026349
     7  N   -0.290349
     8  C    0.136335
     9  H    0.010844
    10  N   -0.289401
    11  C    0.248680
    12  C    0.105855
    13  N   -0.054062
    14  H    0.110173
    15  H    0.084315
    16  H    0.025567
    17  H    0.030494
    18  H    0.026163
    19  N   -0.300090
    20  C    0.240865
    21  C    0.180261
    22  N   -0.100689
    23  H    0.112147
    24  H    0.113014
    25  N   -0.305035
    26  C    0.220087
    27  N   -0.145770
    28  H    0.126550
    29  C    0.176729
    30  O   -0.323443
    31  C   -0.004434
    32  N   -0.224658
    33  C    0.131277
    34  H    0.018124
    35  H    0.029910
    36  H    0.027110
    37  H    0.022575
    38  H    0.063216
    39  H    0.058462
    40  H    0.068882
    41  H    0.027479
    42  C   -0.111005
    43  O   -0.266921
    44  C    0.166481
    45  H    0.132061
    46  N   -0.119288
    47  O   -0.338450
    48  C    0.334427
    49  H    0.047153
    50  C    0.168202
    51  C    0.035131
    52  N   -0.280670
    53  H    0.035686
    54  H    0.036922
    55  H    0.027441
    56  H    0.126235
    57  H    0.116865
    58  N   -0.058118
    59  C    0.085481
    60  C    0.252553
    61  N   -0.277271
    62  H    0.046910
    63  C    0.151082
    64  N   -0.299154
    65  H    0.036806
    66  C    0.129147
    67  N   -0.261516
    68  C    0.022641
    69  C    0.180088
    70  N   -0.306157
 Sum of Mulliken charges =  -0.00000

 Dipole moment (field-independent basis, Debye):
    X=             -7.5819    Y=              6.2991    Z=             -2.7713  Tot=             10.2394
 Quadrupole moment (field-independent basis, Debye-Ang):
   XX=           -150.8740   YY=           -222.1838   ZZ=           -255.7509
   XY=             -3.1620   XZ=              0.3201   YZ=              9.2703

 Normal termination of Gaussian 16 at Tue Jan 23 08:47:16 2018.
