 Gaussian 16, Revision A.03,
 Gaussian 16:  EM64L-G16RevA.03 25-Dec-2016

 ---------------------------------------
 #p wb97xd/cc-pvdz sp scf=(maxcycles=20)
 ---------------------------------------

 ------------------
 Base pair stacking
 ------------------
 Symbolic Z-matrix:
 Charge =  0 Multiplicity = 1

                         Standard orientation:
 ---------------------------------------------------------------------
 Center     Atomic      Atomic             Coordinates (Angstroms)
 Number     Number       Type             X           Y           Z
 ---------------------------------------------------------------------
      1          7           0        6.064239   -1.481758   -0.859427
      2          6           0        7.432417   -0.949019   -0.710150
      3          6           0        3.884654   -1.652645   -1.099248
      4          7           0        4.371690   -2.950417   -1.041674
      5          6           0        5.665313   -2.795523   -0.899488
      6          1           0        6.382357   -3.612922   -0.817975
      7          7           0        2.444440    0.207927   -1.263626
      8          6           0        3.537744    0.968365   -1.145335
      9          1           0        3.361456    2.042923   -1.167992
     10          7           0        4.810148    0.602444   -1.003947
     11          6           0        4.916155   -0.736558   -0.988246
     12          6           0        2.584420   -1.135614   -1.244165
     13          7           0        1.494234   -1.896384   -1.362104
     14          1           0        1.550744   -2.895360   -1.352891
     15          1           0        0.584354   -1.493959   -1.463637
     16          1           0        8.001160   -1.270330   -1.467434
     17          1           0        7.404378    0.050133   -0.716238
     18          1           0        7.822703   -1.264565    0.154766
     19          7           0        3.569205    2.226608    1.448450
     20          6           0        2.216290    2.039698    1.297674
     21          6           0        4.294955    3.480365    1.161935
     22          7           0       -0.910642    3.269891    0.419776
     23          1           0       -1.851204    2.933646    0.380661
     24          1           0       -0.755922    4.218294    0.141754
     25          7           0        1.329743    2.962565    0.865917
     26          6           0        0.098478    2.484997    0.826631
     27          7           0       -0.240732    1.202114    1.182507
     28          1           0       -1.207947    0.923407    1.120925
     29          6           0        0.654876    0.235727    1.629534
     30          8           0        0.245246   -0.893571    1.925544
     31          6           0        1.981654    0.734022    1.677065
     32          7           0        3.163481    0.113700    2.058349
     33          6           0        4.075853    1.035004    1.906740
     34          1           0        5.137432    0.897946    2.115418
     35          1           0        4.982486    3.315513    0.455588
     36          1           0        3.648464    4.171411    0.841341
     37          1           0        4.743361    3.805457    1.993835
     38          1           0       -6.070052   -0.032674   -0.018617
     39          1           0       -6.308538    0.222545    1.708421
     40          1           0       -5.037196    1.098806    0.855644
     41          1           0       -4.531698   -4.248401    1.715658
     42          6           0       -4.181041   -3.221475    1.612322
     43          8           0       -1.905707   -3.764057    2.006699
     44          6           0       -2.786240   -2.939339    1.763229
     45          1           0       -1.472796   -1.370703    1.712785
     46          7           0       -2.449485   -1.609183    1.613158
     47          8           0       -2.905817    0.581570    1.226395
     48          6           0       -3.298925   -0.565970    1.341690
     49          1           0       -6.104049   -2.386826    1.223425
     50          6           0       -5.034062   -2.225116    1.347282
     51          6           0       -5.573187    0.163547    0.919844
     52          7           0       -4.627833   -0.917996    1.210214
     53          1           0       -4.453808    3.974086   -2.218886
     54          1           0       -3.285916    3.832721   -1.088336
     55          1           0       -4.854824    3.682550   -0.664014
     56          1           0       -1.947120   -3.007577   -2.022834
     57          1           0       -3.571835   -2.619075   -2.368466
     58          7           0       -2.664619   -2.313087   -2.077683
     59          6           0       -2.423431   -1.035432   -1.776661
     60          6           0       -2.995296    1.257045   -1.495179
     61          7           0       -1.767270    1.639297   -1.107541
     62          1           0        0.083454    0.820198   -0.784253
     63          6           0       -0.938234    0.597531   -1.088928
     64          7           0       -1.177903   -0.682876   -1.390068
     65          1           0       -6.124722    1.577593   -2.240902
     66          6           0       -5.116198    1.209600   -2.050073
     67          7           0       -4.740041   -0.038416   -2.186614
     68          6           0       -3.397332   -0.022180   -1.837908
     69          6           0       -4.181994    3.500433   -1.381172
     70          7           0       -4.110903    2.048264   -1.634432
 ---------------------------------------------------------------------

 SCF Done:  E(RwB97XD) =  -2048.70069018     A.U. after   15 cycles

 The electronic state is 1-A.
 Alpha  occ. eigenvalues --  -19.25627 -19.21714 -19.20328 -14.52610 -14.52213
 Alpha  occ. eigenvalues --  -14.48992 -14.48233 -14.48127 -14.47619 -14.46251
 Alpha  occ. eigenvalues --  -14.45495 -14.45038 -14.44188 -14.43371 -14.42758
 Alpha  occ. eigenvalues --  -14.41623 -14.41533 -14.41319 -14.40546 -14.40378
 Alpha  occ. eigenvalues --  -10.45238 -10.40412 -10.39937 -10.39845 -10.38015
 Alpha  occ. eigenvalues --  -10.37770 -10.37565 -10.37141 -10.35776 -10.35534
 Alpha  occ. eigenvalues --  -10.34785 -10.34679 -10.34276 -10.33724 -10.33602
 Alpha  occ. eigenvalues --  -10.33398 -10.32866 -10.32443 -10.31259 -10.30883
 Alpha  occ. eigenvalues --  -10.30326 -10.28742 -10.27524  -1.19320  -1.15283
 Alpha  occ. eigenvalues --   -1.12927  -1.12759  -1.11567  -1.10187  -1.09334
 Alpha  occ. eigenvalues --   -1.09060  -1.08089  -1.05366  -1.04802  -1.02250
 Alpha  occ. eigenvalues --   -1.01153  -1.00853  -0.99070  -0.98210  -0.97252
 Alpha  occ. eigenvalues --   -0.96728  -0.96113  -0.93069  -0.90814  -0.87804
 Alpha  occ. eigenvalues --   -0.86299  -0.84215  -0.83570  -0.83378  -0.82597
 Alpha  occ. eigenvalues --   -0.81992  -0.78642  -0.77110  -0.75127  -0.74140
 Alpha  occ. eigenvalues --   -0.73239  -0.73184  -0.73063  -0.71432  -0.70587
 Alpha  occ. eigenvalues --   -0.67020  -0.66845  -0.66664  -0.66274  -0.64515
 Alpha  occ. eigenvalues --   -0.64179  -0.63410  -0.63093  -0.62674  -0.61125
 Alpha  occ. eigenvalues --   -0.60990  -0.60730  -0.60655  -0.59681  -0.59302
 Alpha  occ. eigenvalues --   -0.58988  -0.58089  -0.57272  -0.56719  -0.56392
 Alpha  occ. eigenvalues --   -0.55904  -0.55693  -0.55422  -0.55032  -0.54344
 Alpha  occ. eigenvalues --   -0.53983  -0.53431  -0.53231  -0.53151  -0.52531
 Alpha  occ. eigenvalues --   -0.52481  -0.52183  -0.52061  -0.51165  -0.50447
 Alpha  occ. eigenvalues --   -0.49773  -0.49563  -0.49274  -0.49048  -0.48751
 Alpha  occ. eigenvalues --   -0.48421  -0.48229  -0.47897  -0.47269  -0.47061
 Alpha  occ. eigenvalues --   -0.46926  -0.45663  -0.44878  -0.44300  -0.43604
 Alpha  occ. eigenvalues --   -0.41284  -0.41193  -0.39379  -0.38037  -0.37754
 Alpha  occ. eigenvalues --   -0.37594  -0.36869  -0.36727  -0.36008  -0.34485
 Alpha  occ. eigenvalues --   -0.34152  -0.33931  -0.33760  -0.32892  -0.32342
 Alpha  occ. eigenvalues --   -0.32232  -0.31868  -0.31650  -0.31505  -0.30983
 Alpha  occ. eigenvalues --   -0.30724  -0.29541  -0.26051  -0.24295
 Alpha virt. eigenvalues --    0.03312   0.03856   0.06966   0.07507   0.08776
 Alpha virt. eigenvalues --    0.09597   0.09832   0.10681   0.10985   0.11650
 Alpha virt. eigenvalues --    0.12912   0.13870   0.14013   0.14911   0.15035

 Mulliken charges:
               1
     1  N   -0.314427
     2  C    0.180600
     3  C    0.055329
     4  N   -0.261581
     5  C    0.135451
     6  H    0.027109
     7  N   -0.279522
     8  C    0.148730
     9  H    0.005381
    10  N   -0.290376
    11  C    0.248503
    12  C    0.109844
    13  N   -0.057383
    14  H    0.107682
    15  H    0.085173
    16  H    0.026174
    17  H    0.030289
    18  H    0.027509
    19  N   -0.285543
    20  C    0.209090
    21  C    0.178332
    22  N   -0.058062
    23  H    0.114119
    24  H    0.105541
    25  N   -0.295410
    26  C    0.182656
    27  N   -0.149051
    28  H    0.132529
    29  C    0.157404
    30  O   -0.322915
    31  C    0.023293
    32  N   -0.221418
    33  C    0.127534
    34  H    0.015485
    35  H    0.028838
    36  H    0.026300
    37  H    0.023254
    38  H    0.064586
    39  H    0.056985
    40  H    0.063711
    41  H    0.029592
    42  C   -0.113022
    43  O   -0.264715
    44  C    0.176891
    45  H    0.131624
    46  N   -0.126812
    47  O   -0.338385
    48  C    0.342745
    49  H    0.046759
    50  C    0.171414
    51  C    0.042678
    52  N   -0.285854
    53  H    0.038200
    54  H    0.025656
    55  H    0.029026
    56  H    0.122789
    57  H    0.118241
    58  N   -0.064377
    59  C    0.098477
    60  C    0.271814
    61  N   -0.313932
    62  H    0.049685
    63  C    0.167327
    64  N   -0.300245
    65  H    0.034670
    66  C    0.115748
    67  N   -0.256159
    68  C    0.007508
    69  C    0.182918
    70  N   -0.302001
 Sum of Mulliken charges =  -0.00000

 Dipole moment (field-independent basis, Debye):
    X=             -7.3168    Y=              6.0299    Z=             -3.7701  Tot=             10.2034
 Quadrupole moment (field-independent basis, Debye-Ang):
   XX=           -149.2383   YY=           -224.8557   ZZ=           -257.0200
   XY=             -4.9137   XZ=              2.6765   YZ=             12.6192

 Normal termination of Gaussian 16 at Tue Jan 23 05:04:55 2018.
