 Gaussian 16, Revision A.03,
 Gaussian 16:  EM64L-G16RevA.03 25-Dec-2016

 ---------------------------------------
 #p wb97xd/cc-pvdz sp scf=(maxcycles=20)
 ---------------------------------------

 ------------------
 Base pair stacking
 ------------------
 Symbolic Z-matrix:
 Charge =  0 Multiplicity = 1

                         Standard orientation:
 ---------------------------------------------------------------------
 Center     Atomic      Atomic             Coordinates (Angstroms)
 Number     Number       Type             X           Y           Z
 ---------------------------------------------------------------------
      1          7           0       -5.556564   -1.979555    1.026257
      2          6           0       -6.935796   -1.593693    1.382406
      3          6           0       -3.364547   -2.047728    0.859735
      4          7           0       -3.844163   -3.109739    0.106844
      5          6           0       -5.145581   -3.026162    0.237303
      6          1           0       -5.860042   -3.708165   -0.224588
      7          7           0       -1.931184   -0.501472    1.916847
      8          6           0       -3.035873    0.076780    2.399410
      9          1           0       -2.866880    0.948867    3.029619
     10          7           0       -4.311976   -0.258925    2.221211
     11          6           0       -4.408299   -1.342008    1.432490
     12          6           0       -2.061620   -1.589305    1.126476
     13          7           0       -0.960071   -2.167912    0.643810
     14          1           0       -1.009244   -2.975228    0.054709
     15          1           0       -0.048610   -1.814351    0.854486
     16          1           0       -7.380157   -2.348078    1.865746
     17          1           0       -6.915226   -0.787144    1.972467
     18          1           0       -7.450493   -1.383475    0.551210
     19          7           0       -4.078610    2.700041   -1.044823
     20          6           0       -2.716062    2.527545   -1.086587
     21          6           0       -4.769640    3.955500   -0.688432
     22          7           0        0.490625    3.804627   -0.701871
     23          1           0        1.430751    3.476724   -0.790643
     24          1           0        0.366853    4.758971   -0.428689
     25          7           0       -1.787044    3.468397   -0.811301
     26          6           0       -0.557646    3.001435   -0.938341
     27          7           0       -0.258759    1.712060   -1.306687
     28          1           0        0.710324    1.442466   -1.378558
     29          6           0       -1.198450    0.727213   -1.594664
     30          8           0       -0.822986   -0.406486   -1.917904
     31          6           0       -2.523779    1.213949   -1.462494
     32          7           0       -3.741128    0.574637   -1.652884
     33          6           0       -4.632494    1.492727   -1.394462
     34          1           0       -5.711437    1.342036   -1.443824
     35          1           0       -5.346045    3.804476    0.113905
     36          1           0       -4.091560    4.659806   -0.482449
     37          1           0       -5.337153    4.254675   -1.454747
     38          1           0        5.696605    0.554358   -0.930229
     39          1           0        5.680300    0.764847   -2.679532
     40          1           0        4.535499    1.654034   -1.674483
     41          1           0        3.972167   -3.718058   -2.315621
     42          6           0        3.628405   -2.691408   -2.188884
     43          8           0        1.326309   -3.261689   -2.236045
     44          6           0        2.223311   -2.424049   -2.143623
     45          1           0        0.913095   -0.864658   -1.943774
     46          7           0        1.896592   -1.092936   -1.980409
     47          8           0        2.378957    1.110828   -1.719740
     48          6           0        2.764375   -0.036368   -1.861364
     49          1           0        5.577762   -1.832012   -2.103657
     50          6           0        4.499336   -1.681839   -2.075523
     51          6           0        5.067244    0.721485   -1.791645
     52          7           0        4.102270   -0.374632   -1.914543
     53          1           0        5.001430    2.649114    4.083637
     54          1           0        3.676391    3.079811    3.234603
     55          1           0        5.163700    3.355734    2.621518
     56          1           0        2.550611   -3.119381    0.110809
     57          1           0        4.205797   -2.850296    0.423947
     58          7           0        3.262472   -2.521151    0.478940
     59          6           0        2.967987   -1.336922    1.019348
     60          6           0        3.471842    0.734084    2.077060
     61          7           0        2.196109    1.150346    2.137456
     62          1           0        0.324427    0.498616    1.615250
     63          6           0        1.382336    0.239724    1.606922
     64          7           0        1.675352   -0.946959    1.065163
     65          1           0        6.675575    0.860221    2.492194
     66          6           0        5.652777    0.576919    2.242073
     67          7           0        5.311863   -0.547054    1.660582
     68          6           0        3.931653   -0.460210    1.550048
     69          6           0        4.609233    2.727148    3.167081
     70          7           0        4.589223    1.399652    2.522583
 ---------------------------------------------------------------------

 SCF Done:  E(RwB97XD) =  -2048.73853486     A.U. after   15 cycles

 The electronic state is 1-A.
 Alpha  occ. eigenvalues --  -19.26078 -19.22835 -19.20791 -14.52667 -14.52154
 Alpha  occ. eigenvalues --  -14.48942 -14.48114 -14.48095 -14.47721 -14.47125
 Alpha  occ. eigenvalues --  -14.46888 -14.45300 -14.43922 -14.43866 -14.42201
 Alpha  occ. eigenvalues --  -14.41597 -14.41067 -14.40646 -14.40400 -14.39764
 Alpha  occ. eigenvalues --  -10.45679 -10.41441 -10.40718 -10.39568 -10.38403
 Alpha  occ. eigenvalues --  -10.37839 -10.37768 -10.36844 -10.35375 -10.35062
 Alpha  occ. eigenvalues --  -10.34829 -10.34512 -10.33621 -10.33507 -10.33383
 Alpha  occ. eigenvalues --  -10.32716 -10.32594 -10.32377 -10.31389 -10.31037
 Alpha  occ. eigenvalues --  -10.30579 -10.28280 -10.27850  -1.19644  -1.14899
 Alpha  occ. eigenvalues --   -1.13768  -1.13383  -1.10757  -1.10660  -1.09578
 Alpha  occ. eigenvalues --   -1.08959  -1.08757  -1.04553  -1.04449  -1.02820
 Alpha  occ. eigenvalues --   -1.00738  -0.99956  -0.99830  -0.98728  -0.96760
 Alpha  occ. eigenvalues --   -0.96574  -0.96247  -0.92128  -0.91346  -0.87315
 Alpha  occ. eigenvalues --   -0.85617  -0.84283  -0.83705  -0.83354  -0.82655
 Alpha  occ. eigenvalues --   -0.81768  -0.79179  -0.76744  -0.74810  -0.74498
 Alpha  occ. eigenvalues --   -0.73858  -0.73651  -0.72315  -0.70487  -0.70145
 Alpha  occ. eigenvalues --   -0.67589  -0.66878  -0.66462  -0.65704  -0.64791
 Alpha  occ. eigenvalues --   -0.64126  -0.63826  -0.62850  -0.62127  -0.61952
 Alpha  occ. eigenvalues --   -0.60503  -0.60181  -0.59979  -0.59653  -0.59146
 Alpha  occ. eigenvalues --   -0.59079  -0.58575  -0.56754  -0.56203  -0.56044
 Alpha  occ. eigenvalues --   -0.55868  -0.55081  -0.54810  -0.54624  -0.54208
 Alpha  occ. eigenvalues --   -0.53878  -0.53653  -0.53461  -0.53260  -0.53179
 Alpha  occ. eigenvalues --   -0.52575  -0.52499  -0.51272  -0.50428  -0.50217
 Alpha  occ. eigenvalues --   -0.49802  -0.49729  -0.49475  -0.49200  -0.49123
 Alpha  occ. eigenvalues --   -0.48601  -0.48503  -0.48206  -0.47834  -0.47594
 Alpha  occ. eigenvalues --   -0.46412  -0.45895  -0.45138  -0.44358  -0.43613
 Alpha  occ. eigenvalues --   -0.40525  -0.40419  -0.39637  -0.37533  -0.37462
 Alpha  occ. eigenvalues --   -0.37450  -0.37243  -0.36559  -0.36316  -0.34490
 Alpha  occ. eigenvalues --   -0.34224  -0.33923  -0.33860  -0.32988  -0.32918
 Alpha  occ. eigenvalues --   -0.32813  -0.32707  -0.32468  -0.32064  -0.30343
 Alpha  occ. eigenvalues --   -0.29919  -0.29067  -0.25730  -0.24998
 Alpha virt. eigenvalues --    0.02608   0.04324   0.07466   0.08011   0.08429
 Alpha virt. eigenvalues --    0.09223   0.09612   0.10762   0.11597   0.12112
 Alpha virt. eigenvalues --    0.13135   0.14318   0.14657   0.14914   0.15200

 Mulliken charges:
               1
     1  N   -0.312743
     2  C    0.180874
     3  C    0.057766
     4  N   -0.256432
     5  C    0.137266
     6  H    0.024330
     7  N   -0.298619
     8  C    0.134010
     9  H    0.009016
    10  N   -0.292393
    11  C    0.246588
    12  C    0.103355
    13  N   -0.050280
    14  H    0.115306
    15  H    0.083630
    16  H    0.024276
    17  H    0.031574
    18  H    0.023298
    19  N   -0.310914
    20  C    0.253633
    21  C    0.180630
    22  N   -0.122394
    23  H    0.115609
    24  H    0.118175
    25  N   -0.311272
    26  C    0.247531
    27  N   -0.151526
    28  H    0.121664
    29  C    0.196212
    30  O   -0.322726
    31  C   -0.014894
    32  N   -0.224702
    33  C    0.131476
    34  H    0.021636
    35  H    0.030116
    36  H    0.029218
    37  H    0.024332
    38  H    0.062709
    39  H    0.059265
    40  H    0.072393
    41  H    0.026326
    42  C   -0.121943
    43  O   -0.267517
    44  C    0.146097
    45  H    0.131546
    46  N   -0.104579
    47  O   -0.342187
    48  C    0.333949
    49  H    0.048131
    50  C    0.171964
    51  C    0.038484
    52  N   -0.275148
    53  H    0.033590
    54  H    0.042343
    55  H    0.026617
    56  H    0.126203
    57  H    0.113362
    58  N   -0.042474
    59  C    0.078463
    60  C    0.249515
    61  N   -0.275210
    62  H    0.036714
    63  C    0.168907
    64  N   -0.308086
    65  H    0.035867
    66  C    0.135736
    67  N   -0.268104
    68  C    0.024635
    69  C    0.180487
    70  N   -0.310679
 Sum of Mulliken charges =  -0.00000

 Dipole moment (field-independent basis, Debye):
    X=              7.9166    Y=              6.8098    Z=              1.4683  Tot=             10.5452
 Quadrupole moment (field-independent basis, Debye-Ang):
   XX=           -153.3256   YY=           -220.4574   ZZ=           -251.7947
   XY=              1.2629   XZ=             -1.8154   YZ=             -0.4538

 Normal termination of Gaussian 16 at Tue Jan 23 05:39:46 2018.
