 Gaussian 16, Revision A.03,
 Gaussian 16:  EM64L-G16RevA.03 25-Dec-2016

 ---------------------------------------
 #p wb97xd/cc-pvdz sp scf=(maxcycles=20)
 ---------------------------------------

 ------------------
 Base pair stacking
 ------------------
 Symbolic Z-matrix:
 Charge =  0 Multiplicity = 1

                         Standard orientation:
 ---------------------------------------------------------------------
 Center     Atomic      Atomic             Coordinates (Angstroms)
 Number     Number       Type             X           Y           Z
 ---------------------------------------------------------------------
      1          7           0        5.794471   -1.548996   -1.048579
      2          6           0        7.172265   -1.023590   -0.988342
      3          6           0        3.605599   -1.709824   -1.190920
      4          7           0        4.082816   -3.006666   -1.067704
      5          6           0        5.382436   -2.857870   -0.986882
      6          1           0        6.094773   -3.676507   -0.880286
      7          7           0        2.176797    0.152709   -1.419995
      8          6           0        3.280762    0.906490   -1.394758
      9          1           0        3.113395    1.979271   -1.480740
     10          7           0        4.554450    0.535804   -1.279811
     11          6           0        4.648925   -0.800490   -1.180706
     12          6           0        2.305318   -1.188261   -1.318183
     13          7           0        1.204487   -1.942388   -1.343167
     14          1           0        1.252313   -2.939238   -1.270826
     15          1           0        0.294938   -1.536890   -1.435003
     16          1           0        7.707389   -1.400050   -1.744720
     17          1           0        7.153008   -0.026691   -1.058690
     18          1           0        7.593938   -1.286733   -0.120621
     19          7           0        3.859008    2.246677    1.371881
     20          6           0        2.500335    2.068056    1.271051
     21          6           0        4.579199    3.501806    1.077488
     22          7           0       -0.652328    3.325804    0.535852
     23          1           0       -1.595344    2.994280    0.528077
     24          1           0       -0.503885    4.277937    0.267313
     25          7           0        1.602195    3.001627    0.889167
     26          6           0        0.368003    2.530059    0.890298
     27          7           0        0.036596    1.243019    1.238421
     28          1           0       -0.933639    0.969508    1.210169
     29          6           0        0.944185    0.265637    1.634504
     30          8           0        0.540835   -0.866560    1.928055
     31          6           0        2.274241    0.757380    1.638222
     32          7           0        3.466962    0.125873    1.963034
     33          6           0        4.377258    1.045590    1.790778
     34          1           0        5.445474    0.900596    1.955610
     35          1           0        5.237866    3.345528    0.342266
     36          1           0        3.924128    4.200751    0.793549
     37          1           0        5.061293    3.811363    1.896374
     38          1           0       -5.841111    0.052997    0.246088
     39          1           0       -6.010847    0.281071    1.984997
     40          1           0       -4.769404    1.165643    1.097464
     41          1           0       -4.257129   -4.196992    1.850813
     42          6           0       -3.905710   -3.170026    1.750420
     43          8           0       -1.619430   -3.728729    2.046864
     44          6           0       -2.504714   -2.896391    1.851277
     45          1           0       -1.186515   -1.332786    1.774873
     46          7           0       -2.167509   -1.565417    1.709635
     47          8           0       -2.627773    0.633281    1.376329
     48          6           0       -3.021743   -0.514282    1.488383
     49          1           0       -5.838274   -2.320907    1.450407
     50          6           0       -4.763493   -2.165837    1.534981
     51          6           0       -5.307091    0.231762    1.167465
     52          7           0       -4.356483   -0.858416    1.403237
     53          1           0       -4.719881    3.928545   -2.348002
     54          1           0       -3.509071    3.847471   -1.257362
     55          1           0       -5.061076    3.743424   -0.762838
     56          1           0       -2.270397   -3.054196   -1.794094
     57          1           0       -3.904058   -2.670163   -2.100328
     58          7           0       -2.983227   -2.356465   -1.866050
     59          6           0       -2.718687   -1.064824   -1.658991
     60          6           0       -3.258163    1.247585   -1.505885
     61          7           0       -2.012236    1.639961   -1.192625
     62          1           0       -0.157535    0.822197   -0.889369
     63          6           0       -1.192553    0.592070   -1.138458
     64          7           0       -1.455592   -0.702347   -1.345513
     65          1           0       -6.411863    1.555249   -2.147493
     66          6           0       -5.399886    1.188762   -1.972760
     67          7           0       -5.040748   -0.069763   -2.042010
     68          6           0       -3.685096   -0.046469   -1.748111
     69          6           0       -4.419100    3.507259   -1.492402
     70          7           0       -4.371270    2.040959   -1.652693
 ---------------------------------------------------------------------

 SCF Done:  E(RwB97XD) =  -2048.73807610     A.U. after   15 cycles

 The electronic state is 1-A.
 Alpha  occ. eigenvalues --  -19.25492 -19.21641 -19.20347 -14.52788 -14.52075
 Alpha  occ. eigenvalues --  -14.48821 -14.48440 -14.48194 -14.47484 -14.46434
 Alpha  occ. eigenvalues --  -14.45726 -14.45549 -14.44435 -14.44262 -14.42623
 Alpha  occ. eigenvalues --  -14.41563 -14.41438 -14.41188 -14.40456 -14.40402
 Alpha  occ. eigenvalues --  -10.45085 -10.40655 -10.40168 -10.39765 -10.38236
 Alpha  occ. eigenvalues --  -10.37861 -10.37480 -10.37394 -10.35732 -10.35634
 Alpha  occ. eigenvalues --  -10.34556 -10.34457 -10.34108 -10.33788 -10.33439
 Alpha  occ. eigenvalues --  -10.33236 -10.32917 -10.32837 -10.31138 -10.30792
 Alpha  occ. eigenvalues --  -10.30380 -10.28585 -10.27608  -1.19168  -1.15477
 Alpha  occ. eigenvalues --   -1.12850  -1.12677  -1.11387  -1.10165  -1.09477
 Alpha  occ. eigenvalues --   -1.08970  -1.08092  -1.05223  -1.05001  -1.02128
 Alpha  occ. eigenvalues --   -1.01300  -1.00697  -0.99064  -0.98181  -0.97151
 Alpha  occ. eigenvalues --   -0.96910  -0.96140  -0.92917  -0.90713  -0.87929
 Alpha  occ. eigenvalues --   -0.86300  -0.84054  -0.83604  -0.83227  -0.82449
 Alpha  occ. eigenvalues --   -0.82019  -0.78536  -0.77273  -0.75184  -0.74144
 Alpha  occ. eigenvalues --   -0.73166  -0.73075  -0.72983  -0.71242  -0.70687
 Alpha  occ. eigenvalues --   -0.67113  -0.66824  -0.66502  -0.66163  -0.64575
 Alpha  occ. eigenvalues --   -0.64108  -0.63379  -0.62940  -0.62475  -0.61192
 Alpha  occ. eigenvalues --   -0.60888  -0.60772  -0.60626  -0.59733  -0.59221
 Alpha  occ. eigenvalues --   -0.58914  -0.57782  -0.57008  -0.56599  -0.56192
 Alpha  occ. eigenvalues --   -0.55813  -0.55716  -0.55527  -0.54538  -0.54288
 Alpha  occ. eigenvalues --   -0.53850  -0.53595  -0.53330  -0.53217  -0.52731
 Alpha  occ. eigenvalues --   -0.52491  -0.52072  -0.51937  -0.50977  -0.50335
 Alpha  occ. eigenvalues --   -0.49858  -0.49710  -0.49242  -0.49078  -0.48831
 Alpha  occ. eigenvalues --   -0.48405  -0.48206  -0.47927  -0.47184  -0.47036
 Alpha  occ. eigenvalues --   -0.46972  -0.45563  -0.44728  -0.44712  -0.43492
 Alpha  occ. eigenvalues --   -0.41248  -0.41004  -0.39261  -0.37951  -0.37878
 Alpha  occ. eigenvalues --   -0.37511  -0.36896  -0.36768  -0.35937  -0.34640
 Alpha  occ. eigenvalues --   -0.34591  -0.33701  -0.33665  -0.32837  -0.32798
 Alpha  occ. eigenvalues --   -0.32346  -0.32206  -0.31915  -0.31550  -0.30980
 Alpha  occ. eigenvalues --   -0.30644  -0.29832  -0.25926  -0.24633
 Alpha virt. eigenvalues --    0.03414   0.03609   0.06922   0.07546   0.08809
 Alpha virt. eigenvalues --    0.09450   0.09841   0.10416   0.11205   0.11849
 Alpha virt. eigenvalues --    0.12748   0.13994   0.14214   0.14861   0.15138

 Mulliken charges:
               1
     1  N   -0.314337
     2  C    0.180486
     3  C    0.060317
     4  N   -0.261207
     5  C    0.136799
     6  H    0.026742
     7  N   -0.287536
     8  C    0.143710
     9  H    0.009332
    10  N   -0.287395
    11  C    0.251686
    12  C    0.103419
    13  N   -0.056125
    14  H    0.108491
    15  H    0.083832
    16  H    0.025813
    17  H    0.029649
    18  H    0.027367
    19  N   -0.286418
    20  C    0.213274
    21  C    0.180018
    22  N   -0.085428
    23  H    0.112739
    24  H    0.109472
    25  N   -0.298698
    26  C    0.201206
    27  N   -0.147557
    28  H    0.127794
    29  C    0.173582
    30  O   -0.323635
    31  C    0.005040
    32  N   -0.222787
    33  C    0.130327
    34  H    0.015599
    35  H    0.027867
    36  H    0.026323
    37  H    0.022586
    38  H    0.065172
    39  H    0.057288
    40  H    0.066869
    41  H    0.028144
    42  C   -0.111967
    43  O   -0.265636
    44  C    0.172701
    45  H    0.131297
    46  N   -0.122948
    47  O   -0.336015
    48  C    0.335593
    49  H    0.046492
    50  C    0.168099
    51  C    0.035208
    52  N   -0.282406
    53  H    0.036880
    54  H    0.034026
    55  H    0.028934
    56  H    0.123800
    57  H    0.118038
    58  N   -0.060950
    59  C    0.090390
    60  C    0.255469
    61  N   -0.285500
    62  H    0.057410
    63  C    0.144930
    64  N   -0.297154
    65  H    0.037081
    66  C    0.123434
    67  N   -0.257830
    68  C    0.020703
    69  C    0.181333
    70  N   -0.301232
 Sum of Mulliken charges =  -0.00000

 Dipole moment (field-independent basis, Debye):
    X=             -7.5102    Y=              6.2064    Z=             -3.4006  Tot=             10.3192
 Quadrupole moment (field-independent basis, Debye-Ang):
   XX=           -150.7497   YY=           -223.8038   ZZ=           -256.6910
   XY=             -3.5846   XZ=             -0.3321   YZ=             11.8234

 Normal termination of Gaussian 16 at Tue Jan 23 00:25:14 2018.
