 Gaussian 16, Revision A.03,
 Gaussian 16:  EM64L-G16RevA.03 25-Dec-2016

 ---------------------------------------
 #p wb97xd/cc-pvdz sp scf=(maxcycles=20)
 ---------------------------------------

 ------------------
 Base pair stacking
 ------------------
 Symbolic Z-matrix:
 Charge =  0 Multiplicity = 1

                         Standard orientation:
 ---------------------------------------------------------------------
 Center     Atomic      Atomic             Coordinates (Angstroms)
 Number     Number       Type             X           Y           Z
 ---------------------------------------------------------------------
      1          7           0       -6.944140   -1.386763    0.259568
      2          6           0       -8.312279   -0.834442    0.225774
      3          6           0       -4.771658   -1.618713    0.512238
      4          7           0       -5.243234   -2.843993    0.063869
      5          6           0       -6.533198   -2.655217   -0.070409
      6          1           0       -7.238832   -3.414047   -0.409805
      7          7           0       -3.356646    0.114587    1.258119
      8          6           0       -4.453398    0.875939    1.329312
      9          1           0       -4.288981    1.897615    1.669027
     10          7           0       -5.716814    0.566169    1.045194
     11          6           0       -5.808476   -0.710526    0.637668
     12          6           0       -3.482095   -1.165365    0.844543
     13          7           0       -2.388458   -1.926936    0.772818
     14          1           0       -2.434354   -2.880124    0.471921
     15          1           0       -1.486456   -1.570862    1.017272
     16          1           0       -8.901535   -1.362333    0.837576
     17          1           0       -8.294732    0.119814    0.522774
     18          1           0       -8.671537   -0.885184   -0.706075
     19          7           0       -2.524237    2.507548   -1.708306
     20          6           0       -1.186859    2.273326   -1.497110
     21          6           0       -3.191369    3.819043   -1.583375
     22          7           0        1.976620    3.440772   -0.665717
     23          1           0        2.897387    3.065850   -0.561501
     24          1           0        1.864077    4.420603   -0.498416
     25          7           0       -0.264928    3.194507   -1.142829
     26          6           0        0.938797    2.665256   -1.014131
     27          7           0        1.220242    1.335826   -1.216453
     28          1           0        2.170021    1.019225   -1.095435
     29          6           0        0.287389    0.370185   -1.581392
     30          8           0        0.645566   -0.803530   -1.738991
     31          6           0       -1.010418    0.923711   -1.723449
     32          7           0       -2.212825    0.322746   -2.069764
     33          6           0       -3.080066    1.298271   -2.047947
     34          1           0       -4.141815    1.190376   -2.272250
     35          1           0       -3.903680    3.767291   -0.884264
     36          1           0       -2.518298    4.509367   -1.321292
     37          1           0       -3.601823    4.070857   -2.459120
     38          1           0        6.946932   -0.038298    0.288591
     39          1           0        7.240733    0.011320   -1.448036
     40          1           0        5.995514    1.037522   -0.735519
     41          1           0        5.236974   -4.341405   -1.017500
     42          6           0        4.937170   -3.293588   -1.038295
     43          8           0        2.647344   -3.765933   -1.439171
     44          6           0        3.562881   -2.962835   -1.261342
     45          1           0        2.331008   -1.336614   -1.423299
     46          7           0        3.291394   -1.609514   -1.268610
     47          8           0        3.850139    0.586000   -1.111370
     48          6           0        4.186423   -0.584909   -1.087927
     49          1           0        6.890390   -2.514901   -0.685602
     50          6           0        5.833520   -2.316398   -0.858726
     51          6           0        6.484114    0.076090   -0.680318
     52          7           0        5.491819   -0.984023   -0.878484
     53          1           0        3.468544    3.444495    3.496615
     54          1           0        2.338779    3.637186    2.335316
     55          1           0        3.921869    3.617756    1.938446
     56          1           0        1.041353   -3.180186    1.197082
     57          1           0        2.650147   -2.907972    1.694848
     58          7           0        1.749560   -2.531205    1.475294
     59          6           0        1.504937   -1.221361    1.550504
     60          6           0        2.061856    1.054285    1.966426
     61          7           0        0.842942    1.531993    1.665662
     62          1           0       -0.988010    0.841143    1.056610
     63          6           0        0.025697    0.540134    1.317485
     64          7           0        0.268805   -0.772389    1.241538
     65          1           0        5.162478    1.146062    2.877438
     66          6           0        4.164385    0.848839    2.554292
     67          7           0        3.796937   -0.385195    2.309726
     68          6           0        2.465922   -0.269100    1.936021
     69          6           0        3.228447    3.234644    2.548820
     70          7           0        3.164267    1.771517    2.366785
 ---------------------------------------------------------------------

 SCF Done:  E(RwB97XD) =  -2048.74475866     A.U. after   15 cycles

 The electronic state is 1-A.
 Alpha  occ. eigenvalues --  -19.25985 -19.22218 -19.20691 -14.52518 -14.51482
 Alpha  occ. eigenvalues --  -14.49137 -14.48766 -14.48012 -14.47104 -14.46898
 Alpha  occ. eigenvalues --  -14.46569 -14.44487 -14.42844 -14.42790 -14.42376
 Alpha  occ. eigenvalues --  -14.42150 -14.41796 -14.41277 -14.40801 -14.40465
 Alpha  occ. eigenvalues --  -10.45615 -10.41374 -10.40317 -10.38503 -10.38318
 Alpha  occ. eigenvalues --  -10.37912 -10.37071 -10.35955 -10.35706 -10.35473
 Alpha  occ. eigenvalues --  -10.34452 -10.34428 -10.34353 -10.33745 -10.33444
 Alpha  occ. eigenvalues --  -10.33366 -10.33262 -10.31460 -10.31272 -10.31184
 Alpha  occ. eigenvalues --  -10.30790 -10.28906 -10.28204  -1.19537  -1.14138
 Alpha  occ. eigenvalues --   -1.13319  -1.13225  -1.11726  -1.10621  -1.09415
 Alpha  occ. eigenvalues --   -1.08726  -1.07831  -1.05300  -1.03400  -1.02639
 Alpha  occ. eigenvalues --   -1.00720  -1.00101  -0.99866  -0.98606  -0.97297
 Alpha  occ. eigenvalues --   -0.96580  -0.95424  -0.92940  -0.91157  -0.86561
 Alpha  occ. eigenvalues --   -0.85032  -0.84293  -0.84166  -0.83811  -0.82648
 Alpha  occ. eigenvalues --   -0.82495  -0.78985  -0.75826  -0.74701  -0.73849
 Alpha  occ. eigenvalues --   -0.73531  -0.73483  -0.73220  -0.71398  -0.69220
 Alpha  occ. eigenvalues --   -0.67547  -0.66670  -0.66613  -0.65558  -0.64576
 Alpha  occ. eigenvalues --   -0.63857  -0.63164  -0.62889  -0.62776  -0.61936
 Alpha  occ. eigenvalues --   -0.60490  -0.59830  -0.59635  -0.59375  -0.59036
 Alpha  occ. eigenvalues --   -0.58560  -0.58445  -0.56817  -0.56763  -0.56651
 Alpha  occ. eigenvalues --   -0.56094  -0.55653  -0.54795  -0.54508  -0.54303
 Alpha  occ. eigenvalues --   -0.53736  -0.53526  -0.53016  -0.52779  -0.52629
 Alpha  occ. eigenvalues --   -0.52332  -0.52041  -0.51741  -0.51097  -0.50502
 Alpha  occ. eigenvalues --   -0.50235  -0.49571  -0.49421  -0.48983  -0.48830
 Alpha  occ. eigenvalues --   -0.48640  -0.48330  -0.47811  -0.47790  -0.47498
 Alpha  occ. eigenvalues --   -0.47293  -0.45446  -0.45354  -0.44167  -0.43184
 Alpha  occ. eigenvalues --   -0.41519  -0.39604  -0.39548  -0.37537  -0.37419
 Alpha  occ. eigenvalues --   -0.37313  -0.36477  -0.36386  -0.35989  -0.34604
 Alpha  occ. eigenvalues --   -0.33901  -0.33819  -0.33395  -0.33212  -0.32843
 Alpha  occ. eigenvalues --   -0.32714  -0.32400  -0.32109  -0.31897  -0.31297
 Alpha  occ. eigenvalues --   -0.30674  -0.28634  -0.26106  -0.25541
 Alpha virt. eigenvalues --    0.02945   0.05040   0.07600   0.07925   0.08495
 Alpha virt. eigenvalues --    0.09352   0.09539   0.10612   0.11286   0.11974
 Alpha virt. eigenvalues --    0.12711   0.13723   0.14489   0.14691   0.15181

 Mulliken charges:
               1
     1  N   -0.311251
     2  C    0.180728
     3  C    0.035578
     4  N   -0.257950
     5  C    0.133200
     6  H    0.027549
     7  N   -0.286745
     8  C    0.125435
     9  H    0.012604
    10  N   -0.289348
    11  C    0.237572
    12  C    0.119754
    13  N   -0.050792
    14  H    0.108639
    15  H    0.089034
    16  H    0.026481
    17  H    0.034636
    18  H    0.025838
    19  N   -0.308820
    20  C    0.238898
    21  C    0.180808
    22  N   -0.116354
    23  H    0.114022
    24  H    0.116751
    25  N   -0.297349
    26  C    0.231552
    27  N   -0.123643
    28  H    0.117594
    29  C    0.148711
    30  O   -0.319914
    31  C    0.005338
    32  N   -0.222277
    33  C    0.129913
    34  H    0.029524
    35  H    0.031013
    36  H    0.027813
    37  H    0.024159
    38  H    0.060288
    39  H    0.060819
    40  H    0.071278
    41  H    0.030889
    42  C   -0.112754
    43  O   -0.272271
    44  C    0.165706
    45  H    0.137590
    46  N   -0.131979
    47  O   -0.352408
    48  C    0.361180
    49  H    0.048379
    50  C    0.179848
    51  C    0.041250
    52  N   -0.291907
    53  H    0.033656
    54  H    0.040752
    55  H    0.017349
    56  H    0.124848
    57  H    0.116435
    58  N   -0.053898
    59  C    0.108772
    60  C    0.232380
    61  N   -0.260821
    62  H    0.052038
    63  C    0.150356
    64  N   -0.298862
    65  H    0.027945
    66  C    0.129902
    67  N   -0.266384
    68  C    0.018100
    69  C    0.172285
    70  N   -0.309463
 Sum of Mulliken charges =  -0.00000

 Dipole moment (field-independent basis, Debye):
    X=              7.4220    Y=              5.9204    Z=              2.4010  Tot=              9.7929
 Quadrupole moment (field-independent basis, Debye-Ang):
   XX=           -143.4265   YY=           -222.7178   ZZ=           -252.2018
   XY=              7.1891   XZ=             13.5568   YZ=             -7.2715

 Normal termination of Gaussian 16 at Tue Jan 23 11:53:24 2018.
