 Gaussian 16, Revision A.03,
 Gaussian 16:  EM64L-G16RevA.03 25-Dec-2016

 ---------------------------------------
 #p wb97xd/cc-pvdz sp scf=(maxcycles=20)
 ---------------------------------------

 ------------------
 Base pair stacking
 ------------------
 Symbolic Z-matrix:
 Charge =  0 Multiplicity = 1

                         Standard orientation:
 ---------------------------------------------------------------------
 Center     Atomic      Atomic             Coordinates (Angstroms)
 Number     Number       Type             X           Y           Z
 ---------------------------------------------------------------------
      1          7           0       -5.859366   -1.790025    0.906731
      2          6           0       -7.242566   -1.338736    1.153884
      3          6           0       -3.664602   -1.921082    0.850213
      4          7           0       -4.137754   -3.050553    0.198174
      5          6           0       -5.441068   -2.926388    0.258318
      6          1           0       -6.151810   -3.641021   -0.157735
      7          7           0       -2.239897   -0.295946    1.794719
      8          6           0       -3.349541    0.355013    2.158763
      9          1           0       -3.186097    1.288427    2.695683
     10          7           0       -4.624776    0.027605    1.960063
     11          6           0       -4.714093   -1.134639    1.292494
     12          6           0       -2.363333   -1.462383    1.124451
     13          7           0       -1.256833   -2.113658    0.760210
     14          1           0       -1.300755   -2.980576    0.262461
     15          1           0       -0.346742   -1.757441    0.972331
     16          1           0       -7.726628   -2.025166    1.696718
     17          1           0       -7.227282   -0.471888    1.651343
     18          1           0       -7.715008   -1.212243    0.281645
     19          7           0       -3.755049    2.655823   -1.289216
     20          6           0       -2.395287    2.459914   -1.262557
     21          6           0       -4.439371    3.932640   -1.002611
     22          7           0        0.812464    3.695583   -0.767356
     23          1           0        1.749720    3.349815   -0.802639
     24          1           0        0.693207    4.659670   -0.528570
     25          7           0       -1.463373    3.393405   -0.972397
     26          6           0       -0.237905    2.902785   -1.028349
     27          7           0        0.054703    1.598116   -1.344105
     28          1           0        1.021133    1.310679   -1.362897
     29          6           0       -0.888066    0.620443   -1.646117
     30          8           0       -0.518299   -0.528530   -1.917876
     31          6           0       -2.209245    1.132545   -1.590080
     32          7           0       -3.427692    0.507701   -1.817774
     33          6           0       -4.313589    1.447640   -1.628303
     34          1           0       -5.391635    1.313150   -1.723224
     35          1           0       -5.054601    3.815502   -0.223775
     36          1           0       -3.759096    4.631726   -0.786299
     37          1           0       -4.965701    4.217617   -1.802960
     38          1           0        5.965061    0.355319   -0.657466
     39          1           0        6.032816    0.512792   -2.411111
     40          1           0        4.859008    1.450683   -1.487044
     41          1           0        4.230648   -3.928494   -1.994359
     42          6           0        3.899675   -2.893000   -1.914165
     43          8           0        1.592426   -3.426785   -2.051248
     44          6           0        2.498935   -2.601487   -1.942112
     45          1           0        1.208745   -1.015553   -1.849548
     46          7           0        2.188694   -1.260875   -1.833712
     47          8           0        2.697542    0.941628   -1.616268
     48          6           0        3.068672   -0.215484   -1.705841
     49          1           0        5.857972   -2.063350   -1.763998
     50          6           0        4.782224   -1.894797   -1.790418
     51          6           0        5.378968    0.506449   -1.551742
     52          7           0        4.401402   -0.576994   -1.686803
     53          1           0        4.669382    2.934951    3.917310
     54          1           0        3.394024    3.295012    2.965510
     55          1           0        4.913197    3.470303    2.395014
     56          1           0        2.248445   -3.190137    0.498552
     57          1           0        3.894697   -2.921564    0.856094
     58          7           0        2.958546   -2.569167    0.830676
     59          6           0        2.670941   -1.326211    1.222489
     60          6           0        3.180642    0.839307    2.066563
     61          7           0        1.914468    1.285643    2.021507
     62          1           0        0.051400    0.617959    1.488774
     63          6           0        1.101754    0.338235    1.558036
     64          7           0        1.387870   -0.907274    1.165081
     65          1           0        6.365380    0.945659    2.612719
     66          6           0        5.347593    0.657105    2.348524
     67          7           0        5.003922   -0.517610    1.879909
     68          6           0        3.632503   -0.415528    1.696805
     69          6           0        4.319664    2.918055    2.980601
     70          7           0        4.294060    1.527552    2.486796
 ---------------------------------------------------------------------

 SCF Done:  E(RwB97XD) =  -2048.74628245     A.U. after   15 cycles

 The electronic state is 1-A.
 Alpha  occ. eigenvalues --  -19.26010 -19.22553 -19.20720 -14.52551 -14.52147
 Alpha  occ. eigenvalues --  -14.48821 -14.48347 -14.47941 -14.47551 -14.47053
 Alpha  occ. eigenvalues --  -14.46786 -14.45276 -14.43863 -14.43848 -14.42114
 Alpha  occ. eigenvalues --  -14.41789 -14.40932 -14.40900 -14.40574 -14.39890
 Alpha  occ. eigenvalues --  -10.45608 -10.41338 -10.40570 -10.39474 -10.38325
 Alpha  occ. eigenvalues --  -10.37889 -10.37763 -10.36821 -10.35336 -10.35046
 Alpha  occ. eigenvalues --  -10.35004 -10.34398 -10.33678 -10.33609 -10.33384
 Alpha  occ. eigenvalues --  -10.32910 -10.32756 -10.32329 -10.31300 -10.30915
 Alpha  occ. eigenvalues --  -10.30759 -10.28166 -10.28047  -1.19569  -1.14880
 Alpha  occ. eigenvalues --   -1.13548  -1.13297  -1.10890  -1.10650  -1.09451
 Alpha  occ. eigenvalues --   -1.08855  -1.08665  -1.04628  -1.04405  -1.02685
 Alpha  occ. eigenvalues --   -1.00687  -1.00019  -0.99854  -0.98636  -0.96646
 Alpha  occ. eigenvalues --   -0.96595  -0.96334  -0.92288  -0.91234  -0.87290
 Alpha  occ. eigenvalues --   -0.85617  -0.84169  -0.83633  -0.83554  -0.82542
 Alpha  occ. eigenvalues --   -0.81959  -0.79039  -0.76666  -0.74706  -0.74419
 Alpha  occ. eigenvalues --   -0.73759  -0.73534  -0.72502  -0.70667  -0.70051
 Alpha  occ. eigenvalues --   -0.67482  -0.66676  -0.66427  -0.65897  -0.64623
 Alpha  occ. eigenvalues --   -0.63976  -0.63773  -0.62763  -0.62318  -0.61847
 Alpha  occ. eigenvalues --   -0.60393  -0.60128  -0.60019  -0.59574  -0.59126
 Alpha  occ. eigenvalues --   -0.59066  -0.58475  -0.56659  -0.56213  -0.56114
 Alpha  occ. eigenvalues --   -0.56064  -0.55143  -0.54911  -0.54535  -0.54358
 Alpha  occ. eigenvalues --   -0.53769  -0.53629  -0.53316  -0.53177  -0.53065
 Alpha  occ. eigenvalues --   -0.52493  -0.52454  -0.51456  -0.50404  -0.50302
 Alpha  occ. eigenvalues --   -0.49909  -0.49630  -0.49513  -0.49062  -0.49028
 Alpha  occ. eigenvalues --   -0.48557  -0.48449  -0.48218  -0.47706  -0.47510
 Alpha  occ. eigenvalues --   -0.46592  -0.45770  -0.44609  -0.44554  -0.43919
 Alpha  occ. eigenvalues --   -0.40717  -0.40392  -0.39564  -0.37417  -0.37369
 Alpha  occ. eigenvalues --   -0.37336  -0.37166  -0.36761  -0.36245  -0.34500
 Alpha  occ. eigenvalues --   -0.34133  -0.33917  -0.33654  -0.33090  -0.33059
 Alpha  occ. eigenvalues --   -0.32703  -0.32532  -0.32374  -0.31962  -0.30536
 Alpha  occ. eigenvalues --   -0.30085  -0.29366  -0.25642  -0.25136
 Alpha virt. eigenvalues --    0.02682   0.04389   0.07373   0.08274   0.08387
 Alpha virt. eigenvalues --    0.09212   0.09711   0.10813   0.11432   0.12150
 Alpha virt. eigenvalues --    0.12939   0.14443   0.14713   0.14777   0.15280

 Mulliken charges:
               1
     1  N   -0.312950
     2  C    0.180648
     3  C    0.057701
     4  N   -0.257539
     5  C    0.134960
     6  H    0.024836
     7  N   -0.295836
     8  C    0.134559
     9  H    0.009440
    10  N   -0.292801
    11  C    0.243869
    12  C    0.107392
    13  N   -0.049693
    14  H    0.113390
    15  H    0.086158
    16  H    0.024957
    17  H    0.031912
    18  H    0.023764
    19  N   -0.310600
    20  C    0.252759
    21  C    0.180448
    22  N   -0.119476
    23  H    0.114126
    24  H    0.117165
    25  N   -0.310440
    26  C    0.244249
    27  N   -0.149028
    28  H    0.122012
    29  C    0.188763
    30  O   -0.323239
    31  C   -0.010936
    32  N   -0.225510
    33  C    0.132967
    34  H    0.022005
    35  H    0.030864
    36  H    0.028642
    37  H    0.023872
    38  H    0.061750
    39  H    0.058989
    40  H    0.071293
    41  H    0.026793
    42  C   -0.115658
    43  O   -0.269360
    44  C    0.146249
    45  H    0.133533
    46  N   -0.108530
    47  O   -0.341855
    48  C    0.334737
    49  H    0.048994
    50  C    0.173583
    51  C    0.038724
    52  N   -0.278408
    53  H    0.033829
    54  H    0.041817
    55  H    0.025825
    56  H    0.128294
    57  H    0.115680
    58  N   -0.050507
    59  C    0.076946
    60  C    0.250808
    61  N   -0.273700
    62  H    0.038600
    63  C    0.163088
    64  N   -0.303579
    65  H    0.035375
    66  C    0.135097
    67  N   -0.266676
    68  C    0.025671
    69  C    0.180001
    70  N   -0.310818
 Sum of Mulliken charges =  -0.00000

 Dipole moment (field-independent basis, Debye):
    X=              7.9125    Y=              6.5896    Z=              1.7807  Tot=             10.4499
 Quadrupole moment (field-independent basis, Debye-Ang):
   XX=           -151.3775   YY=           -220.7244   ZZ=           -252.7955
   XY=              2.0759   XZ=              1.8160   YZ=             -2.7788

 Normal termination of Gaussian 16 at Tue Jan 23 00:36:36 2018.
