 Gaussian 16, Revision A.03,
 Gaussian 16:  EM64L-G16RevA.03 25-Dec-2016

 ---------------------------------------
 #p wb97xd/cc-pvdz sp scf=(maxcycles=20)
 ---------------------------------------

 ------------------
 Base pair stacking
 ------------------
 Symbolic Z-matrix:
 Charge =  0 Multiplicity = 1

                         Standard orientation:
 ---------------------------------------------------------------------
 Center     Atomic      Atomic             Coordinates (Angstroms)
 Number     Number       Type             X           Y           Z
 ---------------------------------------------------------------------
      1          7           0       -4.561866   -2.233889    1.610653
      2          6           0       -5.915640   -1.919570    2.107131
      3          6           0       -2.399892   -2.180644    1.210215
      4          7           0       -2.893499   -3.284434    0.529985
      5          6           0       -4.176257   -3.272334    0.798462
      6          1           0       -4.894378   -4.003884    0.426863
      7          7           0       -0.955785   -0.532493    2.082632
      8          6           0       -2.034946   -0.007742    2.672231
      9          1           0       -1.851514    0.886111    3.266906
     10          7           0       -3.300734   -0.419431    2.637698
     11          6           0       -3.416486   -1.523211    1.880923
     12          6           0       -1.105293   -1.642982    1.327953
     13          7           0       -0.029230   -2.168277    0.738603
     14          1           0       -0.093183   -2.989758    0.170887
     15          1           0        0.877024   -1.758835    0.844399
     16          1           0       -6.260681   -2.687326    2.647218
     17          1           0       -5.879939   -1.100461    2.678906
     18          1           0       -6.527482   -1.757218    1.333005
     19          7           0       -5.065187    2.402538   -0.602112
     20          6           0       -3.707060    2.307105   -0.787624
     21          6           0       -5.787173    3.624055   -0.193030
     22          7           0       -0.558608    3.772962   -0.770308
     23          1           0        0.384399    3.497305   -0.954638
     24          1           0       -0.708663    4.724432   -0.500296
     25          7           0       -2.811144    3.305156   -0.628642
     26          6           0       -1.576884    2.906356   -0.879988
     27          7           0       -1.243387    1.628381   -1.258214
     28          1           0       -0.273272    1.412951   -1.429774
     29          6           0       -2.148659    0.585528   -1.427964
     30          8           0       -1.743549   -0.531723   -1.772017
     31          6           0       -3.478758    0.998708   -1.161509
     32          7           0       -4.669608    0.287052   -1.209751
     33          6           0       -5.580976    1.158268   -0.871216
     34          1           0       -6.648256    0.945288   -0.801797
     35          1           0       -6.264891    3.457983    0.668955
     36          1           0       -5.133762    4.370193   -0.072246
     37          1           0       -6.449771    3.873596   -0.898373
     38          1           0        4.776058    0.820464   -1.507020
     39          1           0        4.561047    0.991437   -3.247481
     40          1           0        3.479399    1.835676   -2.139019
     41          1           0        3.168907   -3.572513   -2.631921
     42          6           0        2.780646   -2.564604   -2.484948
     43          8           0        0.524303   -3.266049   -2.275111
     44          6           0        1.375058   -2.376838   -2.292857
     45          1           0        0.003877   -0.890655   -1.977473
     46          7           0        0.989622   -1.063264   -2.116204
     47          8           0        1.366148    1.169580   -1.943385
     48          6           0        1.801284    0.043389   -2.107771
     49          1           0        4.673866   -1.593850   -2.623468
     50          6           0        3.597598   -1.504797   -2.481761
     51          6           0        4.049725    0.932612   -2.298180
     52          7           0        3.143515   -0.219141   -2.299374
     53          1           0        5.970198    3.054640    3.441134
     54          1           0        4.539142    3.390471    2.733048
     55          1           0        5.933761    3.737254    1.959203
     56          1           0        3.454649   -2.929535   -0.154311
     57          1           0        5.115001   -2.559782   -0.025408
     58          7           0        4.165136   -2.283813    0.125663
     59          6           0        3.860552   -1.106766    0.676104
     60          6           0        4.351174    1.012195    1.640993
     61          7           0        3.066807    1.356288    1.831872
     62          1           0        1.191878    0.587705    1.524412
     63          6           0        2.256299    0.389406    1.406289
     64          7           0        2.559419   -0.790195    0.854703
     65          1           0        7.567847    1.329747    1.706818
     66          6           0        6.542727    0.983221    1.572704
     67          7           0        6.208700   -0.170788    1.048896
     68          6           0        4.821873   -0.165174    1.086239
     69          6           0        5.478651    3.090156    2.571008
     70          7           0        5.468439    1.749931    1.953206
 ---------------------------------------------------------------------

 SCF Done:  E(RwB97XD) =  -2048.74132320     A.U. after   15 cycles

 The electronic state is 1-A.
 Alpha  occ. eigenvalues --  -19.25832 -19.22050 -19.20788 -14.52507 -14.52411
 Alpha  occ. eigenvalues --  -14.49202 -14.48376 -14.47736 -14.47675 -14.47117
 Alpha  occ. eigenvalues --  -14.46948 -14.45429 -14.44603 -14.44405 -14.42298
 Alpha  occ. eigenvalues --  -14.41896 -14.41415 -14.40389 -14.40260 -14.39925
 Alpha  occ. eigenvalues --  -10.45433 -10.41527 -10.40174 -10.40163 -10.38456
 Alpha  occ. eigenvalues --  -10.38093 -10.37985 -10.37278 -10.35930 -10.35009
 Alpha  occ. eigenvalues --  -10.34958 -10.34717 -10.33820 -10.33759 -10.33060
 Alpha  occ. eigenvalues --  -10.32805 -10.32582 -10.32573 -10.31275 -10.30943
 Alpha  occ. eigenvalues --  -10.30108 -10.28476 -10.27763  -1.19370  -1.15203
 Alpha  occ. eigenvalues --   -1.13460  -1.13086  -1.10944  -1.10363  -1.09699
 Alpha  occ. eigenvalues --   -1.09208  -1.08816  -1.05052  -1.04534  -1.02386
 Alpha  occ. eigenvalues --   -1.01000  -1.00022  -0.99925  -0.98848  -0.97077
 Alpha  occ. eigenvalues --   -0.96984  -0.96017  -0.92231  -0.91182  -0.87676
 Alpha  occ. eigenvalues --   -0.85861  -0.84493  -0.83552  -0.83110  -0.82857
 Alpha  occ. eigenvalues --   -0.81509  -0.78951  -0.77170  -0.74965  -0.74948
 Alpha  occ. eigenvalues --   -0.73920  -0.73336  -0.72245  -0.70569  -0.70373
 Alpha  occ. eigenvalues --   -0.67692  -0.66985  -0.66567  -0.65649  -0.64668
 Alpha  occ. eigenvalues --   -0.64354  -0.63958  -0.62912  -0.62101  -0.62062
 Alpha  occ. eigenvalues --   -0.60749  -0.60333  -0.60103  -0.59584  -0.59267
 Alpha  occ. eigenvalues --   -0.59217  -0.58651  -0.56975  -0.56085  -0.55978
 Alpha  occ. eigenvalues --   -0.55424  -0.55280  -0.54968  -0.54575  -0.54290
 Alpha  occ. eigenvalues --   -0.53867  -0.53751  -0.53644  -0.53290  -0.53105
 Alpha  occ. eigenvalues --   -0.52826  -0.52382  -0.51018  -0.50461  -0.50108
 Alpha  occ. eigenvalues --   -0.49916  -0.49608  -0.49495  -0.49438  -0.49084
 Alpha  occ. eigenvalues --   -0.48637  -0.48372  -0.48222  -0.48095  -0.47465
 Alpha  occ. eigenvalues --   -0.46276  -0.45846  -0.45678  -0.44343  -0.43284
 Alpha  occ. eigenvalues --   -0.40730  -0.40595  -0.39449  -0.37860  -0.37656
 Alpha  occ. eigenvalues --   -0.37628  -0.37578  -0.36404  -0.35838  -0.34947
 Alpha  occ. eigenvalues --   -0.34470  -0.34256  -0.33366  -0.32974  -0.32879
 Alpha  occ. eigenvalues --   -0.32799  -0.32562  -0.32302  -0.32120  -0.30187
 Alpha  occ. eigenvalues --   -0.29890  -0.29743  -0.25863  -0.25179
 Alpha virt. eigenvalues --    0.02660   0.04015   0.06721   0.08473   0.08828
 Alpha virt. eigenvalues --    0.08907   0.09489   0.10489   0.11379   0.11593
 Alpha virt. eigenvalues --    0.13489   0.14101   0.14337   0.15159   0.15198

 Mulliken charges:
               1
     1  N   -0.309904
     2  C    0.182009
     3  C    0.053143
     4  N   -0.252650
     5  C    0.147324
     6  H    0.025557
     7  N   -0.300195
     8  C    0.130660
     9  H    0.008740
    10  N   -0.286929
    11  C    0.251371
    12  C    0.090899
    13  N   -0.067293
    14  H    0.117114
    15  H    0.086102
    16  H    0.021640
    17  H    0.029833
    18  H    0.026220
    19  N   -0.310835
    20  C    0.256585
    21  C    0.181075
    22  N   -0.124320
    23  H    0.118222
    24  H    0.119021
    25  N   -0.312613
    26  C    0.250678
    27  N   -0.150130
    28  H    0.120698
    29  C    0.199020
    30  O   -0.319480
    31  C   -0.015428
    32  N   -0.229604
    33  C    0.124192
    34  H    0.022549
    35  H    0.028072
    36  H    0.030501
    37  H    0.025304
    38  H    0.067111
    39  H    0.059464
    40  H    0.075196
    41  H    0.026218
    42  C   -0.142037
    43  O   -0.268583
    44  C    0.172681
    45  H    0.132568
    46  N   -0.123075
    47  O   -0.350488
    48  C    0.353297
    49  H    0.041914
    50  C    0.181312
    51  C    0.037149
    52  N   -0.277052
    53  H    0.033949
    54  H    0.042625
    55  H    0.028845
    56  H    0.121640
    57  H    0.114551
    58  N   -0.060025
    59  C    0.098478
    60  C    0.247814
    61  N   -0.271117
    62  H    0.034961
    63  C    0.175903
    64  N   -0.317635
    65  H    0.038905
    66  C    0.138050
    67  N   -0.263633
    68  C    0.013758
    69  C    0.180523
    70  N   -0.310413
 Sum of Mulliken charges =  -0.00000

 Dipole moment (field-independent basis, Debye):
    X=              7.6747    Y=              7.5574    Z=              0.5674  Tot=             10.7860
 Quadrupole moment (field-independent basis, Debye-Ang):
   XX=           -158.7515   YY=           -220.4316   ZZ=           -249.8485
   XY=             -0.1089   XZ=            -13.2752   YZ=             -1.6320

 Normal termination of Gaussian 16 at Tue Jan 23 07:48:40 2018.
