 Gaussian 16, Revision A.03,
 Gaussian 16:  EM64L-G16RevA.03 25-Dec-2016

 ---------------------------------------
 #p wb97xd/cc-pvdz sp scf=(maxcycles=20)
 ---------------------------------------

 ------------------
 Base pair stacking
 ------------------
 Symbolic Z-matrix:
 Charge =  0 Multiplicity = 1

                         Standard orientation:
 ---------------------------------------------------------------------
 Center     Atomic      Atomic             Coordinates (Angstroms)
 Number     Number       Type             X           Y           Z
 ---------------------------------------------------------------------
      1          7           0        4.236107   -2.112529   -1.855707
      2          6           0        5.587315   -1.756176   -2.330300
      3          6           0        2.080808   -2.082175   -1.418576
      4          7           0        2.567819   -3.267771   -0.887635
      5          6           0        3.846816   -3.238611   -1.172240
      6          1           0        4.559403   -4.019460   -0.904975
      7          7           0        0.648665   -0.320748   -2.058330
      8          6           0        1.727062    0.259374   -2.595078
      9          1           0        1.548319    1.222192   -3.071850
     10          7           0        2.987169   -0.169257   -2.631150
     11          6           0        3.097436   -1.359577   -2.018446
     12          6           0        0.792558   -1.517885   -1.449055
     13          7           0       -0.282741   -2.098563   -0.912662
     14          1           0       -0.222804   -2.984733   -0.451856
     15          1           0       -1.184406   -1.667848   -0.953107
     16          1           0        5.913882   -2.455438   -2.966347
     17          1           0        5.555537   -0.872216   -2.795841
     18          1           0        6.211978   -1.698576   -1.551534
     19          7           0        5.369670    2.244233    0.565259
     20          6           0        4.014536    2.151087    0.772564
     21          6           0        6.093880    3.476676    0.194712
     22          7           0        0.878530    3.639760    0.877970
     23          1           0       -0.063083    3.363519    1.068466
     24          1           0        1.031317    4.600743    0.645837
     25          7           0        3.124056    3.161669    0.673375
     26          6           0        1.891504    2.761706    0.931165
     27          7           0        1.554648    1.471274    1.261040
     28          1           0        0.586196    1.255950    1.441859
     29          6           0        2.454319    0.415420    1.368909
     30          8           0        2.046545   -0.712444    1.672857
     31          6           0        3.782525    0.829673    1.094787
     32          7           0        4.968148    0.107757    1.089880
     33          6           0        5.880141    0.985816    0.771277
     34          1           0        6.944137    0.768047    0.672410
     35          1           0        6.553878    3.343983   -0.682562
     36          1           0        5.444483    4.232140    0.118322
     37          1           0        6.771684    3.690964    0.897184
     38          1           0       -4.465496    0.698333    1.590681
     39          1           0       -4.216318    0.793283    3.332383
     40          1           0       -3.148826    1.675964    2.240276
     41          1           0       -2.873777   -3.750491    2.496757
     42          6           0       -2.480044   -2.740152    2.385342
     43          8           0       -0.233929   -3.448786    2.102635
     44          6           0       -1.076817   -2.554823    2.174488
     45          1           0        0.300396   -1.066796    1.896336
     46          7           0       -0.683947   -1.237816    2.046481
     47          8           0       -1.045213    1.003100    1.976009
     48          6           0       -1.486465   -0.125803    2.100676
     49          1           0       -4.362223   -1.762115    2.601297
     50          6           0       -3.288132   -1.675121    2.442891
     51          6           0       -3.723489    0.771196    2.371811
     52          7           0       -2.826966   -0.386271    2.306658
     53          1           0       -6.243148    3.493456   -2.856499
     54          1           0       -4.797848    3.721112   -2.134431
     55          1           0       -6.176621    3.986896   -1.302311
     56          1           0       -3.764617   -2.920758   -0.067214
     57          1           0       -5.421102   -2.517117   -0.123901
     58          7           0       -4.469543   -2.236501   -0.254290
     59          6           0       -4.155692   -1.004290   -0.659680
     60          6           0       -4.629053    1.223783   -1.347661
     61          7           0       -3.342625    1.572737   -1.514265
     62          1           0       -1.474868    0.748567   -1.333009
     63          6           0       -2.540302    0.550526   -1.223944
     64          7           0       -2.852712   -0.684377   -0.817770
     65          1           0       -7.841451    1.587330   -1.324283
     66          6           0       -6.819656    1.214047   -1.249795
     67          7           0       -6.495072   -0.000015   -0.877801
     68          6           0       -5.108936   -0.007203   -0.935481
     69          6           0       -5.739261    3.414844   -1.996317
     70          7           0       -5.739798    2.008434   -1.549107
 ---------------------------------------------------------------------

 SCF Done:  E(RwB97XD) =  -2048.74603158     A.U. after   15 cycles

 The electronic state is 1-A.
 Alpha  occ. eigenvalues --  -19.25590 -19.21752 -19.20803 -14.52476 -14.52147
 Alpha  occ. eigenvalues --  -14.49286 -14.48696 -14.47797 -14.47460 -14.47083
 Alpha  occ. eigenvalues --  -14.46910 -14.45444 -14.44834 -14.44613 -14.42329
 Alpha  occ. eigenvalues --  -14.42298 -14.41552 -14.40605 -14.40334 -14.40191
 Alpha  occ. eigenvalues --  -10.45159 -10.41517 -10.40363 -10.39876 -10.38470
 Alpha  occ. eigenvalues --  -10.38027 -10.37773 -10.37413 -10.36110 -10.35239
 Alpha  occ. eigenvalues --  -10.34767 -10.34740 -10.33930 -10.33812 -10.33139
 Alpha  occ. eigenvalues --  -10.32951 -10.32776 -10.32722 -10.31345 -10.30863
 Alpha  occ. eigenvalues --  -10.29983 -10.28531 -10.27953  -1.19112  -1.15287
 Alpha  occ. eigenvalues --   -1.13473  -1.12793  -1.11007  -1.10462  -1.09764
 Alpha  occ. eigenvalues --   -1.09004  -1.08801  -1.05208  -1.04790  -1.02136
 Alpha  occ. eigenvalues --   -1.01060  -1.00225  -0.99999  -0.98873  -0.97245
 Alpha  occ. eigenvalues --   -0.97051  -0.96116  -0.92497  -0.90896  -0.87805
 Alpha  occ. eigenvalues --   -0.85940  -0.84551  -0.83292  -0.83208  -0.82906
 Alpha  occ. eigenvalues --   -0.81551  -0.78649  -0.77289  -0.75095  -0.74993
 Alpha  occ. eigenvalues --   -0.73912  -0.73086  -0.72438  -0.70707  -0.70545
 Alpha  occ. eigenvalues --   -0.67694  -0.67098  -0.66319  -0.65847  -0.64628
 Alpha  occ. eigenvalues --   -0.64449  -0.63790  -0.62885  -0.62302  -0.62087
 Alpha  occ. eigenvalues --   -0.60779  -0.60417  -0.60048  -0.59460  -0.59344
 Alpha  occ. eigenvalues --   -0.59137  -0.58624  -0.57050  -0.56132  -0.55941
 Alpha  occ. eigenvalues --   -0.55412  -0.55379  -0.55187  -0.54699  -0.54335
 Alpha  occ. eigenvalues --   -0.53793  -0.53739  -0.53671  -0.53259  -0.52957
 Alpha  occ. eigenvalues --   -0.52694  -0.52134  -0.51066  -0.50465  -0.50209
 Alpha  occ. eigenvalues --   -0.50019  -0.49648  -0.49548  -0.49342  -0.49052
 Alpha  occ. eigenvalues --   -0.48470  -0.48381  -0.48200  -0.48010  -0.47380
 Alpha  occ. eigenvalues --   -0.46401  -0.45739  -0.45631  -0.44578  -0.43387
 Alpha  occ. eigenvalues --   -0.40862  -0.40819  -0.39276  -0.38029  -0.37769
 Alpha  occ. eigenvalues --   -0.37680  -0.37573  -0.36551  -0.35621  -0.35116
 Alpha  occ. eigenvalues --   -0.34640  -0.34282  -0.33275  -0.33034  -0.32983
 Alpha  occ. eigenvalues --   -0.32806  -0.32631  -0.32150  -0.31818  -0.30319
 Alpha  occ. eigenvalues --   -0.30262  -0.30048  -0.25946  -0.25369
 Alpha virt. eigenvalues --    0.03227   0.03745   0.06707   0.08327   0.08718
 Alpha virt. eigenvalues --    0.08879   0.09486   0.10401   0.11371   0.11583
 Alpha virt. eigenvalues --    0.13638   0.14034   0.14300   0.15054   0.15104

 Mulliken charges:
               1
     1  N   -0.308695
     2  C    0.182269
     3  C    0.055533
     4  N   -0.251863
     5  C    0.149958
     6  H    0.027174
     7  N   -0.299004
     8  C    0.128802
     9  H    0.009337
    10  N   -0.283763
    11  C    0.249784
    12  C    0.085320
    13  N   -0.068876
    14  H    0.116260
    15  H    0.083300
    16  H    0.020574
    17  H    0.029154
    18  H    0.028622
    19  N   -0.310815
    20  C    0.258244
    21  C    0.181347
    22  N   -0.124035
    23  H    0.119324
    24  H    0.119049
    25  N   -0.313002
    26  C    0.250425
    27  N   -0.148681
    28  H    0.121068
    29  C    0.197061
    30  O   -0.318584
    31  C   -0.015923
    32  N   -0.232186
    33  C    0.122703
    34  H    0.023372
    35  H    0.027400
    36  H    0.030969
    37  H    0.025618
    38  H    0.066215
    39  H    0.058623
    40  H    0.075428
    41  H    0.024423
    42  C   -0.129451
    43  O   -0.263280
    44  C    0.164458
    45  H    0.134388
    46  N   -0.122209
    47  O   -0.352903
    48  C    0.354901
    49  H    0.040687
    50  C    0.178477
    51  C    0.037949
    52  N   -0.278513
    53  H    0.034033
    54  H    0.042295
    55  H    0.029572
    56  H    0.118405
    57  H    0.118039
    58  N   -0.064531
    59  C    0.088030
    60  C    0.241316
    61  N   -0.268163
    62  H    0.034059
    63  C    0.174352
    64  N   -0.314081
    65  H    0.039545
    66  C    0.140349
    67  N   -0.261004
    68  C    0.021318
    69  C    0.180323
    70  N   -0.310291
 Sum of Mulliken charges =  -0.00000

 Dipole moment (field-independent basis, Debye):
    X=             -7.5253    Y=              7.5606    Z=             -0.2301  Tot=             10.6698
 Quadrupole moment (field-independent basis, Debye-Ang):
   XX=           -161.1793   YY=           -220.4421   ZZ=           -249.5590
   XY=              2.3608   XZ=            -16.4757   YZ=              4.2823

 Normal termination of Gaussian 16 at Tue Jan 23 04:29:11 2018.
