 Gaussian 16, Revision A.03,
 Gaussian 16:  EM64L-G16RevA.03 25-Dec-2016

 ---------------------------------------
 #p wb97xd/cc-pvdz sp scf=(maxcycles=20)
 ---------------------------------------

 ------------------
 Base pair stacking
 ------------------
 Symbolic Z-matrix:
 Charge =  0 Multiplicity = 1

                         Standard orientation:
 ---------------------------------------------------------------------
 Center     Atomic      Atomic             Coordinates (Angstroms)
 Number     Number       Type             X           Y           Z
 ---------------------------------------------------------------------
      1          7           0       -6.914292   -1.377350    0.296797
      2          6           0       -8.273778   -0.816117    0.175150
      3          6           0       -4.748558   -1.603586    0.606211
      4          7           0       -5.232463   -2.869418    0.309160
      5          6           0       -6.517871   -2.682456    0.134636
      6          1           0       -7.230337   -3.468843   -0.116198
      7          7           0       -3.317540    0.191498    1.147343
      8          6           0       -4.403908    0.969810    1.107241
      9          1           0       -4.228760    2.023942    1.317938
     10          7           0       -5.668223    0.643019    0.847164
     11          6           0       -5.773522   -0.673550    0.602266
     12          6           0       -3.456601   -1.128640    0.896390
     13          7           0       -2.373330   -1.907195    0.935949
     14          1           0       -2.429460   -2.890021    0.756752
     15          1           0       -1.469243   -1.534802    1.145939
     16          1           0       -8.877849   -1.255103    0.840403
     17          1           0       -8.245931    0.167658    0.349961
     18          1           0       -8.622623   -0.979200   -0.747728
     19          7           0       -2.583222    2.397489   -1.679119
     20          6           0       -1.246163    2.176684   -1.452025
     21          6           0       -3.273354    3.693427   -1.521157
     22          7           0        1.883185    3.363128   -0.523978
     23          1           0        2.807873    2.999034   -0.416133
     24          1           0        1.752060    4.334705   -0.325085
     25          7           0       -0.345440    3.099090   -1.049653
     26          6           0        0.864162    2.584289   -0.917557
     27          7           0        1.170357    1.267184   -1.160433
     28          1           0        2.122818    0.961227   -1.033278
     29          6           0        0.259612    0.300537   -1.575193
     30          8           0        0.639237   -0.861348   -1.766629
     31          6           0       -1.044207    0.838618   -1.721490
     32          7           0       -2.230604    0.231603   -2.109935
     33          6           0       -3.113583    1.192311   -2.070183
     34          1           0       -4.169390    1.075936   -2.317197
     35          1           0       -3.996860    3.606460   -0.837211
     36          1           0       -2.616103    4.384519   -1.223352
     37          1           0       -3.672391    3.969148   -2.394967
     38          1           0        6.891100   -0.070044    0.399461
     39          1           0        7.214413    0.044349   -1.328842
     40          1           0        5.940647    1.025909   -0.603986
     41          1           0        5.273374   -4.351030   -1.084693
     42          6           0        4.957245   -3.307867   -1.074789
     43          8           0        2.682636   -3.801205   -1.532948
     44          6           0        3.581935   -2.990761   -1.311073
     45          1           0        2.327214   -1.379052   -1.439123
     46          7           0        3.288991   -1.642338   -1.276634
     47          8           0        3.809683    0.554730   -1.033810
     48          6           0        4.164208   -0.610969   -1.044642
     49          1           0        6.891273   -2.511912   -0.660304
     50          6           0        5.834552   -2.323805   -0.845534
     51          6           0        6.443528    0.070767   -0.573123
     52          7           0        5.471952   -0.996968   -0.825549
     53          1           0        3.528071    3.688681    3.041955
     54          1           0        2.415118    3.748078    1.850361
     55          1           0        4.002374    3.658428    1.480696
     56          1           0        1.032660   -3.141083    1.561187
     57          1           0        2.639200   -2.829080    2.042639
     58          7           0        1.746841   -2.471396    1.765180
     59          6           0        1.520353   -1.159479    1.671686
     60          6           0        2.105208    1.143071    1.805575
     61          7           0        0.896998    1.594747    1.430534
     62          1           0       -0.936395    0.856322    0.888325
     63          6           0        0.069661    0.577538    1.198786
     64          7           0        0.294614   -0.737118    1.291868
     65          1           0        5.195764    1.308940    2.739972
     66          6           0        4.197393    0.986260    2.443211
     67          7           0        3.815028   -0.263921    2.350848
     68          6           0        2.490378   -0.178685    1.947403
     69          6           0        3.296253    3.364219    2.124909
     70          7           0        3.213043    1.890766    2.127515
 ---------------------------------------------------------------------

 SCF Done:  E(RwB97XD) =  -2048.72846090     A.U. after   15 cycles

 The electronic state is 1-A.
 Alpha  occ. eigenvalues --  -19.25942 -19.22041 -19.20588 -14.52447 -14.51721
 Alpha  occ. eigenvalues --  -14.49284 -14.48674 -14.47931 -14.46934 -14.46785
 Alpha  occ. eigenvalues --  -14.46558 -14.44663 -14.43104 -14.42680 -14.42623
 Alpha  occ. eigenvalues --  -14.42020 -14.41947 -14.41491 -14.40701 -14.40653
 Alpha  occ. eigenvalues --  -10.45554 -10.41234 -10.40161 -10.38762 -10.38186
 Alpha  occ. eigenvalues --  -10.37806 -10.37269 -10.36123 -10.35911 -10.35443
 Alpha  occ. eigenvalues --  -10.34603 -10.34476 -10.34331 -10.33916 -10.33663
 Alpha  occ. eigenvalues --  -10.33655 -10.33161 -10.31651 -10.31382 -10.31094
 Alpha  occ. eigenvalues --  -10.30705 -10.29086 -10.28099  -1.19490  -1.14390
 Alpha  occ. eigenvalues --   -1.13238  -1.13062  -1.11880  -1.10528  -1.09342
 Alpha  occ. eigenvalues --   -1.08665  -1.08071  -1.05496  -1.03656  -1.02545
 Alpha  occ. eigenvalues --   -1.00933  -1.00367  -0.99787  -0.98495  -0.97459
 Alpha  occ. eigenvalues --   -0.96490  -0.95684  -0.93144  -0.91068  -0.86842
 Alpha  occ. eigenvalues --   -0.85360  -0.84452  -0.84078  -0.83756  -0.82798
 Alpha  occ. eigenvalues --   -0.82418  -0.78896  -0.76095  -0.74664  -0.73850
 Alpha  occ. eigenvalues --   -0.73671  -0.73411  -0.73395  -0.71592  -0.69518
 Alpha  occ. eigenvalues --   -0.67473  -0.66799  -0.66589  -0.65858  -0.64487
 Alpha  occ. eigenvalues --   -0.63773  -0.63445  -0.63129  -0.62736  -0.61911
 Alpha  occ. eigenvalues --   -0.60686  -0.59998  -0.59700  -0.59519  -0.59320
 Alpha  occ. eigenvalues --   -0.58709  -0.58341  -0.57054  -0.56885  -0.56749
 Alpha  occ. eigenvalues --   -0.56009  -0.55832  -0.55265  -0.54588  -0.54389
 Alpha  occ. eigenvalues --   -0.53654  -0.53509  -0.53003  -0.52918  -0.52585
 Alpha  occ. eigenvalues --   -0.52357  -0.52195  -0.51948  -0.51256  -0.50670
 Alpha  occ. eigenvalues --   -0.50118  -0.49607  -0.49464  -0.48974  -0.48762
 Alpha  occ. eigenvalues --   -0.48670  -0.48228  -0.47949  -0.47812  -0.47466
 Alpha  occ. eigenvalues --   -0.47399  -0.45576  -0.45481  -0.44027  -0.43034
 Alpha  occ. eigenvalues --   -0.41716  -0.39752  -0.39502  -0.37719  -0.37372
 Alpha  occ. eigenvalues --   -0.37219  -0.36715  -0.36488  -0.35900  -0.34587
 Alpha  occ. eigenvalues --   -0.34073  -0.33958  -0.33294  -0.33216  -0.32856
 Alpha  occ. eigenvalues --   -0.32626  -0.32271  -0.31987  -0.31808  -0.31447
 Alpha  occ. eigenvalues --   -0.30864  -0.28654  -0.26297  -0.25414
 Alpha virt. eigenvalues --    0.03084   0.04711   0.07391   0.07744   0.08529
 Alpha virt. eigenvalues --    0.09374   0.09555   0.10409   0.11225   0.12007
 Alpha virt. eigenvalues --    0.12794   0.13646   0.14463   0.14679   0.14741

 Mulliken charges:
               1
     1  N   -0.311774
     2  C    0.180667
     3  C    0.037567
     4  N   -0.258644
     5  C    0.134125
     6  H    0.028215
     7  N   -0.283654
     8  C    0.120796
     9  H    0.014615
    10  N   -0.288523
    11  C    0.239205
    12  C    0.119669
    13  N   -0.052706
    14  H    0.108078
    15  H    0.088468
    16  H    0.026694
    17  H    0.034524
    18  H    0.026584
    19  N   -0.305987
    20  C    0.229557
    21  C    0.181397
    22  N   -0.100685
    23  H    0.112553
    24  H    0.117090
    25  N   -0.286675
    26  C    0.207501
    27  N   -0.113648
    28  H    0.120361
    29  C    0.136767
    30  O   -0.318578
    31  C    0.012982
    32  N   -0.221450
    33  C    0.126938
    34  H    0.029054
    35  H    0.028059
    36  H    0.027395
    37  H    0.024099
    38  H    0.060400
    39  H    0.061155
    40  H    0.070362
    41  H    0.030926
    42  C   -0.113950
    43  O   -0.268235
    44  C    0.173503
    45  H    0.136972
    46  N   -0.135001
    47  O   -0.351472
    48  C    0.361059
    49  H    0.047779
    50  C    0.177361
    51  C    0.040627
    52  N   -0.291998
    53  H    0.035040
    54  H    0.037062
    55  H    0.019491
    56  H    0.123189
    57  H    0.116569
    58  N   -0.062167
    59  C    0.114659
    60  C    0.224528
    61  N   -0.259976
    62  H    0.062336
    63  C    0.148442
    64  N   -0.298818
    65  H    0.028585
    66  C    0.130009
    67  N   -0.264607
    68  C    0.020094
    69  C    0.163884
    70  N   -0.308442
 Sum of Mulliken charges =  -0.00000

 Dipole moment (field-independent basis, Debye):
    X=              7.0528    Y=              5.8027    Z=              3.0363  Tot=              9.6246
 Quadrupole moment (field-independent basis, Debye-Ang):
   XX=           -143.5304   YY=           -223.7337   ZZ=           -253.7158
   XY=              7.9532   XZ=             13.0211   YZ=             -9.4483

 Normal termination of Gaussian 16 at Tue Jan 23 11:30:23 2018.
