 Gaussian 16, Revision A.03,
 Gaussian 16:  EM64L-G16RevA.03 25-Dec-2016

 ---------------------------------------
 #p wb97xd/cc-pvdz sp scf=(maxcycles=20)
 ---------------------------------------

 ------------------
 Base pair stacking
 ------------------
 Symbolic Z-matrix:
 Charge =  0 Multiplicity = 1

                         Standard orientation:
 ---------------------------------------------------------------------
 Center     Atomic      Atomic             Coordinates (Angstroms)
 Number     Number       Type             X           Y           Z
 ---------------------------------------------------------------------
      1          7           0       -7.215794   -1.336630    0.068132
      2          6           0       -8.589161   -0.796916    0.091763
      3          6           0       -5.042229   -1.576297    0.303658
      4          7           0       -5.499750   -2.745077   -0.287407
      5          6           0       -6.790935   -2.553908   -0.405647
      6          1           0       -7.487582   -3.274377   -0.835231
      7          7           0       -3.647593    0.070974    1.254668
      8          6           0       -4.752106    0.808524    1.408466
      9          1           0       -4.599247    1.784953    1.866168
     10          7           0       -6.011180    0.522361    1.083278
     11          6           0       -6.088484   -0.698711    0.528811
     12          6           0       -3.758635   -1.152945    0.693630
     13          7           0       -2.657222   -1.890676    0.539269
     14          1           0       -2.692421   -2.802527    0.128758
     15          1           0       -1.759847   -1.557251    0.828539
     16          1           0       -9.175774   -1.398195    0.634468
     17          1           0       -8.582306    0.116186    0.498373
     18          1           0       -8.943929   -0.741668   -0.841560
     19          7           0       -2.180529    2.607501   -1.743852
     20          6           0       -0.848253    2.351630   -1.525644
     21          6           0       -2.816685    3.938382   -1.674857
     22          7           0        2.344134    3.480266   -0.753235
     23          1           0        3.256308    3.088909   -0.634810
     24          1           0        2.254875    4.468818   -0.628673
     25          7           0        0.095933    3.265682   -1.214064
     26          6           0        1.287479    2.714655   -1.065065
     27          7           0        1.537389    1.371477   -1.209719
     28          1           0        2.479965    1.038417   -1.077124
     29          6           0        0.581224    0.412811   -1.529987
     30          8           0        0.911593   -0.774692   -1.636945
     31          6           0       -0.703870    0.989688   -1.693173
     32          7           0       -1.921011    0.402347   -2.010167
     33          6           0       -2.765335    1.397830   -2.029049
     34          1           0       -3.830027    1.305008   -2.246029
     35          1           0       -3.527699    3.933798   -0.972547
     36          1           0       -2.126935    4.623629   -1.444728
     37          1           0       -3.224054    4.161228   -2.559840
     38          1           0        7.235598   -0.068653    0.340991
     39          1           0        7.524784   -0.101744   -1.396808
     40          1           0        6.306014    0.983310   -0.727007
     41          1           0        5.422133   -4.383681   -0.771887
     42          6           0        5.146616   -3.331068   -0.837774
     43          8           0        2.845164   -3.767006   -1.212448
     44          6           0        3.779632   -2.978446   -1.071965
     45          1           0        2.585254   -1.332595   -1.302059
     46          7           0        3.539550   -1.620775   -1.137768
     47          8           0        4.149536    0.565894   -1.077914
     48          6           0        4.458676   -0.610391   -1.004066
     49          1           0        7.118496   -2.583435   -0.523879
     50          6           0        6.065953   -2.368104   -0.703130
     51          6           0        6.772388    0.014079   -0.630941
     52          7           0        5.755150   -1.030267   -0.780333
     53          1           0        3.134755    3.179659    3.903860
     54          1           0        2.008112    3.496303    2.766970
     55          1           0        3.593002    3.538157    2.379091
     56          1           0        0.782952   -3.152959    0.832603
     57          1           0        2.386845   -2.925853    1.367452
     58          7           0        1.483527   -2.534400    1.188598
     59          6           0        1.225664   -1.244676    1.415092
     60          6           0        1.758291    0.971807    2.097180
     61          7           0        0.536006    1.470030    1.847754
     62          1           0       -1.285413    0.838135    1.152246
     63          6           0       -0.269910    0.518139    1.381615
     64          7           0       -0.013523   -0.774177    1.154060
     65          1           0        4.853934    0.985269    3.029380
     66          6           0        3.860224    0.718604    2.668325
     67          7           0        3.506018   -0.481732    2.279206
     68          6           0        2.175537   -0.335118    1.914461
     69          6           0        2.900789    3.079863    2.936753
     70          7           0        2.851846    1.647523    2.584579
 ---------------------------------------------------------------------

 SCF Done:  E(RwB97XD) =  -2048.74717634     A.U. after   15 cycles

 The electronic state is 1-A.
 Alpha  occ. eigenvalues --  -19.26086 -19.22496 -19.20919 -14.52660 -14.51003
 Alpha  occ. eigenvalues --  -14.49133 -14.48909 -14.48166 -14.47389 -14.47259
 Alpha  occ. eigenvalues --  -14.45790 -14.44031 -14.42387 -14.42347 -14.42254
 Alpha  occ. eigenvalues --  -14.42244 -14.41812 -14.41206 -14.40944 -14.40424
 Alpha  occ. eigenvalues --  -10.45737 -10.41611 -10.40544 -10.38551 -10.38029
 Alpha  occ. eigenvalues --  -10.37888 -10.36585 -10.35655 -10.35599 -10.35477
 Alpha  occ. eigenvalues --  -10.34570 -10.34461 -10.33946 -10.33733 -10.33417
 Alpha  occ. eigenvalues --  -10.33382 -10.32866 -10.31304 -10.31249 -10.30920
 Alpha  occ. eigenvalues --  -10.30909 -10.28903 -10.28370  -1.19646  -1.13699
 Alpha  occ. eigenvalues --   -1.13504  -1.13475  -1.11725  -1.10800  -1.09563
 Alpha  occ. eigenvalues --   -1.08972  -1.07226  -1.05261  -1.02865  -1.02739
 Alpha  occ. eigenvalues --   -1.00655  -1.00281  -0.99393  -0.98803  -0.97277
 Alpha  occ. eigenvalues --   -0.96741  -0.94845  -0.92885  -0.91281  -0.86050
 Alpha  occ. eigenvalues --   -0.84514  -0.84317  -0.84272  -0.83949  -0.82638
 Alpha  occ. eigenvalues --   -0.82629  -0.79127  -0.75276  -0.74862  -0.74048
 Alpha  occ. eigenvalues --   -0.73649  -0.73189  -0.72988  -0.71359  -0.68642
 Alpha  occ. eigenvalues --   -0.67748  -0.66816  -0.66570  -0.64994  -0.64718
 Alpha  occ. eigenvalues --   -0.64004  -0.63002  -0.62940  -0.62407  -0.62130
 Alpha  occ. eigenvalues --   -0.60409  -0.59807  -0.59766  -0.58913  -0.58829
 Alpha  occ. eigenvalues --   -0.58526  -0.57932  -0.56776  -0.56708  -0.56701
 Alpha  occ. eigenvalues --   -0.56233  -0.55564  -0.54669  -0.54518  -0.53903
 Alpha  occ. eigenvalues --   -0.53836  -0.53610  -0.53167  -0.52754  -0.52389
 Alpha  occ. eigenvalues --   -0.52114  -0.51908  -0.51240  -0.51070  -0.50458
 Alpha  occ. eigenvalues --   -0.50428  -0.49729  -0.49338  -0.49165  -0.48899
 Alpha  occ. eigenvalues --   -0.48493  -0.48374  -0.47937  -0.47733  -0.47461
 Alpha  occ. eigenvalues --   -0.47247  -0.45401  -0.45131  -0.44296  -0.42976
 Alpha  occ. eigenvalues --   -0.41476  -0.39685  -0.39134  -0.37611  -0.37504
 Alpha  occ. eigenvalues --   -0.37469  -0.36272  -0.36008  -0.35811  -0.34887
 Alpha  occ. eigenvalues --   -0.33855  -0.33825  -0.33638  -0.33037  -0.32884
 Alpha  occ. eigenvalues --   -0.32498  -0.32259  -0.32209  -0.32036  -0.31305
 Alpha  occ. eigenvalues --   -0.30605  -0.28112  -0.26055  -0.25709
 Alpha virt. eigenvalues --    0.02802   0.05641   0.07673   0.08200   0.08569
 Alpha virt. eigenvalues --    0.09305   0.09417   0.10662   0.11472   0.12369
 Alpha virt. eigenvalues --    0.12677   0.13730   0.14426   0.14648   0.16031

 Mulliken charges:
               1
     1  N   -0.310724
     2  C    0.180830
     3  C    0.029552
     4  N   -0.257519
     5  C    0.132646
     6  H    0.027405
     7  N   -0.288384
     8  C    0.127180
     9  H    0.012612
    10  N   -0.288502
    11  C    0.237591
    12  C    0.116366
    13  N   -0.047253
    14  H    0.108184
    15  H    0.089559
    16  H    0.026493
    17  H    0.035340
    18  H    0.025514
    19  N   -0.309473
    20  C    0.247698
    21  C    0.181467
    22  N   -0.124414
    23  H    0.114875
    24  H    0.117840
    25  N   -0.301001
    26  C    0.238961
    27  N   -0.129204
    28  H    0.117462
    29  C    0.165102
    30  O   -0.323387
    31  C   -0.009869
    32  N   -0.221697
    33  C    0.132519
    34  H    0.030933
    35  H    0.031605
    36  H    0.028184
    37  H    0.024614
    38  H    0.060106
    39  H    0.061186
    40  H    0.072623
    41  H    0.031846
    42  C   -0.106279
    43  O   -0.277624
    44  C    0.159941
    45  H    0.136479
    46  N   -0.131310
    47  O   -0.353987
    48  C    0.367501
    49  H    0.049002
    50  C    0.179878
    51  C    0.041533
    52  N   -0.295494
    53  H    0.030680
    54  H    0.043158
    55  H    0.013515
    56  H    0.122814
    57  H    0.117093
    58  N   -0.040499
    59  C    0.103553
    60  C    0.240833
    61  N   -0.265364
    62  H    0.039304
    63  C    0.154024
    64  N   -0.299629
    65  H    0.025238
    66  C    0.129619
    67  N   -0.266797
    68  C    0.018117
    69  C    0.179950
    70  N   -0.310116
 Sum of Mulliken charges =  -0.00000

 Dipole moment (field-independent basis, Debye):
    X=              7.7382    Y=              5.9113    Z=              1.7260  Tot=              9.8895
 Quadrupole moment (field-independent basis, Debye-Ang):
   XX=           -141.1173   YY=           -222.5513   ZZ=           -249.7070
   XY=              7.3736   XZ=             16.0666   YZ=             -5.1105

 Normal termination of Gaussian 16 at Tue Jan 23 04:18:09 2018.
