 Gaussian 16, Revision A.03,
 Gaussian 16:  EM64L-G16RevA.03 25-Dec-2016

 ---------------------------------------
 #p wb97xd/cc-pvdz sp scf=(maxcycles=20)
 ---------------------------------------

 ------------------
 Base pair stacking
 ------------------
 Symbolic Z-matrix:
 Charge =  0 Multiplicity = 1

                         Standard orientation:
 ---------------------------------------------------------------------
 Center     Atomic      Atomic             Coordinates (Angstroms)
 Number     Number       Type             X           Y           Z
 ---------------------------------------------------------------------
      1          7           0        4.571340   -1.825414   -1.772928
      2          6           0        5.949642   -1.371858   -2.042312
      3          6           0        2.387964   -1.892729   -1.516743
      4          7           0        2.851533   -3.169182   -1.233065
      5          6           0        4.148386   -3.077550   -1.398763
      6          1           0        4.850779   -3.899957   -1.260108
      7          7           0        0.981159   -0.029369   -1.851062
      8          6           0        2.088642    0.656657   -2.151750
      9          1           0        1.931847    1.703376   -2.408760
     10          7           0        3.354790    0.245766   -2.182474
     11          6           0        3.436459   -1.053457   -1.851114
     12          6           0        1.096731   -1.334493   -1.521870
     13          7           0       -0.007638   -2.020982   -1.221400
     14          1           0        0.030706   -2.989256   -0.971993
     15          1           0       -0.910484   -1.591075   -1.235353
     16          1           0        6.337543   -1.907265   -2.792682
     17          1           0        5.939782   -0.404694   -2.294546
     18          1           0        6.509499   -1.495197   -1.222950
     19          7           0        5.075882    2.182126    0.830363
     20          6           0        3.712597    2.055112    0.946029
     21          6           0        5.791452    3.428720    0.491751
     22          7           0        0.539027    3.459734    0.814827
     23          1           0       -0.405922    3.160665    0.944705
     24          1           0        0.682284    4.421368    0.579333
     25          7           0        2.804999    3.039861    0.771185
     26          6           0        1.568500    2.610148    0.950164
     27          7           0        1.243549    1.315528    1.275521
     28          1           0        0.270907    1.076501    1.392992
     29          6           0        2.160905    0.285872    1.460316
     30          8           0        1.762778   -0.848509    1.752538
     31          6           0        3.493549    0.732244    1.271364
     32          7           0        4.695126    0.042640    1.358207
     33          6           0        5.603638    0.940764    1.089530
     34          1           0        6.677215    0.750563    1.066799
     35          1           0        6.313886    3.297016   -0.349983
     36          1           0        5.129360    4.165287    0.359922
     37          1           0        6.413620    3.670449    1.235575
     38          1           0       -4.762828    0.384538    1.204884
     39          1           0       -4.636369    0.509036    2.957927
     40          1           0       -3.519787    1.405842    1.928182
     41          1           0       -3.121638   -4.007364    2.283882
     42          6           0       -2.747646   -2.988297    2.184531
     43          8           0       -0.469718   -3.639613    2.066453
     44          6           0       -1.338577   -2.767897    2.067231
     45          1           0        0.015235   -1.246964    1.861550
     46          7           0       -0.972309   -1.442545    1.946682
     47          8           0       -1.386177    0.786674    1.818228
     48          6           0       -1.805358   -0.352012    1.929340
     49          1           0       -4.665074   -2.058739    2.256844
     50          6           0       -3.585274   -1.944831    2.170854
     51          6           0       -4.078340    0.487684    2.033680
     52          7           0       -3.149594   -0.645894    2.047181
     53          1           0       -5.889852    3.876810   -2.312865
     54          1           0       -4.510483    3.930723   -1.443086
     55          1           0       -5.955243    4.000872   -0.686908
     56          1           0       -3.531033   -3.009695   -0.871524
     57          1           0       -5.184463   -2.601263   -0.968651
     58          7           0       -4.230496   -2.299690   -0.953834
     59          6           0       -3.906599   -1.007862   -1.040081
     60          6           0       -4.361940    1.319305   -1.236777
     61          7           0       -3.072499    1.695166   -1.214321
     62          1           0       -1.211187    0.848541   -1.075297
     63          6           0       -2.278368    0.632407   -1.101170
     64          7           0       -2.600854   -0.662225   -1.014654
     65          1           0       -7.571807    1.672746   -1.391606
     66          6           0       -6.552907    1.290761   -1.321759
     67          7           0       -6.238130    0.023266   -1.211970
     68          6           0       -4.851882    0.027354   -1.157130
     69          6           0       -5.454498    3.602404   -1.455447
     70          7           0       -5.466458    2.130937   -1.343012
 ---------------------------------------------------------------------

 SCF Done:  E(RwB97XD) =  -2048.75022866     A.U. after   15 cycles

 The electronic state is 1-A.
 Alpha  occ. eigenvalues --  -19.25401 -19.21534 -19.20559 -14.52679 -14.51922
 Alpha  occ. eigenvalues --  -14.48990 -14.48779 -14.48141 -14.47301 -14.46782
 Alpha  occ. eigenvalues --  -14.46633 -14.45629 -14.44863 -14.44710 -14.42669
 Alpha  occ. eigenvalues --  -14.42052 -14.41262 -14.40864 -14.40768 -14.40432
 Alpha  occ. eigenvalues --  -10.44972 -10.41232 -10.40462 -10.39657 -10.38210
 Alpha  occ. eigenvalues --  -10.38195 -10.37535 -10.37491 -10.36253 -10.35528
 Alpha  occ. eigenvalues --  -10.34470 -10.34381 -10.34014 -10.33672 -10.33528
 Alpha  occ. eigenvalues --  -10.33015 -10.33010 -10.33007 -10.31108 -10.30690
 Alpha  occ. eigenvalues --  -10.30344 -10.28261 -10.28230  -1.18951  -1.15468
 Alpha  occ. eigenvalues --   -1.13196  -1.12554  -1.10795  -1.10718  -1.09819
 Alpha  occ. eigenvalues --   -1.08815  -1.08540  -1.05283  -1.05054  -1.01950
 Alpha  occ. eigenvalues --   -1.01227  -1.00499  -0.99713  -0.98591  -0.97338
 Alpha  occ. eigenvalues --   -0.96767  -0.96473  -0.92758  -0.90643  -0.87963
 Alpha  occ. eigenvalues --   -0.86126  -0.84269  -0.83529  -0.83061  -0.82643
 Alpha  occ. eigenvalues --   -0.81887  -0.78438  -0.77404  -0.75215  -0.74715
 Alpha  occ. eigenvalues --   -0.73629  -0.72874  -0.72738  -0.70915  -0.70738
 Alpha  occ. eigenvalues --   -0.67417  -0.67190  -0.66139  -0.66100  -0.64580
 Alpha  occ. eigenvalues --   -0.64364  -0.63571  -0.62623  -0.62599  -0.61819
 Alpha  occ. eigenvalues --   -0.60922  -0.60610  -0.60410  -0.59659  -0.59181
 Alpha  occ. eigenvalues --   -0.59005  -0.58346  -0.56854  -0.56423  -0.55738
 Alpha  occ. eigenvalues --   -0.55689  -0.55616  -0.55397  -0.54690  -0.54122
 Alpha  occ. eigenvalues --   -0.53892  -0.53616  -0.53432  -0.53092  -0.53005
 Alpha  occ. eigenvalues --   -0.52393  -0.51917  -0.51385  -0.50409  -0.50283
 Alpha  occ. eigenvalues --   -0.50154  -0.49878  -0.49585  -0.49147  -0.48837
 Alpha  occ. eigenvalues --   -0.48720  -0.48225  -0.48022  -0.47884  -0.47166
 Alpha  occ. eigenvalues --   -0.46693  -0.45687  -0.45523  -0.44622  -0.43202
 Alpha  occ. eigenvalues --   -0.41129  -0.41000  -0.39078  -0.38085  -0.37945
 Alpha  occ. eigenvalues --   -0.37403  -0.37328  -0.36872  -0.35515  -0.35169
 Alpha  occ. eigenvalues --   -0.34756  -0.34069  -0.33298  -0.33277  -0.32911
 Alpha  occ. eigenvalues --   -0.32591  -0.32545  -0.31916  -0.31601  -0.30554
 Alpha  occ. eigenvalues --   -0.30369  -0.30256  -0.25892  -0.25438
 Alpha virt. eigenvalues --    0.03424   0.03662   0.06422   0.08119   0.08935
 Alpha virt. eigenvalues --    0.09209   0.09734   0.10285   0.11049   0.11808
 Alpha virt. eigenvalues --    0.13348   0.14216   0.14485   0.14677   0.14799

 Mulliken charges:
               1
     1  N   -0.308411
     2  C    0.181486
     3  C    0.058480
     4  N   -0.258201
     5  C    0.147665
     6  H    0.027341
     7  N   -0.292668
     8  C    0.125742
     9  H    0.011861
    10  N   -0.279510
    11  C    0.251214
    12  C    0.086221
    13  N   -0.065879
    14  H    0.114978
    15  H    0.083107
    16  H    0.022362
    17  H    0.028783
    18  H    0.028939
    19  N   -0.309096
    20  C    0.262690
    21  C    0.182056
    22  N   -0.123169
    23  H    0.120876
    24  H    0.117777
    25  N   -0.310932
    26  C    0.242942
    27  N   -0.137264
    28  H    0.118120
    29  C    0.184912
    30  O   -0.320891
    31  C   -0.012609
    32  N   -0.230322
    33  C    0.119628
    34  H    0.021191
    35  H    0.026948
    36  H    0.030287
    37  H    0.024425
    38  H    0.069065
    39  H    0.057679
    40  H    0.075362
    41  H    0.024194
    42  C   -0.119417
    43  O   -0.265271
    44  C    0.172016
    45  H    0.132728
    46  N   -0.125228
    47  O   -0.348608
    48  C    0.351718
    49  H    0.042240
    50  C    0.169047
    51  C    0.035641
    52  N   -0.277435
    53  H    0.034598
    54  H    0.040493
    55  H    0.029874
    56  H    0.120337
    57  H    0.118075
    58  N   -0.061160
    59  C    0.091266
    60  C    0.235402
    61  N   -0.268145
    62  H    0.027319
    63  C    0.176687
    64  N   -0.313021
    65  H    0.039836
    66  C    0.136163
    67  N   -0.256180
    68  C    0.009062
    69  C    0.181121
    70  N   -0.306537
 Sum of Mulliken charges =  -0.00000

 Dipole moment (field-independent basis, Debye):
    X=             -7.6679    Y=              7.0740    Z=             -1.2567  Tot=             10.5080
 Quadrupole moment (field-independent basis, Debye-Ang):
   XX=           -159.0490   YY=           -221.3047   ZZ=           -252.8905
   XY=              2.6124   XZ=            -14.4122   YZ=              8.9420

 Normal termination of Gaussian 16 at Mon Jan 22 19:34:19 2018.
