 Gaussian 16, Revision A.03,
 Gaussian 16:  EM64L-G16RevA.03 25-Dec-2016

 ---------------------------------------
 #p wb97xd/cc-pvdz sp scf=(maxcycles=20)
 ---------------------------------------

 ------------------
 Base pair stacking
 ------------------
 Symbolic Z-matrix:
 Charge =  0 Multiplicity = 1

                         Standard orientation:
 ---------------------------------------------------------------------
 Center     Atomic      Atomic             Coordinates (Angstroms)
 Number     Number       Type             X           Y           Z
 ---------------------------------------------------------------------
      1          7           0       -6.132764   -1.606510    0.793101
      2          6           0       -7.513205   -1.092596    0.884092
      3          6           0       -3.942267   -1.786461    0.874702
      4          7           0       -4.414733   -3.005256    0.409908
      5          6           0       -5.715520   -2.848057    0.379344
      6          1           0       -6.425046   -3.612156    0.060469
      7          7           0       -2.519955   -0.045549    1.588308
      8          6           0       -3.627314    0.680566    1.772901
      9          1           0       -3.463992    1.691689    2.143319
     10          7           0       -4.900173    0.346757    1.569599
     11          6           0       -4.989554   -0.914199    1.115269
     12          6           0       -2.643398   -1.310492    1.130288
     13          7           0       -1.539169   -2.036889    0.945385
     14          1           0       -1.583196   -2.977828    0.607859
     15          1           0       -0.630764   -1.665534    1.137812
     16          1           0       -8.041377   -1.661821    1.514320
     17          1           0       -7.497758   -0.151240    1.219861
     18          1           0       -7.939797   -1.115236   -0.020061
     19          7           0       -3.462284    2.515142   -1.492468
     20          6           0       -2.107322    2.310758   -1.390731
     21          6           0       -4.151351    3.800789   -1.262269
     22          7           0        1.078770    3.532988   -0.745205
     23          1           0        2.013997    3.180570   -0.725406
     24          1           0        0.954173    4.501487   -0.527971
     25          7           0       -1.185201    3.242570   -1.065979
     26          6           0        0.037856    2.743096   -1.049289
     27          7           0        0.337103    1.431703   -1.328941
     28          1           0        1.301029    1.137663   -1.292025
     29          6           0       -0.595568    0.455604   -1.665425
     30          8           0       -0.220440   -0.699923   -1.899459
     31          6           0       -1.914023    0.977187   -1.687432
     32          7           0       -3.123304    0.356840   -1.969767
     33          6           0       -4.011014    1.305462   -1.842040
     34          1           0       -5.083491    1.176571   -1.991926
     35          1           0       -4.807786    3.700003   -0.515449
     36          1           0       -3.478328    4.498715   -1.020987
     37          1           0       -4.632477    4.076555   -2.093702
     38          1           0        6.193490    0.161115   -0.310770
     39          1           0        6.355127    0.290449   -2.060570
     40          1           0        5.141027    1.250495   -1.214610
     41          1           0        4.500632   -4.131787   -1.671596
     42          6           0        4.173544   -3.093000   -1.625026
     43          8           0        1.872900   -3.613719   -1.876031
     44          6           0        2.778445   -2.792772   -1.731698
     45          1           0        1.496922   -1.197142   -1.732140
     46          7           0        2.472820   -1.448599   -1.660583
     47          8           0        2.985720    0.753657   -1.450423
     48          6           0        3.352503   -0.407135   -1.502342
     49          1           0        6.127234   -2.273960   -1.384016
     50          6           0        5.055666   -2.098783   -1.470055
     51          6           0        5.656691    0.301952   -1.237093
     52          7           0        4.679646   -0.777047   -1.407095
     53          1           0        4.366678    3.383234    3.459125
     54          1           0        3.148627    3.591123    2.393651
     55          1           0        4.697560    3.633286    1.880694
     56          1           0        1.943551   -3.207989    1.061237
     57          1           0        3.577644   -2.910583    1.450350
     58          7           0        2.653854   -2.551004    1.314226
     59          6           0        2.382299   -1.252895    1.463672
     60          6           0        2.910697    1.018717    1.935148
     61          7           0        1.660920    1.473345    1.745927
     62          1           0       -0.192313    0.756076    1.244261
     63          6           0        0.845408    0.473694    1.416483
     64          7           0        1.115480   -0.827108    1.266299
     65          1           0        6.067454    1.161555    2.618233
     66          6           0        5.055875    0.849457    2.357021
     67          7           0        4.702665   -0.383484    2.087232
     68          6           0        3.344894   -0.290201    1.818007
     69          6           0        4.061731    3.205746    2.523441
     70          7           0        4.021365    1.750095    2.283702
 ---------------------------------------------------------------------

 SCF Done:  E(RwB97XD) =  -2048.75089180     A.U. after   15 cycles

 The electronic state is 1-A.
 Alpha  occ. eigenvalues --  -19.25900 -19.22191 -19.20600 -14.52427 -14.52145
 Alpha  occ. eigenvalues --  -14.48665 -14.48657 -14.47827 -14.47555 -14.46872
 Alpha  occ. eigenvalues --  -14.46571 -14.45221 -14.43796 -14.43772 -14.42141
 Alpha  occ. eigenvalues --  -14.41975 -14.41252 -14.40889 -14.40757 -14.40149
 Alpha  occ. eigenvalues --  -10.45505 -10.41138 -10.40287 -10.39433 -10.38177
 Alpha  occ. eigenvalues --  -10.37855 -10.37724 -10.36787 -10.35323 -10.35316
 Alpha  occ. eigenvalues --  -10.35057 -10.34241 -10.33937 -10.33815 -10.33228
 Alpha  occ. eigenvalues --  -10.33226 -10.33045 -10.32229 -10.31158 -10.30990
 Alpha  occ. eigenvalues --  -10.30736 -10.28376 -10.28004  -1.19463  -1.14849
 Alpha  occ. eigenvalues --   -1.13199  -1.13157  -1.11219  -1.10501  -1.09318
 Alpha  occ. eigenvalues --   -1.08775  -1.08495  -1.04917  -1.04322  -1.02522
 Alpha  occ. eigenvalues --   -1.00656  -1.00346  -0.99666  -0.98491  -0.96871
 Alpha  occ. eigenvalues --   -0.96482  -0.96308  -0.92584  -0.91087  -0.87275
 Alpha  occ. eigenvalues --   -0.85660  -0.84001  -0.83851  -0.83565  -0.82376
 Alpha  occ. eigenvalues --   -0.82246  -0.78890  -0.76620  -0.74551  -0.74374
 Alpha  occ. eigenvalues --   -0.73596  -0.73377  -0.72808  -0.70972  -0.70002
 Alpha  occ. eigenvalues --   -0.67308  -0.66553  -0.66357  -0.66212  -0.64453
 Alpha  occ. eigenvalues --   -0.63856  -0.63700  -0.62646  -0.62627  -0.61666
 Alpha  occ. eigenvalues --   -0.60336  -0.60235  -0.60062  -0.59489  -0.59130
 Alpha  occ. eigenvalues --   -0.59040  -0.58289  -0.56626  -0.56463  -0.56286
 Alpha  occ. eigenvalues --   -0.55982  -0.55392  -0.55004  -0.54509  -0.54339
 Alpha  occ. eigenvalues --   -0.53720  -0.53603  -0.53163  -0.53032  -0.52895
 Alpha  occ. eigenvalues --   -0.52418  -0.52393  -0.51723  -0.50696  -0.50161
 Alpha  occ. eigenvalues --   -0.50126  -0.49532  -0.49466  -0.48861  -0.48817
 Alpha  occ. eigenvalues --   -0.48736  -0.48364  -0.48206  -0.47567  -0.47372
 Alpha  occ. eigenvalues --   -0.46877  -0.45596  -0.44839  -0.44428  -0.43906
 Alpha  occ. eigenvalues --   -0.41052  -0.40393  -0.39458  -0.37368  -0.37316
 Alpha  occ. eigenvalues --   -0.37219  -0.37082  -0.37003  -0.36028  -0.34482
 Alpha  occ. eigenvalues --   -0.34004  -0.33818  -0.33372  -0.33346  -0.33237
 Alpha  occ. eigenvalues --   -0.32625  -0.32364  -0.32075  -0.31809  -0.30841
 Alpha  occ. eigenvalues --   -0.30364  -0.29512  -0.25695  -0.25225
 Alpha virt. eigenvalues --    0.02879   0.04483   0.07267   0.08074   0.08681
 Alpha virt. eigenvalues --    0.09280   0.09818   0.10796   0.11126   0.11610
 Alpha virt. eigenvalues --    0.12867   0.14389   0.14577   0.14606   0.15062

 Mulliken charges:
               1
     1  N   -0.312696
     2  C    0.180549
     3  C    0.054487
     4  N   -0.258889
     5  C    0.134324
     6  H    0.025939
     7  N   -0.290761
     8  C    0.134031
     9  H    0.010041
    10  N   -0.292076
    11  C    0.241122
    12  C    0.112477
    13  N   -0.051193
    14  H    0.111146
    15  H    0.087861
    16  H    0.025638
    17  H    0.032112
    18  H    0.024943
    19  N   -0.308559
    20  C    0.250962
    21  C    0.180118
    22  N   -0.109712
    23  H    0.112183
    24  H    0.114973
    25  N   -0.307504
    26  C    0.234352
    27  N   -0.143205
    28  H    0.120949
    29  C    0.174076
    30  O   -0.322581
    31  C   -0.001894
    32  N   -0.225920
    33  C    0.131739
    34  H    0.022269
    35  H    0.031307
    36  H    0.027764
    37  H    0.023263
    38  H    0.061145
    39  H    0.059182
    40  H    0.069953
    41  H    0.028192
    42  C   -0.115928
    43  O   -0.269324
    44  C    0.160831
    45  H    0.134306
    46  N   -0.118658
    47  O   -0.343120
    48  C    0.340915
    49  H    0.048495
    50  C    0.175630
    51  C    0.039385
    52  N   -0.282553
    53  H    0.034692
    54  H    0.039451
    55  H    0.024996
    56  H    0.128270
    57  H    0.115825
    58  N   -0.057770
    59  C    0.087747
    60  C    0.250005
    61  N   -0.273352
    62  H    0.038780
    63  C    0.162148
    64  N   -0.300779
    65  H    0.034468
    66  C    0.131848
    67  N   -0.263494
    68  C    0.016865
    69  C    0.178550
    70  N   -0.310340
 Sum of Mulliken charges =  -0.00000

 Dipole moment (field-independent basis, Debye):
    X=              7.6885    Y=              6.3017    Z=              2.3027  Tot=             10.2042
 Quadrupole moment (field-independent basis, Debye-Ang):
   XX=           -149.4357   YY=           -221.4888   ZZ=           -254.1775
   XY=              3.6298   XZ=              4.6138   YZ=             -6.4366

 Normal termination of Gaussian 16 at Tue Jan 23 09:34:06 2018.
