 Gaussian 16, Revision A.03,
 Gaussian 16:  EM64L-G16RevA.03 25-Dec-2016

 ---------------------------------------
 #p wb97xd/cc-pvdz sp scf=(maxcycles=20)
 ---------------------------------------

 ------------------
 Base pair stacking
 ------------------
 Symbolic Z-matrix:
 Charge =  0 Multiplicity = 1

                         Standard orientation:
 ---------------------------------------------------------------------
 Center     Atomic      Atomic             Coordinates (Angstroms)
 Number     Number       Type             X           Y           Z
 ---------------------------------------------------------------------
      1          7           0       -6.370191   -1.471301    0.655286
      2          6           0       -7.737870   -0.925234    0.558995
      3          6           0       -4.192693   -1.668788    0.893655
      4          7           0       -4.676721   -2.950070    0.672876
      5          6           0       -5.969208   -2.779811    0.538099
      6          1           0       -6.683905   -3.581579    0.350133
      7          7           0       -2.757622    0.158644    1.298632
      8          6           0       -3.851163    0.927102    1.263660
      9          1           0       -3.677107    1.990912    1.419418
     10          7           0       -5.121459    0.580373    1.066106
     11          6           0       -5.224793   -0.746708    0.885572
     12          6           0       -2.894886   -1.172501    1.113481
     13          7           0       -1.804469   -1.941252    1.148035
     14          1           0       -1.859009   -2.931609    1.016037
     15          1           0       -0.896357   -1.553650    1.306954
     16          1           0       -8.313259   -1.337231    1.265644
     17          1           0       -7.711758    0.065678    0.687623
     18          1           0       -8.119232   -1.132773   -0.341829
     19          7           0       -3.215408    2.342980   -1.564904
     20          6           0       -1.867052    2.141526   -1.393437
     21          6           0       -3.923928    3.618268   -1.336110
     22          7           0        1.270644    3.357883   -0.534900
     23          1           0        2.205387    3.009076   -0.473070
     24          1           0        1.128320    4.318987   -0.296708
     25          7           0       -0.970097    3.067304   -0.990378
     26          6           0        0.253076    2.572840   -0.919837
     27          7           0        0.575309    1.271598   -1.220568
     28          1           0        1.537394    0.980767   -1.138338
     29          6           0       -0.331268    0.301866   -1.637229
     30          8           0        0.063241   -0.844609   -1.883630
     31          6           0       -1.649532    0.818164   -1.717791
     32          7           0       -2.837417    0.201227   -2.085486
     33          6           0       -3.736526    1.141803   -1.979964
     34          1           0       -4.798161    1.012783   -2.193404
     35          1           0       -4.620448    3.492591   -0.630515
     36          1           0       -3.269620    4.311651   -1.037166
     37          1           0       -4.359486    3.916423   -2.184764
     38          1           0        6.373124   -0.003234    0.086460
     39          1           0        6.631500    0.178499   -1.646990
     40          1           0        5.366322    1.107842   -0.842635
     41          1           0        4.784611   -4.261276   -1.492240
     42          6           0        4.449234   -3.225743   -1.433657
     43          8           0        2.169354   -3.748747   -1.828317
     44          6           0        3.060504   -2.928519   -1.609494
     45          1           0        1.771512   -1.339129   -1.634990
     46          7           0        2.743364   -1.588382   -1.516267
     47          8           0        3.230566    0.608901   -1.213285
     48          6           0        3.606601   -0.548253   -1.278546
     49          1           0        6.381479   -2.405763   -1.059686
     50          6           0        5.315362   -2.232749   -1.200446
     51          6           0        5.888094    0.162624   -0.863959
     52          7           0        4.928531   -0.915089   -1.119969
     53          1           0        4.124061    3.784208    2.775125
     54          1           0        2.967364    3.781538    1.624415
     55          1           0        4.540551    3.685516    1.200250
     56          1           0        1.632451   -3.122628    1.701336
     57          1           0        3.253043   -2.778255    2.107784
     58          7           0        2.348102   -2.439584    1.847804
     59          6           0        2.107417   -1.134859    1.703117
     60          6           0        2.677663    1.175229    1.710015
     61          7           0        1.452706    1.601223    1.360117
     62          1           0       -0.393292    0.826608    0.920917
     63          6           0        0.625849    0.569021    1.206001
     64          7           0        0.865004   -0.738470    1.350448
     65          1           0        5.799169    1.404190    2.519907
     66          6           0        4.793220    1.061641    2.275620
     67          7           0        4.418110   -0.193955    2.254663
     68          6           0        3.078787   -0.136060    1.897463
     69          6           0        3.861204    3.416507    1.883112
     70          7           0        3.790400    1.944200    1.955974
 ---------------------------------------------------------------------

 SCF Done:  E(RwB97XD) =  -2048.72902279     A.U. after   15 cycles

 The electronic state is 1-A.
 Alpha  occ. eigenvalues --  -19.25860 -19.21946 -19.20527 -14.52372 -14.52124
 Alpha  occ. eigenvalues --  -14.49031 -14.48525 -14.47830 -14.47596 -14.46588
 Alpha  occ. eigenvalues --  -14.46037 -14.45113 -14.43664 -14.43089 -14.42576
 Alpha  occ. eigenvalues --  -14.41930 -14.41658 -14.41291 -14.40616 -14.40466
 Alpha  occ. eigenvalues --  -10.45464 -10.40812 -10.40071 -10.39358 -10.38030
 Alpha  occ. eigenvalues --  -10.37736 -10.37638 -10.36672 -10.35726 -10.35265
 Alpha  occ. eigenvalues --  -10.35137 -10.34323 -10.34194 -10.34142 -10.33631
 Alpha  occ. eigenvalues --  -10.33429 -10.33093 -10.31982 -10.31249 -10.31043
 Alpha  occ. eigenvalues --  -10.30579 -10.28787 -10.27902  -1.19446  -1.14800
 Alpha  occ. eigenvalues --   -1.13123  -1.12974  -1.11606  -1.10415  -1.09258
 Alpha  occ. eigenvalues --   -1.08767  -1.08310  -1.05294  -1.04251  -1.02450
 Alpha  occ. eigenvalues --   -1.00767  -1.00668  -0.99474  -0.98422  -0.97240
 Alpha  occ. eigenvalues --   -0.96402  -0.96209  -0.92966  -0.90985  -0.87300
 Alpha  occ. eigenvalues --   -0.85819  -0.84217  -0.83873  -0.83572  -0.82592
 Alpha  occ. eigenvalues --   -0.82255  -0.78809  -0.76611  -0.74449  -0.74430
 Alpha  occ. eigenvalues --   -0.73467  -0.73302  -0.73190  -0.71373  -0.70052
 Alpha  occ. eigenvalues --   -0.67175  -0.66608  -0.66514  -0.66372  -0.64372
 Alpha  occ. eigenvalues --   -0.63944  -0.63616  -0.63016  -0.62689  -0.61501
 Alpha  occ. eigenvalues --   -0.60607  -0.60445  -0.60131  -0.59449  -0.59199
 Alpha  occ. eigenvalues --   -0.59095  -0.58102  -0.57039  -0.56719  -0.56463
 Alpha  occ. eigenvalues --   -0.55943  -0.55681  -0.55288  -0.54839  -0.54279
 Alpha  occ. eigenvalues --   -0.53976  -0.53494  -0.53111  -0.52796  -0.52735
 Alpha  occ. eigenvalues --   -0.52380  -0.52280  -0.52037  -0.51071  -0.50484
 Alpha  occ. eigenvalues --   -0.49997  -0.49516  -0.49375  -0.48886  -0.48755
 Alpha  occ. eigenvalues --   -0.48646  -0.48280  -0.48053  -0.47643  -0.47287
 Alpha  occ. eigenvalues --   -0.47210  -0.45680  -0.45140  -0.43969  -0.43800
 Alpha  occ. eigenvalues --   -0.41463  -0.40602  -0.39441  -0.37619  -0.37513
 Alpha  occ. eigenvalues --   -0.37344  -0.37136  -0.36614  -0.35895  -0.34440
 Alpha  occ. eigenvalues --   -0.34099  -0.33840  -0.33683  -0.33119  -0.32561
 Alpha  occ. eigenvalues --   -0.32445  -0.32161  -0.31886  -0.31704  -0.31202
 Alpha  occ. eigenvalues --   -0.30699  -0.29118  -0.26068  -0.25041
 Alpha virt. eigenvalues --    0.03100   0.04560   0.07278   0.07735   0.08768
 Alpha virt. eigenvalues --    0.09425   0.09839   0.10648   0.10907   0.11366
 Alpha virt. eigenvalues --    0.12946   0.13994   0.14212   0.14639   0.14864

 Mulliken charges:
               1
     1  N   -0.312632
     2  C    0.180557
     3  C    0.049539
     4  N   -0.260131
     5  C    0.134746
     6  H    0.027275
     7  N   -0.283055
     8  C    0.132823
     9  H    0.010394
    10  N   -0.291300
    11  C    0.239914
    12  C    0.115621
    13  N   -0.053287
    14  H    0.108549
    15  H    0.087708
    16  H    0.026272
    17  H    0.032218
    18  H    0.026508
    19  N   -0.301520
    20  C    0.242333
    21  C    0.178299
    22  N   -0.077104
    23  H    0.108263
    24  H    0.112940
    25  N   -0.297178
    26  C    0.204912
    27  N   -0.129832
    28  H    0.119963
    29  C    0.149116
    30  O   -0.320488
    31  C    0.018923
    32  N   -0.223446
    33  C    0.123595
    34  H    0.022529
    35  H    0.031133
    36  H    0.026677
    37  H    0.023411
    38  H    0.061092
    39  H    0.059861
    40  H    0.068355
    41  H    0.029992
    42  C   -0.115536
    43  O   -0.266344
    44  C    0.174610
    45  H    0.133734
    46  N   -0.128933
    47  O   -0.344737
    48  C    0.350889
    49  H    0.047574
    50  C    0.175670
    51  C    0.041435
    52  N   -0.286935
    53  H    0.037725
    54  H    0.026544
    55  H    0.026988
    56  H    0.124116
    57  H    0.116506
    58  N   -0.064603
    59  C    0.102091
    60  C    0.246795
    61  N   -0.284436
    62  H    0.036443
    63  C    0.175835
    64  N   -0.301933
    65  H    0.032733
    66  C    0.123539
    67  N   -0.259204
    68  C    0.008628
    69  C    0.175933
    70  N   -0.308671
 Sum of Mulliken charges =  -0.00000

 Dipole moment (field-independent basis, Debye):
    X=              7.2130    Y=              6.0106    Z=              3.1399  Tot=              9.9002
 Quadrupole moment (field-independent basis, Debye-Ang):
   XX=           -147.6852   YY=           -223.4124   ZZ=           -255.7075
   XY=              5.5215   XZ=              6.6740   YZ=            -10.3889

 Normal termination of Gaussian 16 at Mon Jan 22 21:19:35 2018.
