 Gaussian 16, Revision A.03,
 Gaussian 16:  EM64L-G16RevA.03 25-Dec-2016

 ---------------------------------------
 #p wb97xd/cc-pvdz sp scf=(maxcycles=20)
 ---------------------------------------

 ------------------
 Base pair stacking
 ------------------
 Symbolic Z-matrix:
 Charge =  0 Multiplicity = 1

                         Standard orientation:
 ---------------------------------------------------------------------
 Center     Atomic      Atomic             Coordinates (Angstroms)
 Number     Number       Type             X           Y           Z
 ---------------------------------------------------------------------
      1          7           0        4.561920   -2.108129   -1.690490
      2          6           0        5.922831   -1.744442   -2.130562
      3          6           0        2.393781   -2.096491   -1.321254
      4          7           0        2.878525   -3.264008   -0.749715
      5          6           0        4.165351   -3.224292   -0.995042
      6          1           0        4.878808   -3.989890   -0.688814
      7          7           0        0.960727   -0.367980   -2.043429
      8          6           0        2.048153    0.214527   -2.558969
      9          1           0        1.872563    1.164499   -3.061940
     10          7           0        3.313975   -0.198342   -2.546535
     11          6           0        3.419697   -1.373723   -1.904889
     12          6           0        1.100241   -1.549820   -1.404015
     13          7           0        0.015923   -2.132836   -0.888729
     14          1           0        0.072344   -3.008070   -0.407067
     15          1           0       -0.889278   -1.714859   -0.966535
     16          1           0        6.277767   -2.452859   -2.740761
     17          1           0        5.894729   -0.871151   -2.616033
     18          1           0        6.522035   -1.662045   -1.334219
     19          7           0        5.070783    2.337591    0.696701
     20          6           0        3.711072    2.231261    0.863805
     21          6           0        5.790966    3.571145    0.322027
     22          7           0        0.555158    3.680873    0.839310
     23          1           0       -0.388482    3.396525    1.006460
     24          1           0        0.703251    4.638566    0.591121
     25          7           0        2.811718    3.227794    0.715009
     26          6           0        1.576728    2.817421    0.943059
     27          7           0        1.245679    1.530079    1.290391
     28          1           0        0.274772    1.306080    1.445708
     29          6           0        2.154495    0.488578    1.449135
     30          8           0        1.751369   -0.637726    1.764802
     31          6           0        3.485425    0.914140    1.207422
     32          7           0        4.679447    0.207790    1.255074
     33          6           0        5.590050    1.090623    0.945867
     34          1           0        6.659227    0.884665    0.884846
     35          1           0        6.279820    3.425700   -0.537440
     36          1           0        5.134998    4.316277    0.209052
     37          1           0        6.443730    3.809231    1.040364
     38          1           0       -4.771838    0.686013    1.449733
     39          1           0       -4.578525    0.821476    3.195855
     40          1           0       -3.488334    1.694398    2.118426
     41          1           0       -3.154444   -3.721269    2.501604
     42          6           0       -2.769922   -2.708504    2.380467
     43          8           0       -0.507472   -3.393711    2.183156
     44          6           0       -1.363181   -2.509479    2.209291
     45          1           0        0.003589   -1.009927    1.941644
     46          7           0       -0.982791   -1.190509    2.064851
     47          8           0       -1.369322    1.043497    1.934327
     48          6           0       -1.800282   -0.088130    2.069835
     49          1           0       -4.669884   -1.750676    2.516500
     50          6           0       -3.592510   -1.653102    2.389657
     51          6           0       -4.055610    0.785254    2.251757
     52          7           0       -3.143258   -0.361567    2.239730
     53          1           0       -5.949287    3.338167   -3.138188
     54          1           0       -4.530240    3.600032   -2.376731
     55          1           0       -5.937572    3.865600   -1.593816
     56          1           0       -3.480304   -2.982024   -0.134062
     57          1           0       -5.139060   -2.601302   -0.250942
     58          7           0       -4.187420   -2.311162   -0.357824
     59          6           0       -3.876272   -1.083939   -0.780042
     60          6           0       -4.355332    1.122543   -1.530821
     61          7           0       -3.068730    1.484569   -1.664974
     62          1           0       -1.197529    0.688869   -1.407883
     63          6           0       -2.263326    0.479356   -1.327667
     64          7           0       -2.573039   -0.750534   -0.904539
     65          1           0       -7.571130    1.444631   -1.615126
     66          6           0       -6.547643    1.086363   -1.500825
     67          7           0       -6.219893   -0.115115   -1.092543
     68          6           0       -4.832653   -0.105489   -1.106987
     69          6           0       -5.471657    3.284563   -2.261267
     70          7           0       -5.468832    1.888157   -1.783710
 ---------------------------------------------------------------------

 SCF Done:  E(RwB97XD) =  -2048.74520331     A.U. after   15 cycles

 The electronic state is 1-A.
 Alpha  occ. eigenvalues --  -19.25708 -19.21898 -19.20733 -14.52477 -14.52330
 Alpha  occ. eigenvalues --  -14.49157 -14.48496 -14.47838 -14.47558 -14.47039
 Alpha  occ. eigenvalues --  -14.46869 -14.45478 -14.44672 -14.44486 -14.42236
 Alpha  occ. eigenvalues --  -14.42118 -14.41385 -14.40512 -14.40387 -14.40062
 Alpha  occ. eigenvalues --  -10.45299 -10.41457 -10.40240 -10.40019 -10.38400
 Alpha  occ. eigenvalues --  -10.38040 -10.37908 -10.37349 -10.36012 -10.35112
 Alpha  occ. eigenvalues --  -10.34859 -10.34665 -10.33824 -10.33791 -10.33178
 Alpha  occ. eigenvalues --  -10.32865 -10.32700 -10.32688 -10.31238 -10.30878
 Alpha  occ. eigenvalues --  -10.30168 -10.28425 -10.27891  -1.19241  -1.15269
 Alpha  occ. eigenvalues --   -1.13398  -1.12924  -1.10895  -1.10473  -1.09687
 Alpha  occ. eigenvalues --   -1.09116  -1.08750  -1.05101  -1.04672  -1.02253
 Alpha  occ. eigenvalues --   -1.01054  -1.00082  -0.99945  -0.98788  -0.97136
 Alpha  occ. eigenvalues --   -0.96937  -0.96135  -0.92372  -0.91011  -0.87746
 Alpha  occ. eigenvalues --   -0.85927  -0.84444  -0.83410  -0.83216  -0.82809
 Alpha  occ. eigenvalues --   -0.81608  -0.78790  -0.77223  -0.75015  -0.74906
 Alpha  occ. eigenvalues --   -0.73850  -0.73192  -0.72374  -0.70636  -0.70482
 Alpha  occ. eigenvalues --   -0.67626  -0.67027  -0.66422  -0.65777  -0.64581
 Alpha  occ. eigenvalues --   -0.64397  -0.63850  -0.62839  -0.62219  -0.62020
 Alpha  occ. eigenvalues --   -0.60758  -0.60390  -0.60147  -0.59482  -0.59339
 Alpha  occ. eigenvalues --   -0.59189  -0.58577  -0.56938  -0.56094  -0.55980
 Alpha  occ. eigenvalues --   -0.55496  -0.55356  -0.55076  -0.54548  -0.54283
 Alpha  occ. eigenvalues --   -0.53786  -0.53714  -0.53663  -0.53217  -0.52987
 Alpha  occ. eigenvalues --   -0.52845  -0.52249  -0.51111  -0.50408  -0.50182
 Alpha  occ. eigenvalues --   -0.49999  -0.49621  -0.49488  -0.49397  -0.49021
 Alpha  occ. eigenvalues --   -0.48536  -0.48373  -0.48264  -0.48044  -0.47386
 Alpha  occ. eigenvalues --   -0.46385  -0.45790  -0.45623  -0.44436  -0.43288
 Alpha  occ. eigenvalues --   -0.40799  -0.40732  -0.39340  -0.37914  -0.37721
 Alpha  occ. eigenvalues --   -0.37583  -0.37516  -0.36522  -0.35746  -0.35008
 Alpha  occ. eigenvalues --   -0.34539  -0.34201  -0.33278  -0.32946  -0.32875
 Alpha  occ. eigenvalues --   -0.32853  -0.32628  -0.32132  -0.32075  -0.30293
 Alpha  occ. eigenvalues --   -0.30021  -0.29898  -0.25821  -0.25310
 Alpha virt. eigenvalues --    0.02908   0.03910   0.06650   0.08449   0.08823
 Alpha virt. eigenvalues --    0.08978   0.09548   0.10435   0.11452   0.11528
 Alpha virt. eigenvalues --    0.13471   0.14127   0.14369   0.15067   0.15078

 Mulliken charges:
               1
     1  N   -0.309429
     2  C    0.181980
     3  C    0.054187
     4  N   -0.254040
     5  C    0.147506
     6  H    0.026075
     7  N   -0.298862
     8  C    0.130050
     9  H    0.009228
    10  N   -0.285654
    11  C    0.251621
    12  C    0.090408
    13  N   -0.066907
    14  H    0.116684
    15  H    0.085214
    16  H    0.021733
    17  H    0.029561
    18  H    0.026868
    19  N   -0.310685
    20  C    0.258124
    21  C    0.181248
    22  N   -0.124338
    23  H    0.118733
    24  H    0.118759
    25  N   -0.312882
    26  C    0.250683
    27  N   -0.148402
    28  H    0.120576
    29  C    0.196468
    30  O   -0.319879
    31  C   -0.014992
    32  N   -0.230172
    33  C    0.123456
    34  H    0.022250
    35  H    0.027897
    36  H    0.030497
    37  H    0.025111
    38  H    0.067558
    39  H    0.059154
    40  H    0.075137
    41  H    0.024668
    42  C   -0.133960
    43  O   -0.267235
    44  C    0.171036
    45  H    0.132580
    46  N   -0.123627
    47  O   -0.350593
    48  C    0.353151
    49  H    0.041715
    50  C    0.178096
    51  C    0.036336
    52  N   -0.277245
    53  H    0.034110
    54  H    0.042175
    55  H    0.029050
    56  H    0.121442
    57  H    0.115549
    58  N   -0.060344
    59  C    0.095468
    60  C    0.246191
    61  N   -0.270708
    62  H    0.034106
    63  C    0.175283
    64  N   -0.316198
    65  H    0.039211
    66  C    0.137684
    67  N   -0.261837
    68  C    0.012387
    69  C    0.180604
    70  N   -0.309620
 Sum of Mulliken charges =  -0.00000

 Dipole moment (field-independent basis, Debye):
    X=             -7.6672    Y=              7.4182    Z=             -0.6298  Tot=             10.6870
 Quadrupole moment (field-independent basis, Debye-Ang):
   XX=           -158.8337   YY=           -220.3540   ZZ=           -250.8705
   XY=              0.8822   XZ=            -13.5777   YZ=              3.6979

 Normal termination of Gaussian 16 at Tue Jan 23 03:43:11 2018.
