 Gaussian 16, Revision A.03,
 Gaussian 16:  EM64L-G16RevA.03 25-Dec-2016

 ---------------------------------------
 #p wb97xd/cc-pvdz sp scf=(maxcycles=20)
 ---------------------------------------

 ------------------
 Base pair stacking
 ------------------
 Symbolic Z-matrix:
 Charge =  0 Multiplicity = 1

                         Standard orientation:
 ---------------------------------------------------------------------
 Center     Atomic      Atomic             Coordinates (Angstroms)
 Number     Number       Type             X           Y           Z
 ---------------------------------------------------------------------
      1          7           0        5.522343   -1.719243   -1.223995
      2          6           0        6.906603   -1.226495   -1.361972
      3          6           0        3.327262   -1.852602   -1.190391
      4          7           0        3.797827   -3.107207   -0.830871
      5          6           0        5.101457   -2.976652   -0.865508
      6          1           0        5.810570   -3.772689   -0.636557
      7          7           0        1.906241   -0.043369   -1.710349
      8          6           0        3.017389    0.672194   -1.912571
      9          1           0        2.856072    1.707788   -2.208853
     10          7           0        4.291900    0.302333   -1.804256
     11          6           0        4.378553   -0.986513   -1.435745
     12          6           0        2.027008   -1.337063   -1.340393
     13          7           0        0.919007   -2.052988   -1.138059
     14          1           0        0.960949   -3.014219   -0.863275
     15          1           0        0.009719   -1.653170   -1.254188
     16          1           0        7.385619   -1.764100   -2.056014
     17          1           0        6.893296   -0.265497   -1.636637
     18          1           0        7.382814   -1.314782   -0.487088
     19          7           0        4.135878    2.371797    1.261679
     20          6           0        2.772423    2.202716    1.240614
     21          6           0        4.844204    3.633953    0.968533
     22          7           0       -0.412126    3.499979    0.753221
     23          1           0       -1.355886    3.172914    0.793029
     24          1           0       -0.274732    4.460783    0.510959
     25          7           0        1.858055    3.153533    0.950909
     26          6           0        0.623351    2.687398    1.012883
     27          7           0        0.306218    1.389740    1.333834
     28          1           0       -0.665625    1.121514    1.357062
     29          6           0        1.230616    0.394579    1.635488
     30          8           0        0.839246   -0.746026    1.912240
     31          6           0        2.561424    0.880291    1.573012
     32          7           0        3.768132    0.232206    1.798233
     33          6           0        4.671714    1.153878    1.602541
     34          1           0        5.747239    0.998412    1.693955
     35          1           0        5.454098    3.502282    0.187835
     36          1           0        4.177068    4.345669    0.752507
     37          1           0        5.379044    3.910953    1.766045
     38          1           0       -5.630042    0.261844    0.672737
     39          1           0       -5.688155    0.426053    2.426108
     40          1           0       -4.499502    1.337706    1.494794
     41          1           0       -3.975602   -4.051250    2.016829
     42          6           0       -3.624540   -3.022745    1.932147
     43          8           0       -1.327789   -3.601587    2.062486
     44          6           0       -2.218223   -2.758882    1.954055
     45          1           0       -0.897323   -1.199042    1.851756
     46          7           0       -1.881984   -1.424997    1.840279
     47          8           0       -2.348038    0.786444    1.617730
     48          6           0       -2.741614   -0.362831    1.712319
     49          1           0       -5.566624   -2.155026    1.786512
     50          6           0       -4.487659   -2.007692    1.808477
     51          6           0       -5.037763    0.404133    1.564379
     52          7           0       -4.081278   -0.697991    1.699296
     53          1           0       -4.996556    3.626120   -2.962759
     54          1           0       -3.716107    3.742740   -1.958303
     55          1           0       -5.232361    3.781039   -1.355339
     56          1           0       -2.589983   -3.148926   -1.126263
     57          1           0       -4.236348   -2.796766   -1.401182
     58          7           0       -3.298562   -2.463960   -1.296230
     59          6           0       -3.006945   -1.164265   -1.379425
     60          6           0       -3.510215    1.142305   -1.676382
     61          7           0       -2.241928    1.560457   -1.531358
     62          1           0       -0.379868    0.778075   -1.183230
     63          6           0       -1.431679    0.526723   -1.312743
     64          7           0       -1.721826   -0.775728   -1.229069
     65          1           0       -6.696453    1.387503   -2.166184
     66          6           0       -5.678977    1.040498   -1.983758
     67          7           0       -5.338753   -0.213544   -1.812563
     68          6           0       -3.966231   -0.163075   -1.616688
     69          6           0       -4.643439    3.383582   -2.059166
     70          7           0       -4.622142    1.915102   -1.913864
 ---------------------------------------------------------------------

 SCF Done:  E(RwB97XD) =  -2048.75280143     A.U. after   15 cycles

 The electronic state is 1-A.
 Alpha  occ. eigenvalues --  -19.25632 -19.21908 -19.20493 -14.52590 -14.52218
 Alpha  occ. eigenvalues --  -14.48604 -14.48455 -14.48309 -14.47596 -14.46753
 Alpha  occ. eigenvalues --  -14.46392 -14.45627 -14.44342 -14.44339 -14.42243
 Alpha  occ. eigenvalues --  -14.41861 -14.41045 -14.40844 -14.40784 -14.40176
 Alpha  occ. eigenvalues --  -10.45222 -10.41063 -10.40040 -10.39984 -10.38134
 Alpha  occ. eigenvalues --  -10.38095 -10.37592 -10.37283 -10.35795 -10.35321
 Alpha  occ. eigenvalues --  -10.34687 -10.34174 -10.34054 -10.33761 -10.33236
 Alpha  occ. eigenvalues --  -10.33108 -10.32978 -10.32765 -10.30934 -10.30846
 Alpha  occ. eigenvalues --  -10.30734 -10.28261 -10.27952  -1.19221  -1.15315
 Alpha  occ. eigenvalues --   -1.13047  -1.12903  -1.11024  -1.10431  -1.09366
 Alpha  occ. eigenvalues --   -1.09091  -1.08389  -1.04925  -1.04857  -1.02259
 Alpha  occ. eigenvalues --   -1.01118  -1.00330  -0.99513  -0.98400  -0.96949
 Alpha  occ. eigenvalues --   -0.96642  -0.96440  -0.92589  -0.90851  -0.87726
 Alpha  occ. eigenvalues --   -0.86028  -0.83949  -0.83706  -0.83309  -0.82336
 Alpha  occ. eigenvalues --   -0.82127  -0.78671  -0.77124  -0.74925  -0.74453
 Alpha  occ. eigenvalues --   -0.73461  -0.73130  -0.72736  -0.70893  -0.70500
 Alpha  occ. eigenvalues --   -0.67195  -0.66901  -0.66308  -0.66140  -0.64360
 Alpha  occ. eigenvalues --   -0.64278  -0.63595  -0.62582  -0.62526  -0.61576
 Alpha  occ. eigenvalues --   -0.60681  -0.60512  -0.60361  -0.59496  -0.59300
 Alpha  occ. eigenvalues --   -0.59042  -0.58133  -0.56613  -0.56415  -0.56073
 Alpha  occ. eigenvalues --   -0.55790  -0.55515  -0.55273  -0.54291  -0.53982
 Alpha  occ. eigenvalues --   -0.53865  -0.53570  -0.53475  -0.53235  -0.52857
 Alpha  occ. eigenvalues --   -0.52785  -0.52164  -0.51623  -0.50556  -0.50144
 Alpha  occ. eigenvalues --   -0.50029  -0.49865  -0.49260  -0.48988  -0.48702
 Alpha  occ. eigenvalues --   -0.48680  -0.48415  -0.48195  -0.47458  -0.47211
 Alpha  occ. eigenvalues --   -0.46772  -0.45737  -0.45047  -0.44553  -0.43524
 Alpha  occ. eigenvalues --   -0.40937  -0.40822  -0.39248  -0.37760  -0.37671
 Alpha  occ. eigenvalues --   -0.37209  -0.37138  -0.36910  -0.35939  -0.34768
 Alpha  occ. eigenvalues --   -0.34442  -0.33804  -0.33316  -0.33176  -0.33066
 Alpha  occ. eigenvalues --   -0.32570  -0.32360  -0.32168  -0.31776  -0.30727
 Alpha  occ. eigenvalues --   -0.30352  -0.29679  -0.25654  -0.25172
 Alpha virt. eigenvalues --    0.03168   0.03883   0.06929   0.07986   0.08753
 Alpha virt. eigenvalues --    0.09394   0.09921   0.10320   0.11224   0.12129
 Alpha virt. eigenvalues --    0.12629   0.14341   0.14395   0.14761   0.15086

 Mulliken charges:
               1
     1  N   -0.312639
     2  C    0.180648
     3  C    0.060855
     4  N   -0.259465
     5  C    0.138991
     6  H    0.025980
     7  N   -0.295008
     8  C    0.134351
     9  H    0.011064
    10  N   -0.289445
    11  C    0.251050
    12  C    0.100770
    13  N   -0.052927
    14  H    0.111579
    15  H    0.082933
    16  H    0.024879
    17  H    0.030060
    18  H    0.025873
    19  N   -0.304005
    20  C    0.248782
    21  C    0.180929
    22  N   -0.111942
    23  H    0.113256
    24  H    0.115419
    25  N   -0.308356
    26  C    0.233355
    27  N   -0.145508
    28  H    0.121631
    29  C    0.186659
    30  O   -0.323092
    31  C   -0.013877
    32  N   -0.224467
    33  C    0.129321
    34  H    0.018416
    35  H    0.029816
    36  H    0.028054
    37  H    0.022848
    38  H    0.062650
    39  H    0.058764
    40  H    0.071675
    41  H    0.026095
    42  C   -0.109987
    43  O   -0.267078
    44  C    0.163276
    45  H    0.131217
    46  N   -0.116243
    47  O   -0.339120
    48  C    0.332866
    49  H    0.046384
    50  C    0.165435
    51  C    0.034347
    52  N   -0.277527
    53  H    0.035015
    54  H    0.038939
    55  H    0.028128
    56  H    0.126017
    57  H    0.115826
    58  N   -0.053836
    59  C    0.083808
    60  C    0.248228
    61  N   -0.273210
    62  H    0.040250
    63  C    0.160091
    64  N   -0.302880
    65  H    0.037601
    66  C    0.131534
    67  N   -0.261694
    68  C    0.022495
    69  C    0.180832
    70  N   -0.306689
 Sum of Mulliken charges =  -0.00000

 Dipole moment (field-independent basis, Debye):
    X=             -7.7060    Y=              6.5267    Z=             -2.2533  Tot=             10.3469
 Quadrupole moment (field-independent basis, Debye-Ang):
   XX=           -152.6730   YY=           -221.2990   ZZ=           -255.1757
   XY=             -1.7812   XZ=             -3.1607   YZ=              7.9373

 Normal termination of Gaussian 16 at Mon Jan 22 18:24:28 2018.
