 Gaussian 16, Revision A.03,
 Gaussian 16:  EM64L-G16RevA.03 25-Dec-2016

 ---------------------------------------
 #p wb97xd/cc-pvdz sp scf=(maxcycles=20)
 ---------------------------------------

 ------------------
 Base pair stacking
 ------------------
 Symbolic Z-matrix:
 Charge =  0 Multiplicity = 1

                         Standard orientation:
 ---------------------------------------------------------------------
 Center     Atomic      Atomic             Coordinates (Angstroms)
 Number     Number       Type             X           Y           Z
 ---------------------------------------------------------------------
      1          7           0       -6.386026   -1.487649    0.641518
      2          6           0       -7.756994   -0.943624    0.591607
      3          6           0       -4.205764   -1.688822    0.849558
      4          7           0       -4.685529   -2.955574    0.549730
      5          6           0       -5.979859   -2.783670    0.436392
      6          1           0       -6.692281   -3.575256    0.202285
      7          7           0       -2.776063    0.115903    1.361265
      8          6           0       -3.873453    0.879285    1.384857
      9          1           0       -3.703145    1.931622    1.608079
     10          7           0       -5.143664    0.539495    1.175099
     11          6           0       -5.242220   -0.773576    0.909487
     12          6           0       -2.908554   -1.201106    1.091043
     13          7           0       -1.814293   -1.964760    1.067040
     14          1           0       -1.865246   -2.944731    0.871372
     15          1           0       -0.906755   -1.583578    1.243737
     16          1           0       -8.324693   -1.403671    1.274448
     17          1           0       -7.734501    0.036954    0.784169
     18          1           0       -8.144686   -1.094198   -0.317797
     19          7           0       -3.189600    2.398556   -1.580371
     20          6           0       -1.840865    2.192559   -1.417489
     21          6           0       -3.889220    3.681322   -1.366515
     22          7           0        1.310809    3.405698   -0.606950
     23          1           0        2.244194    3.052835   -0.547582
     24          1           0        1.175752    4.371376   -0.383478
     25          7           0       -0.935423    3.119936   -1.037760
     26          6           0        0.285671    2.619998   -0.969820
     27          7           0        0.598257    1.312213   -1.251776
     28          1           0        1.559472    1.017502   -1.173224
     29          6           0       -0.317155    0.340713   -1.644292
     30          8           0        0.068997   -0.811818   -1.875116
     31          6           0       -1.633313    0.862851   -1.721760
     32          7           0       -2.827718    0.246442   -2.068685
     33          6           0       -3.720805    1.193564   -1.970843
     34          1           0       -4.784966    1.066853   -2.172745
     35          1           0       -4.580097    3.571152   -0.652810
     36          1           0       -3.228583    4.375946   -1.084888
     37          1           0       -4.330721    3.967797   -2.216111
     38          1           0        6.400600    0.027344    0.025019
     39          1           0        6.644491    0.178971   -1.713422
     40          1           0        5.391503    1.128422   -0.913444
     41          1           0        4.775339   -4.247423   -1.468797
     42          6           0        4.446044   -3.209241   -1.424441
     43          8           0        2.159975   -3.726171   -1.790240
     44          6           0        3.057404   -2.907350   -1.592916
     45          1           0        1.776749   -1.311539   -1.633390
     46          7           0        2.748284   -1.564128   -1.519129
     47          8           0        3.249897    0.635158   -1.256924
     48          6           0        3.619150   -0.524970   -1.306313
     49          1           0        6.385902   -2.393812   -1.081168
     50          6           0        5.319513   -2.217304   -1.215376
     51          6           0        5.908007    0.180133   -0.923699
     52          7           0        4.940463   -0.896376   -1.153338
     53          1           0        4.100260    3.673777    3.016590
     54          1           0        2.934263    3.739830    1.877203
     55          1           0        4.504398    3.679787    1.435434
     56          1           0        1.632535   -3.161628    1.515553
     57          1           0        3.254736   -2.835925    1.930865
     58          7           0        2.346124   -2.485814    1.700524
     59          6           0        2.098126   -1.175716    1.642843
     60          6           0        2.657536    1.131984    1.795447
     61          7           0        1.427788    1.573412    1.483545
     62          1           0       -0.418041    0.819336    1.009332
     63          6           0        0.604580    0.549092    1.269116
     64          7           0        0.851047   -0.763743    1.326391
     65          1           0        5.784421    1.324151    2.594128
     66          6           0        4.778140    0.992950    2.335944
     67          7           0        4.408786   -0.260575    2.236341
     68          6           0        3.066339   -0.186604    1.894115
     69          6           0        3.831885    3.363436    2.104634
     70          7           0        3.768611    1.889158    2.082184
 ---------------------------------------------------------------------

 SCF Done:  E(RwB97XD) =  -2048.74081021     A.U. after   15 cycles

 The electronic state is 1-A.
 Alpha  occ. eigenvalues --  -19.25887 -19.22020 -19.20563 -14.52398 -14.52056
 Alpha  occ. eigenvalues --  -14.48965 -14.48581 -14.47853 -14.47480 -14.46701
 Alpha  occ. eigenvalues --  -14.46321 -14.45075 -14.43605 -14.43301 -14.42455
 Alpha  occ. eigenvalues --  -14.41965 -14.41586 -14.41202 -14.40660 -14.40390
 Alpha  occ. eigenvalues --  -10.45493 -10.40958 -10.40141 -10.39289 -10.38094
 Alpha  occ. eigenvalues --  -10.37788 -10.37598 -10.36628 -10.35631 -10.35205
 Alpha  occ. eigenvalues --  -10.35167 -10.34254 -10.34198 -10.34000 -10.33554
 Alpha  occ. eigenvalues --  -10.33344 -10.33131 -10.31984 -10.31197 -10.31084
 Alpha  occ. eigenvalues --  -10.30630 -10.28711 -10.27955  -1.19459  -1.14733
 Alpha  occ. eigenvalues --   -1.13139  -1.13040  -1.11536  -1.10448  -1.09284
 Alpha  occ. eigenvalues --   -1.08670  -1.08379  -1.05205  -1.04179  -1.02487
 Alpha  occ. eigenvalues --   -1.00668  -1.00578  -0.99566  -0.98449  -0.97165
 Alpha  occ. eigenvalues --   -0.96417  -0.96170  -0.92873  -0.91026  -0.87206
 Alpha  occ. eigenvalues --   -0.85688  -0.84145  -0.83927  -0.83596  -0.82522
 Alpha  occ. eigenvalues --   -0.82300  -0.78844  -0.76525  -0.74483  -0.74309
 Alpha  occ. eigenvalues --   -0.73531  -0.73339  -0.73106  -0.71282  -0.69942
 Alpha  occ. eigenvalues --   -0.67233  -0.66528  -0.66518  -0.66283  -0.64406
 Alpha  occ. eigenvalues --   -0.63819  -0.63658  -0.62923  -0.62661  -0.61571
 Alpha  occ. eigenvalues --   -0.60505  -0.60313  -0.60029  -0.59471  -0.59105
 Alpha  occ. eigenvalues --   -0.59070  -0.58177  -0.56887  -0.56664  -0.56434
 Alpha  occ. eigenvalues --   -0.55960  -0.55625  -0.55141  -0.54712  -0.54317
 Alpha  occ. eigenvalues --   -0.53842  -0.53541  -0.53080  -0.52828  -0.52768
 Alpha  occ. eigenvalues --   -0.52409  -0.52275  -0.51972  -0.50989  -0.50417
 Alpha  occ. eigenvalues --   -0.50046  -0.49488  -0.49411  -0.48860  -0.48795
 Alpha  occ. eigenvalues --   -0.48701  -0.48287  -0.48093  -0.47647  -0.47327
 Alpha  occ. eigenvalues --   -0.47152  -0.45606  -0.45108  -0.44082  -0.43815
 Alpha  occ. eigenvalues --   -0.41388  -0.40410  -0.39452  -0.37484  -0.37416
 Alpha  occ. eigenvalues --   -0.37259  -0.37169  -0.36690  -0.35913  -0.34378
 Alpha  occ. eigenvalues --   -0.34042  -0.33774  -0.33608  -0.33193  -0.32910
 Alpha  occ. eigenvalues --   -0.32588  -0.32278  -0.31937  -0.31739  -0.31131
 Alpha  occ. eigenvalues --   -0.30621  -0.29198  -0.25976  -0.25188
 Alpha virt. eigenvalues --    0.03027   0.04644   0.07316   0.07811   0.08809
 Alpha virt. eigenvalues --    0.09359   0.09748   0.10725   0.10962   0.11341
 Alpha virt. eigenvalues --    0.12910   0.14061   0.14353   0.14636   0.14845

 Mulliken charges:
               1
     1  N   -0.312430
     2  C    0.180545
     3  C    0.049309
     4  N   -0.259623
     5  C    0.134424
     6  H    0.027024
     7  N   -0.285203
     8  C    0.131066
     9  H    0.010982
    10  N   -0.291347
    11  C    0.239042
    12  C    0.115902
    13  N   -0.052341
    14  H    0.109119
    15  H    0.088329
    16  H    0.026176
    17  H    0.032512
    18  H    0.026064
    19  N   -0.305290
    20  C    0.246733
    21  C    0.179187
    22  N   -0.091194
    23  H    0.110399
    24  H    0.113650
    25  N   -0.299999
    26  C    0.216646
    27  N   -0.131297
    28  H    0.117713
    29  C    0.153577
    30  O   -0.320563
    31  C    0.013659
    32  N   -0.224636
    33  C    0.126041
    34  H    0.023515
    35  H    0.031229
    36  H    0.026989
    37  H    0.023338
    38  H    0.060760
    39  H    0.060024
    40  H    0.069266
    41  H    0.029709
    42  C   -0.116339
    43  O   -0.267522
    44  C    0.171386
    45  H    0.134371
    46  N   -0.127725
    47  O   -0.345734
    48  C    0.350801
    49  H    0.047856
    50  C    0.176749
    51  C    0.040730
    52  N   -0.286402
    53  H    0.036657
    54  H    0.032051
    55  H    0.025429
    56  H    0.125387
    57  H    0.116029
    58  N   -0.062841
    59  C    0.100236
    60  C    0.243067
    61  N   -0.276216
    62  H    0.037850
    63  C    0.171623
    64  N   -0.301191
    65  H    0.032712
    66  C    0.126676
    67  N   -0.260555
    68  C    0.010496
    69  C    0.175313
    70  N   -0.309901
 Sum of Mulliken charges =  -0.00000

 Dipole moment (field-independent basis, Debye):
    X=              7.3389    Y=              6.0585    Z=              2.8644  Tot=              9.9383
 Quadrupole moment (field-independent basis, Debye-Ang):
   XX=           -147.6564   YY=           -222.7771   ZZ=           -255.0893
   XY=              5.2938   XZ=              7.0687   YZ=             -9.2541

 Normal termination of Gaussian 16 at Tue Jan 23 09:57:28 2018.
