 Gaussian 16, Revision A.03,
 Gaussian 16:  EM64L-G16RevA.03 25-Dec-2016

 ---------------------------------------
 #p wb97xd/cc-pvdz sp scf=(maxcycles=20)
 ---------------------------------------

 ------------------
 Base pair stacking
 ------------------
 Symbolic Z-matrix:
 Charge =  0 Multiplicity = 1

                         Standard orientation:
 ---------------------------------------------------------------------
 Center     Atomic      Atomic             Coordinates (Angstroms)
 Number     Number       Type             X           Y           Z
 ---------------------------------------------------------------------
      1          7           0        5.212740   -1.839593   -1.402513
      2          6           0        6.594963   -1.381500   -1.642544
      3          6           0        3.020284   -1.933891   -1.255672
      4          7           0        3.491465   -3.165380   -0.824198
      5          6           0        4.793484   -3.059278   -0.929938
      6          1           0        5.502509   -3.847341   -0.674633
      7          7           0        1.599238   -0.145921   -1.844486
      8          6           0        2.708460    0.533980   -2.152626
      9          1           0        2.546382    1.546783   -2.518989
     10          7           0        3.981845    0.152412   -2.076510
     11          6           0        4.069589   -1.106202   -1.615425
     12          6           0        1.721048   -1.409814   -1.383187
     13          7           0        0.614968   -2.090122   -1.075058
     14          1           0        0.657741   -3.028425   -0.730160
     15          1           0       -0.293645   -1.685284   -1.178414
     16          1           0        7.033074   -1.977754   -2.315391
     17          1           0        6.580792   -0.443889   -1.988650
     18          1           0        7.111572   -1.411369   -0.786837
     19          7           0        4.450277    2.376151    1.097790
     20          6           0        3.085264    2.224277    1.138986
     21          6           0        5.160371    3.631126    0.779158
     22          7           0       -0.101572    3.564280    0.806924
     23          1           0       -1.046588    3.248819    0.888590
     24          1           0        0.036733    4.524757    0.563895
     25          7           0        2.170702    3.188235    0.897260
     26          6           0        0.934332    2.737220    1.013800
     27          7           0        0.615811    1.441686    1.341864
     28          1           0       -0.357264    1.185500    1.408617
     29          6           0        1.540374    0.433191    1.594830
     30          8           0        1.147678   -0.704110    1.883055
     31          6           0        2.872971    0.902582    1.473451
     32          7           0        4.080430    0.238071    1.638886
     33          6           0        4.985692    1.149541    1.406676
     34          1           0        6.062211    0.980063    1.447279
     35          1           0        5.731767    3.496620   -0.029685
     36          1           0        4.493121    4.352447    0.598237
     37          1           0        5.735027    3.896490    1.552562
     38          1           0       -5.358606    0.392275    0.950303
     39          1           0       -5.333440    0.546405    2.705372
     40          1           0       -4.177582    1.448822    1.725058
     41          1           0       -3.699054   -3.949377    2.192273
     42          6           0       -3.339159   -2.924851    2.097133
     43          8           0       -1.046428   -3.533188    2.117678
     44          6           0       -1.930080   -2.678749    2.055317
     45          1           0       -0.595490   -1.134968    1.900596
     46          7           0       -1.582422   -1.348501    1.933505
     47          8           0       -2.029963    0.869917    1.745107
     48          6           0       -2.433409   -0.274891    1.851422
     49          1           0       -5.274643   -2.032016    2.046478
     50          6           0       -4.194026   -1.898324    2.019243
     51          6           0       -4.723941    0.521649    1.814324
     52          7           0       -3.776416   -0.593169    1.898635
     53          1           0       -5.308144    3.531732   -3.046699
     54          1           0       -3.979438    3.702706   -2.115351
     55          1           0       -5.464297    3.811331   -1.446432
     56          1           0       -2.903177   -3.124142   -0.814868
     57          1           0       -4.556203   -2.766689   -1.038090
     58          7           0       -3.610257   -2.442392   -1.002998
     59          6           0       -3.306308   -1.157645   -1.198521
     60          6           0       -3.793623    1.127913   -1.646248
     61          7           0       -2.514571    1.534895   -1.593285
     62          1           0       -0.648107    0.750466   -1.274535
     63          6           0       -1.708084    0.507403   -1.334933
     64          7           0       -2.010566   -0.780072   -1.138783
     65          1           0       -6.996343    1.387860   -2.002942
     66          6           0       -5.975805    1.038907   -1.842665
     67          7           0       -5.643871   -0.204070   -1.592674
     68          6           0       -4.262970   -0.161554   -1.465966
     69          6           0       -4.915097    3.352270   -2.144864
     70          7           0       -4.905686    1.898787   -1.889332
 ---------------------------------------------------------------------

 SCF Done:  E(RwB97XD) =  -2048.75029146     A.U. after   15 cycles

 The electronic state is 1-A.
 Alpha  occ. eigenvalues --  -19.25655 -19.21969 -19.20552 -14.52555 -14.52288
 Alpha  occ. eigenvalues --  -14.48793 -14.48330 -14.48228 -14.47598 -14.46834
 Alpha  occ. eigenvalues --  -14.46586 -14.45594 -14.44402 -14.44351 -14.42157
 Alpha  occ. eigenvalues --  -14.41987 -14.40983 -14.40815 -14.40690 -14.40123
 Alpha  occ. eigenvalues --  -10.45262 -10.41204 -10.40088 -10.40030 -10.38188
 Alpha  occ. eigenvalues --  -10.38114 -10.37666 -10.37291 -10.35876 -10.35222
 Alpha  occ. eigenvalues --  -10.34747 -10.34353 -10.33957 -10.33560 -10.33425
 Alpha  occ. eigenvalues --  -10.32948 -10.32861 -10.32768 -10.30947 -10.30915
 Alpha  occ. eigenvalues --  -10.30640 -10.28114 -10.28113  -1.19236  -1.15300
 Alpha  occ. eigenvalues --   -1.13151  -1.12951  -1.10818  -1.10578  -1.09459
 Alpha  occ. eigenvalues --   -1.09113  -1.08511  -1.04935  -1.04788  -1.02280
 Alpha  occ. eigenvalues --   -1.01096  -1.00204  -0.99673  -0.98520  -0.96979
 Alpha  occ. eigenvalues --   -0.96605  -0.96470  -0.92486  -0.90913  -0.87714
 Alpha  occ. eigenvalues --   -0.85982  -0.84118  -0.83529  -0.83352  -0.82499
 Alpha  occ. eigenvalues --   -0.81950  -0.78734  -0.77143  -0.74929  -0.74610
 Alpha  occ. eigenvalues --   -0.73592  -0.73162  -0.72592  -0.70753  -0.70503
 Alpha  occ. eigenvalues --   -0.67348  -0.66931  -0.66351  -0.65991  -0.64392
 Alpha  occ. eigenvalues --   -0.64347  -0.63702  -0.62619  -0.62431  -0.61737
 Alpha  occ. eigenvalues --   -0.60688  -0.60482  -0.60298  -0.59450  -0.59350
 Alpha  occ. eigenvalues --   -0.59107  -0.58300  -0.56664  -0.56307  -0.55907
 Alpha  occ. eigenvalues --   -0.55847  -0.55435  -0.55179  -0.54335  -0.54018
 Alpha  occ. eigenvalues --   -0.53782  -0.53586  -0.53542  -0.53227  -0.52947
 Alpha  occ. eigenvalues --   -0.52877  -0.52202  -0.51445  -0.50394  -0.50160
 Alpha  occ. eigenvalues --   -0.50084  -0.49785  -0.49317  -0.49137  -0.48804
 Alpha  occ. eigenvalues --   -0.48604  -0.48484  -0.48322  -0.47661  -0.47271
 Alpha  occ. eigenvalues --   -0.46626  -0.45801  -0.45276  -0.44436  -0.43381
 Alpha  occ. eigenvalues --   -0.40846  -0.40789  -0.39265  -0.37744  -0.37687
 Alpha  occ. eigenvalues --   -0.37300  -0.37266  -0.36780  -0.35899  -0.34810
 Alpha  occ. eigenvalues --   -0.34415  -0.33945  -0.33217  -0.33145  -0.32971
 Alpha  occ. eigenvalues --   -0.32682  -0.32495  -0.32320  -0.31876  -0.30559
 Alpha  occ. eigenvalues --   -0.30211  -0.29631  -0.25550  -0.25392
 Alpha virt. eigenvalues --    0.02969   0.04042   0.06658   0.08217   0.08960
 Alpha virt. eigenvalues --    0.09261   0.09776   0.10352   0.11284   0.12032
 Alpha virt. eigenvalues --    0.12876   0.14320   0.14570   0.14790   0.14874

 Mulliken charges:
               1
     1  N   -0.311369
     2  C    0.180952
     3  C    0.058372
     4  N   -0.258452
     5  C    0.141687
     6  H    0.025828
     7  N   -0.296554
     8  C    0.133281
     9  H    0.010544
    10  N   -0.288557
    11  C    0.252347
    12  C    0.096088
    13  N   -0.054715
    14  H    0.113651
    15  H    0.082765
    16  H    0.024033
    17  H    0.029826
    18  H    0.025790
    19  N   -0.307320
    20  C    0.255513
    21  C    0.181215
    22  N   -0.119544
    23  H    0.116463
    24  H    0.116996
    25  N   -0.310946
    26  C    0.244056
    27  N   -0.145200
    28  H    0.117786
    29  C    0.191849
    30  O   -0.322377
    31  C   -0.017004
    32  N   -0.225538
    33  C    0.126210
    34  H    0.019459
    35  H    0.029257
    36  H    0.029046
    37  H    0.023578
    38  H    0.063610
    39  H    0.058975
    40  H    0.073528
    41  H    0.024900
    42  C   -0.115086
    43  O   -0.267168
    44  C    0.165677
    45  H    0.130721
    46  N   -0.117104
    47  O   -0.342333
    48  C    0.337446
    49  H    0.045044
    50  C    0.167141
    51  C    0.035878
    52  N   -0.275977
    53  H    0.034589
    54  H    0.040189
    55  H    0.028459
    56  H    0.124836
    57  H    0.114579
    58  N   -0.051925
    59  C    0.089608
    60  C    0.247350
    61  N   -0.273538
    62  H    0.033353
    63  C    0.171268
    64  N   -0.309756
    65  H    0.037854
    66  C    0.132683
    67  N   -0.261567
    68  C    0.013653
    69  C    0.181112
    70  N   -0.307012
 Sum of Mulliken charges =  -0.00000

 Dipole moment (field-independent basis, Debye):
    X=             -7.7478    Y=              6.7861    Z=             -1.6760  Tot=             10.4350
 Quadrupole moment (field-independent basis, Debye-Ang):
   XX=           -154.6575   YY=           -220.6574   ZZ=           -254.2221
   XY=             -0.5908   XZ=             -6.9067   YZ=              6.4940

 Normal termination of Gaussian 16 at Tue Jan 23 10:32:23 2018.
