 Gaussian 16, Revision A.03,
 Gaussian 16:  EM64L-G16RevA.03 25-Dec-2016

 ---------------------------------------
 #p wb97xd/cc-pvdz sp scf=(maxcycles=20)
 ---------------------------------------

 ------------------
 Base pair stacking
 ------------------
 Symbolic Z-matrix:
 Charge =  0 Multiplicity = 1

                         Standard orientation:
 ---------------------------------------------------------------------
 Center     Atomic      Atomic             Coordinates (Angstroms)
 Number     Number       Type             X           Y           Z
 ---------------------------------------------------------------------
      1          7           0        4.902051   -1.588434   -1.573779
      2          6           0        6.291542   -1.091332   -1.588283
      3          6           0        2.705814   -1.702784   -1.545951
      4          7           0        3.162468   -3.012736   -1.561460
      5          6           0        4.467345   -2.891408   -1.577601
      6          1           0        5.167571   -3.727105   -1.592823
      7          7           0        1.304971    0.194460   -1.513852
      8          6           0        2.423842    0.926310   -1.523114
      9          1           0        2.273984    2.005064   -1.513305
     10          7           0        3.694089    0.527540   -1.542600
     11          6           0        3.766515   -0.813746   -1.553322
     12          6           0        1.411446   -1.152244   -1.525057
     13          7           0        0.295695   -1.884503   -1.515837
     14          1           0        0.327025   -2.884593   -1.523528
     15          1           0       -0.609047   -1.458635   -1.500919
     16          1           0        6.754766   -1.416583   -2.412796
     17          1           0        6.288844   -0.091798   -1.580974
     18          1           0        6.776498   -1.427568   -0.780981
     19          7           0        4.772601    2.088747    0.982309
     20          6           0        3.407023    1.936986    0.996881
     21          6           0        5.490019    3.327988    0.621330
     22          7           0        0.229028    3.254672    0.521659
     23          1           0       -0.717633    2.942088    0.594950
     24          1           0        0.373040    4.202542    0.236169
     25          7           0        2.498470    2.886819    0.686376
     26          6           0        1.259712    2.440084    0.793777
     27          7           0        0.933535    1.161364    1.175856
     28          1           0       -0.040831    0.907240    1.230692
     29          6           0        1.851820    0.167608    1.499971
     30          8           0        1.452421   -0.955082    1.832806
     31          6           0        3.186886    0.632617    1.389235
     32          7           0        4.390056   -0.021356    1.616423
     33          6           0        5.300534    0.879235    1.363109
     34          1           0        6.375770    0.713529    1.438542
     35          1           0        6.081385    3.155565   -0.165662
     36          1           0        4.827246    4.038765    0.389379
     37          1           0        6.045180    3.631151    1.395087
     38          1           0       -5.028985    0.085365    0.687112
     39          1           0       -5.047523    0.323846    2.432805
     40          1           0       -3.867913    1.179753    1.439166
     41          1           0       -3.399513   -4.188967    2.177561
     42          6           0       -3.037681   -3.169673    2.042156
     43          8           0       -0.745985   -3.772877    2.148884
     44          6           0       -1.628065   -2.923750    2.023517
     45          1           0       -0.290507   -1.387213    1.827808
     46          7           0       -1.277898   -1.600395    1.846447
     47          8           0       -1.721278    0.605716    1.540367
     48          6           0       -2.126893   -0.533257    1.691650
     49          1           0       -4.971573   -2.283218    1.900527
     50          6           0       -3.890655   -2.149368    1.893713
     51          6           0       -4.416042    0.257137    1.559388
     52          7           0       -3.470565   -0.850910    1.720792
     53          1           0       -5.558516    4.140457   -1.577817
     54          1           0       -4.265033    3.955844   -0.600619
     55          1           0       -5.773534    3.838609    0.011551
     56          1           0       -3.228274   -2.902430   -1.760163
     57          1           0       -4.872479   -2.469811   -1.899897
     58          7           0       -3.928869   -2.189931   -1.719643
     59          6           0       -3.619632   -0.922593   -1.437839
     60          6           0       -4.093186    1.379337   -1.065574
     61          7           0       -2.817455    1.726338   -0.827822
     62          1           0       -0.962909    0.858050   -0.742276
     63          6           0       -2.019635    0.664441   -0.921441
     64          7           0       -2.327439   -0.605692   -1.203579
     65          1           0       -7.281028    1.786071   -1.418346
     66          6           0       -6.266595    1.391050   -1.356404
     67          7           0       -5.942423    0.136083   -1.550452
     68          6           0       -4.567153    0.114909   -1.369040
     69          6           0       -5.198524    3.649429   -0.784538
     70          7           0       -5.196589    2.199370   -1.058993
 ---------------------------------------------------------------------

 SCF Done:  E(RwB97XD) =  -2048.72677015     A.U. after   15 cycles

 The electronic state is 1-A.
 Alpha  occ. eigenvalues --  -19.25200 -19.21410 -19.20349 -14.52965 -14.51875
 Alpha  occ. eigenvalues --  -14.48899 -14.48568 -14.48454 -14.47275 -14.46437
 Alpha  occ. eigenvalues --  -14.46354 -14.45874 -14.44850 -14.44702 -14.42950
 Alpha  occ. eigenvalues --  -14.41832 -14.41165 -14.40909 -14.40873 -14.40475
 Alpha  occ. eigenvalues --  -10.44850 -10.40958 -10.40592 -10.39537 -10.38428
 Alpha  occ. eigenvalues --  -10.37944 -10.37660 -10.37317 -10.36554 -10.35737
 Alpha  occ. eigenvalues --  -10.34299 -10.34097 -10.33910 -10.33882 -10.33374
 Alpha  occ. eigenvalues --  -10.33248 -10.32943 -10.32833 -10.30794 -10.30725
 Alpha  occ. eigenvalues --  -10.30646 -10.28500 -10.27865  -1.19047  -1.15748
 Alpha  occ. eigenvalues --   -1.12981  -1.12461  -1.11095  -1.10375  -1.09909
 Alpha  occ. eigenvalues --   -1.08808  -1.08333  -1.05422  -1.05263  -1.01901
 Alpha  occ. eigenvalues --   -1.01482  -1.00741  -0.99454  -0.98368  -0.97485
 Alpha  occ. eigenvalues --   -0.96812  -0.96454  -0.92960  -0.90563  -0.88208
 Alpha  occ. eigenvalues --   -0.86387  -0.83998  -0.83796  -0.82969  -0.82349
 Alpha  occ. eigenvalues --   -0.82213  -0.78369  -0.77603  -0.75478  -0.74435
 Alpha  occ. eigenvalues --   -0.73381  -0.73027  -0.72825  -0.71163  -0.70945
 Alpha  occ. eigenvalues --   -0.67409  -0.67141  -0.66440  -0.66043  -0.64831
 Alpha  occ. eigenvalues --   -0.64171  -0.63561  -0.62890  -0.62528  -0.61566
 Alpha  occ. eigenvalues --   -0.61301  -0.60929  -0.60746  -0.59949  -0.59192
 Alpha  occ. eigenvalues --   -0.58836  -0.58072  -0.57174  -0.56547  -0.56012
 Alpha  occ. eigenvalues --   -0.55851  -0.55743  -0.55618  -0.54861  -0.54175
 Alpha  occ. eigenvalues --   -0.53859  -0.53799  -0.53286  -0.53215  -0.52822
 Alpha  occ. eigenvalues --   -0.52214  -0.51939  -0.51710  -0.50680  -0.50484
 Alpha  occ. eigenvalues --   -0.49948  -0.49853  -0.49647  -0.49083  -0.49011
 Alpha  occ. eigenvalues --   -0.48598  -0.48127  -0.47996  -0.47694  -0.47050
 Alpha  occ. eigenvalues --   -0.46997  -0.45521  -0.44830  -0.44331  -0.43004
 Alpha  occ. eigenvalues --   -0.41344  -0.41151  -0.39062  -0.38208  -0.38108
 Alpha  occ. eigenvalues --   -0.37609  -0.37161  -0.36808  -0.35441  -0.35216
 Alpha  occ. eigenvalues --   -0.34924  -0.34343  -0.33473  -0.33214  -0.32734
 Alpha  occ. eigenvalues --   -0.32427  -0.32061  -0.31705  -0.31499  -0.30652
 Alpha  occ. eigenvalues --   -0.30357  -0.30115  -0.26182  -0.24988
 Alpha virt. eigenvalues --    0.03307   0.03763   0.06105   0.07895   0.09064
 Alpha virt. eigenvalues --    0.09549   0.09841   0.09909   0.10788   0.12206
 Alpha virt. eigenvalues --    0.12943   0.14232   0.14263   0.14542   0.14897

 Mulliken charges:
               1
     1  N   -0.310659
     2  C    0.181056
     3  C    0.060675
     4  N   -0.263201
     5  C    0.143303
     6  H    0.027105
     7  N   -0.280649
     8  C    0.115385
     9  H    0.023218
    10  N   -0.274514
    11  C    0.255366
    12  C    0.083771
    13  N   -0.061781
    14  H    0.109311
    15  H    0.080519
    16  H    0.024439
    17  H    0.026974
    18  H    0.029769
    19  N   -0.293536
    20  C    0.243081
    21  C    0.182982
    22  N   -0.107407
    23  H    0.116267
    24  H    0.115531
    25  N   -0.293284
    26  C    0.205332
    27  N   -0.106778
    28  H    0.112174
    29  C    0.166915
    30  O   -0.321673
    31  C   -0.005356
    32  N   -0.223955
    33  C    0.112305
    34  H    0.017726
    35  H    0.025075
    36  H    0.028616
    37  H    0.022816
    38  H    0.063628
    39  H    0.051329
    40  H    0.078544
    41  H    0.027012
    42  C   -0.111078
    43  O   -0.263971
    44  C    0.177663
    45  H    0.131147
    46  N   -0.125377
    47  O   -0.339822
    48  C    0.343024
    49  H    0.044596
    50  C    0.164336
    51  C    0.047208
    52  N   -0.277850
    53  H    0.035913
    54  H    0.037806
    55  H    0.030942
    56  H    0.119959
    57  H    0.119323
    58  N   -0.062361
    59  C    0.098713
    60  C    0.209190
    61  N   -0.267958
    62  H    0.003313
    63  C    0.201223
    64  N   -0.310093
    65  H    0.039067
    66  C    0.128490
    67  N   -0.249238
    68  C    0.005126
    69  C    0.182055
    70  N   -0.298781
 Sum of Mulliken charges =  -0.00000

 Dipole moment (field-independent basis, Debye):
    X=             -7.6085    Y=              6.6684    Z=             -2.6579  Tot=             10.4605
 Quadrupole moment (field-independent basis, Debye-Ang):
   XX=           -157.1781   YY=           -224.0632   ZZ=           -255.6919
   XY=              2.3275   XZ=            -12.0162   YZ=             13.7517

 Normal termination of Gaussian 16 at Tue Jan 23 06:39:59 2018.
