 Gaussian 16, Revision A.03,
 Gaussian 16:  EM64L-G16RevA.03 25-Dec-2016

 ---------------------------------------
 #p wb97xd/cc-pvdz sp scf=(maxcycles=20)
 ---------------------------------------

 ------------------
 Base pair stacking
 ------------------
 Symbolic Z-matrix:
 Charge =  0 Multiplicity = 1

                         Standard orientation:
 ---------------------------------------------------------------------
 Center     Atomic      Atomic             Coordinates (Angstroms)
 Number     Number       Type             X           Y           Z
 ---------------------------------------------------------------------
      1          7           0        5.202704   -1.664990   -1.431741
      2          6           0        6.589229   -1.165646   -1.510450
      3          6           0        3.007086   -1.788706   -1.395551
      4          7           0        3.471665   -3.085154   -1.227804
      5          6           0        4.775843   -2.958730   -1.256317
      6          1           0        5.481129   -3.783882   -1.153244
      7          7           0        1.594754    0.085493   -1.631387
      8          6           0        2.709248    0.816277   -1.738338
      9          1           0        2.552876    1.884977   -1.878664
     10          7           0        3.981932    0.426957   -1.698171
     11          6           0        4.062457   -0.902374   -1.522602
     12          6           0        1.709364   -1.249044   -1.455435
     13          7           0        0.598006   -1.980214   -1.348461
     14          1           0        0.635375   -2.971488   -1.217334
     15          1           0       -0.309331   -1.562303   -1.395707
     16          1           0        7.057832   -1.599014   -2.280371
     17          1           0        6.580491   -0.174791   -1.641776
     18          1           0        7.072825   -1.383576   -0.662726
     19          7           0        4.471148    2.210906    1.133744
     20          6           0        3.105947    2.055108    1.133036
     21          6           0        5.187927    3.460624    0.809494
     22          7           0       -0.071805    3.375440    0.663608
     23          1           0       -1.018127    3.058571    0.721175
     24          1           0        0.071818    4.330462    0.402805
     25          7           0        2.197249    3.009828    0.838375
     26          6           0        0.958958    2.557211    0.924260
     27          7           0        0.633331    1.268559    1.271930
     28          1           0       -0.340708    1.010508    1.312256
     29          6           0        1.551794    0.269621    1.579196
     30          8           0        1.152903   -0.862029    1.880865
     31          6           0        2.886359    0.740852    1.491237
     32          7           0        4.089497    0.084757    1.712386
     33          6           0        4.999420    0.993807    1.489053
     34          1           0        6.074473    0.829221    1.569456
     35          1           0        5.786365    3.309282    0.023513
     36          1           0        4.525042    4.175097    0.589542
     37          1           0        5.735700    3.746110    1.595147
     38          1           0       -5.321704    0.188705    0.706465
     39          1           0       -5.355553    0.383986    2.457289
     40          1           0       -4.170184    1.267360    1.495048
     41          1           0       -3.692233   -4.116656    2.104804
     42          6           0       -3.332270   -3.093339    1.997619
     43          8           0       -1.039793   -3.692741    2.108796
     44          6           0       -1.923279   -2.843194    1.996962
     45          1           0       -0.588640   -1.298657    1.850490
     46          7           0       -1.575522   -1.514922    1.855535
     47          8           0       -2.022803    0.696855    1.600194
     48          6           0       -2.426317   -0.446610    1.719928
     49          1           0       -5.267504   -2.208925    1.861562
     50          6           0       -4.186959   -2.072015    1.867185
     51          6           0       -4.716593    0.340558    1.587858
     52          7           0       -3.769252   -0.768544    1.729871
     53          1           0       -5.291968    3.939675   -2.264356
     54          1           0       -4.001472    3.900742   -1.266744
     55          1           0       -5.511782    3.859653   -0.649208
     56          1           0       -2.918743   -3.045152   -1.460906
     57          1           0       -4.564924   -2.646806   -1.664673
     58          7           0       -3.623766   -2.338489   -1.521857
     59          6           0       -3.323319   -1.042340   -1.417453
     60          6           0       -3.812232    1.285828   -1.369466
     61          7           0       -2.539604    1.670749   -1.177924
     62          1           0       -0.680252    0.834809   -0.966726
     63          6           0       -1.735045    0.611355   -1.120786
     64          7           0       -2.034040   -0.687600   -1.225139
     65          1           0       -7.000962    1.618933   -1.785705
     66          6           0       -5.984439    1.242943   -1.666263
     67          7           0       -5.651938   -0.024661   -1.683390
     68          6           0       -4.277329   -0.011526   -1.496261
     69          6           0       -4.932337    3.565700   -1.409483
     70          7           0       -4.920555    2.091646   -1.480261
 ---------------------------------------------------------------------

 SCF Done:  E(RwB97XD) =  -2048.75104434     A.U. after   15 cycles

 The electronic state is 1-A.
 Alpha  occ. eigenvalues --  -19.25347 -19.21602 -19.20396 -14.52859 -14.52025
 Alpha  occ. eigenvalues --  -14.48637 -14.48544 -14.48450 -14.47376 -14.46579
 Alpha  occ. eigenvalues --  -14.46250 -14.45818 -14.44637 -14.44615 -14.42597
 Alpha  occ. eigenvalues --  -14.41809 -14.41097 -14.40897 -14.40798 -14.40333
 Alpha  occ. eigenvalues --  -10.44994 -10.40985 -10.40382 -10.39714 -10.38363
 Alpha  occ. eigenvalues --  -10.38005 -10.37566 -10.37460 -10.36202 -10.35541
 Alpha  occ. eigenvalues --  -10.34429 -10.34238 -10.34131 -10.33819 -10.33251
 Alpha  occ. eigenvalues --  -10.33194 -10.33020 -10.32970 -10.30811 -10.30760
 Alpha  occ. eigenvalues --  -10.30706 -10.28378 -10.27897  -1.19051  -1.15595
 Alpha  occ. eigenvalues --   -1.12951  -1.12620  -1.11056  -1.10360  -1.09675
 Alpha  occ. eigenvalues --   -1.08922  -1.08294  -1.05193  -1.05066  -1.02031
 Alpha  occ. eigenvalues --   -1.01371  -1.00522  -0.99395  -0.98328  -0.97246
 Alpha  occ. eigenvalues --   -0.96738  -0.96394  -0.92769  -0.90680  -0.87999
 Alpha  occ. eigenvalues --   -0.86262  -0.83920  -0.83744  -0.83137  -0.82290
 Alpha  occ. eigenvalues --   -0.82180  -0.78494  -0.77411  -0.75241  -0.74395
 Alpha  occ. eigenvalues --   -0.73352  -0.72922  -0.72869  -0.71009  -0.70774
 Alpha  occ. eigenvalues --   -0.67215  -0.67083  -0.66285  -0.66124  -0.64642
 Alpha  occ. eigenvalues --   -0.64168  -0.63510  -0.62728  -0.62473  -0.61502
 Alpha  occ. eigenvalues --   -0.60974  -0.60807  -0.60573  -0.59728  -0.59216
 Alpha  occ. eigenvalues --   -0.58937  -0.58012  -0.56781  -0.56479  -0.55963
 Alpha  occ. eigenvalues --   -0.55768  -0.55650  -0.55499  -0.54451  -0.54075
 Alpha  occ. eigenvalues --   -0.53878  -0.53579  -0.53337  -0.53080  -0.53006
 Alpha  occ. eigenvalues --   -0.52732  -0.52034  -0.51677  -0.50580  -0.50285
 Alpha  occ. eigenvalues --   -0.50064  -0.49893  -0.49382  -0.49082  -0.48874
 Alpha  occ. eigenvalues --   -0.48574  -0.48260  -0.48085  -0.47443  -0.47078
 Alpha  occ. eigenvalues --   -0.46846  -0.45779  -0.44967  -0.44460  -0.43267
 Alpha  occ. eigenvalues --   -0.41165  -0.40962  -0.39067  -0.37986  -0.37957
 Alpha  occ. eigenvalues --   -0.37411  -0.37099  -0.36805  -0.35712  -0.35067
 Alpha  occ. eigenvalues --   -0.34712  -0.33869  -0.33428  -0.33212  -0.32817
 Alpha  occ. eigenvalues --   -0.32474  -0.32197  -0.32004  -0.31706  -0.30758
 Alpha  occ. eigenvalues --   -0.30450  -0.29909  -0.25800  -0.25234
 Alpha virt. eigenvalues --    0.03141   0.03939   0.06287   0.07991   0.09255
 Alpha virt. eigenvalues --    0.09420   0.09876   0.10055   0.11053   0.12229
 Alpha virt. eigenvalues --    0.12631   0.14248   0.14319   0.14667   0.15028

 Mulliken charges:
               1
     1  N   -0.311100
     2  C    0.180708
     3  C    0.060106
     4  N   -0.261271
     5  C    0.141708
     6  H    0.026620
     7  N   -0.290710
     8  C    0.132345
     9  H    0.012711
    10  N   -0.284851
    11  C    0.254251
    12  C    0.090881
    13  N   -0.055434
    14  H    0.110451
    15  H    0.081850
    16  H    0.024622
    17  H    0.028390
    18  H    0.027809
    19  N   -0.297448
    20  C    0.241840
    21  C    0.181858
    22  N   -0.111212
    23  H    0.114205
    24  H    0.115052
    25  N   -0.303509
    26  C    0.231609
    27  N   -0.134635
    28  H    0.113082
    29  C    0.185503
    30  O   -0.322969
    31  C   -0.016231
    32  N   -0.223885
    33  C    0.122594
    34  H    0.017300
    35  H    0.027847
    36  H    0.028088
    37  H    0.022502
    38  H    0.062301
    39  H    0.056973
    40  H    0.074989
    41  H    0.026419
    42  C   -0.110966
    43  O   -0.265282
    44  C    0.172845
    45  H    0.130703
    46  N   -0.121607
    47  O   -0.337543
    48  C    0.335800
    49  H    0.044938
    50  C    0.164172
    51  C    0.037821
    52  N   -0.277853
    53  H    0.035582
    54  H    0.037667
    55  H    0.029998
    56  H    0.121769
    57  H    0.117034
    58  N   -0.057464
    59  C    0.095565
    60  C    0.234705
    61  N   -0.269719
    62  H    0.031241
    63  C    0.172290
    64  N   -0.307335
    65  H    0.038515
    66  C    0.128426
    67  N   -0.255351
    68  C    0.011591
    69  C    0.181926
    70  N   -0.300835
 Sum of Mulliken charges =  -0.00000

 Dipole moment (field-independent basis, Debye):
    X=             -7.6835    Y=              6.5907    Z=             -2.4745  Tot=             10.4210
 Quadrupole moment (field-independent basis, Debye-Ang):
   XX=           -154.5625   YY=           -222.4669   ZZ=           -255.6926
   XY=             -0.2242   XZ=             -7.7438   YZ=             11.0750

 Normal termination of Gaussian 16 at Mon Jan 22 21:31:37 2018.
