 Gaussian 16, Revision A.03,
 Gaussian 16:  EM64L-G16RevA.03 25-Dec-2016

 ---------------------------------------
 #p wb97xd/cc-pvdz sp scf=(maxcycles=20)
 ---------------------------------------

 ------------------
 Base pair stacking
 ------------------
 Symbolic Z-matrix:
 Charge =  0 Multiplicity = 1

                         Standard orientation:
 ---------------------------------------------------------------------
 Center     Atomic      Atomic             Coordinates (Angstroms)
 Number     Number       Type             X           Y           Z
 ---------------------------------------------------------------------
      1          7           0       -5.230290   -2.096505    1.222198
      2          6           0       -6.603271   -1.741061    1.630332
      3          6           0       -3.044871   -2.118238    0.975595
      4          7           0       -3.529611   -3.186684    0.235205
      5          6           0       -4.826846   -3.130832    0.413408
      6          1           0       -5.543448   -3.825544   -0.025666
      7          7           0       -1.606135   -0.547094    1.987762
      8          6           0       -2.704182    0.005871    2.513219
      9          1           0       -2.530350    0.878510    3.141345
     10          7           0       -3.978728   -0.355578    2.379888
     11          6           0       -4.081389   -1.436956    1.589624
     12          6           0       -1.742833   -1.633920    1.197065
     13          7           0       -0.647916   -2.187314    0.671616
     14          1           0       -0.701870   -2.992878    0.080540
     15          1           0        0.263114   -1.815755    0.850779
     16          1           0       -7.013991   -2.506667    2.125638
     17          1           0       -6.577849   -0.936856    2.223407
     18          1           0       -7.152224   -1.537955    0.819532
     19          7           0       -4.418361    2.615958   -0.886198
     20          6           0       -3.054969    2.472083   -0.978463
     21          6           0       -5.121718    3.855147   -0.498412
     22          7           0        0.136535    3.814045   -0.704217
     23          1           0        1.079375    3.506199   -0.828863
     24          1           0        0.003127    4.764381   -0.421779
     25          7           0       -2.136181    3.430882   -0.732343
     26          6           0       -0.902849    2.990216   -0.906476
     27          7           0       -0.591011    1.708983   -1.292125
     28          1           0        0.380161    1.459980   -1.400635
     29          6           0       -1.520037    0.706045   -1.550761
     30          8           0       -1.133270   -0.418146   -1.893307
     31          6           0       -2.849433    1.164457   -1.367896
     32          7           0       -4.059440    0.500740   -1.517116
     33          6           0       -4.959567    1.398910   -1.221655
     34          1           0       -6.036257    1.225969   -1.232469
     35          1           0       -5.665203    3.688611    0.323601
     36          1           0       -4.451287    4.572526   -0.313629
     37          1           0       -5.722902    4.145796   -1.241984
     38          1           0        5.396785    0.674056   -1.138809
     39          1           0        5.312253    0.891858   -2.885248
     40          1           0        4.186787    1.752552   -1.834585
     41          1           0        3.711595   -3.627244   -2.482498
     42          6           0        3.351545   -2.608560   -2.338029
     43          8           0        1.061541   -3.226490   -2.304249
     44          6           0        1.943805   -2.370751   -2.240228
     45          1           0        0.609808   -0.839906   -1.984758
     46          7           0        1.595820   -1.047466   -2.058368
     47          8           0        2.041727    1.164699   -1.804066
     48          6           0        2.445348    0.026421   -1.965561
     49          1           0        5.284528   -1.709084   -2.319417
     50          6           0        4.204972   -1.581553   -2.251257
     51          6           0        4.733062    0.831816   -1.975856
     52          7           0        3.787113   -0.283630   -2.069170
     53          1           0        5.334372    2.737773    3.916831
     54          1           0        3.970585    3.144484    3.118847
     55          1           0        5.428490    3.454053    2.453437
     56          1           0        2.859869   -3.063033    0.006199
     57          1           0        4.519465   -2.760871    0.260226
     58          7           0        3.572189   -2.451713    0.351236
     59          6           0        3.273204   -1.276268    0.908117
     60          6           0        3.772438    0.800122    1.957444
     61          7           0        2.491421    1.189421    2.066416
     62          1           0        0.615797    0.501120    1.609372
     63          6           0        1.677823    0.264380    1.561181
     64          7           0        1.975327   -0.913539    1.002994
     65          1           0        6.985902    0.991195    2.256257
     66          6           0        5.960727    0.687735    2.042098
     67          7           0        5.622113   -0.440530    1.467618
     68          6           0        4.237287   -0.381995    1.407879
     69          6           0        4.907432    2.811648    3.015583
     70          7           0        4.891346    1.486873    2.365401
 ---------------------------------------------------------------------

 SCF Done:  E(RwB97XD) =  -2048.73670995     A.U. after   15 cycles

 The electronic state is 1-A.
 Alpha  occ. eigenvalues --  -19.26018 -19.22654 -19.20776 -14.52680 -14.52241
 Alpha  occ. eigenvalues --  -14.49011 -14.48014 -14.47972 -14.47949 -14.47108
 Alpha  occ. eigenvalues --  -14.46897 -14.45356 -14.44090 -14.43991 -14.42219
 Alpha  occ. eigenvalues --  -14.41630 -14.41161 -14.40502 -14.40367 -14.39788
 Alpha  occ. eigenvalues --  -10.45628 -10.41459 -10.40573 -10.39755 -10.38407
 Alpha  occ. eigenvalues --  -10.37909 -10.37839 -10.36969 -10.35535 -10.35061
 Alpha  occ. eigenvalues --  -10.34829 -10.34567 -10.33662 -10.33594 -10.33264
 Alpha  occ. eigenvalues --  -10.32649 -10.32564 -10.32494 -10.31269 -10.31105
 Alpha  occ. eigenvalues --  -10.30447 -10.28331 -10.27791  -1.19585  -1.14995
 Alpha  occ. eigenvalues --   -1.13578  -1.13393  -1.10802  -1.10539  -1.09620
 Alpha  occ. eigenvalues --   -1.09087  -1.08765  -1.04710  -1.04445  -1.02724
 Alpha  occ. eigenvalues --   -1.00836  -0.99965  -0.99813  -0.98752  -0.96818
 Alpha  occ. eigenvalues --   -0.96719  -0.96165  -0.92125  -0.91332  -0.87419
 Alpha  occ. eigenvalues --   -0.85693  -0.84338  -0.83692  -0.83256  -0.82709
 Alpha  occ. eigenvalues --   -0.81677  -0.79174  -0.76887  -0.74849  -0.74636
 Alpha  occ. eigenvalues --   -0.73863  -0.73583  -0.72261  -0.70447  -0.70260
 Alpha  occ. eigenvalues --   -0.67614  -0.66916  -0.66537  -0.65651  -0.64780
 Alpha  occ. eigenvalues --   -0.64198  -0.63902  -0.62866  -0.62077  -0.61984
 Alpha  occ. eigenvalues --   -0.60581  -0.60257  -0.60049  -0.59651  -0.59187
 Alpha  occ. eigenvalues --   -0.59133  -0.58589  -0.56811  -0.56176  -0.56000
 Alpha  occ. eigenvalues --   -0.55726  -0.55131  -0.54818  -0.54604  -0.54013
 Alpha  occ. eigenvalues --   -0.53881  -0.53730  -0.53522  -0.53386  -0.53207
 Alpha  occ. eigenvalues --   -0.52631  -0.52532  -0.51178  -0.50430  -0.50148
 Alpha  occ. eigenvalues --   -0.49816  -0.49695  -0.49492  -0.49174  -0.49086
 Alpha  occ. eigenvalues --   -0.48754  -0.48621  -0.48224  -0.47903  -0.47557
 Alpha  occ. eigenvalues --   -0.46348  -0.45917  -0.45526  -0.44282  -0.43347
 Alpha  occ. eigenvalues --   -0.40525  -0.40488  -0.39591  -0.37619  -0.37497
 Alpha  occ. eigenvalues --   -0.37487  -0.37375  -0.36484  -0.36163  -0.34544
 Alpha  occ. eigenvalues --   -0.34280  -0.33991  -0.33732  -0.32919  -0.32903
 Alpha  occ. eigenvalues --   -0.32828  -0.32720  -0.32534  -0.32080  -0.30274
 Alpha  occ. eigenvalues --   -0.29884  -0.29042  -0.25750  -0.25045
 Alpha virt. eigenvalues --    0.02526   0.04280   0.07042   0.08302   0.08590
 Alpha virt. eigenvalues --    0.09168   0.09567   0.10621   0.11621   0.11782
 Alpha virt. eigenvalues --    0.13238   0.14238   0.14548   0.14996   0.15081

 Mulliken charges:
               1
     1  N   -0.311951
     2  C    0.181164
     3  C    0.055893
     4  N   -0.255660
     5  C    0.140780
     6  H    0.024515
     7  N   -0.299653
     8  C    0.133033
     9  H    0.008923
    10  N   -0.290952
    11  C    0.249631
    12  C    0.099312
    13  N   -0.053930
    14  H    0.116316
    15  H    0.083047
    16  H    0.023584
    17  H    0.031000
    18  H    0.023786
    19  N   -0.310770
    20  C    0.254827
    21  C    0.180822
    22  N   -0.123189
    23  H    0.116709
    24  H    0.118495
    25  N   -0.311768
    26  C    0.248930
    27  N   -0.151460
    28  H    0.120569
    29  C    0.197953
    30  O   -0.321604
    31  C   -0.016013
    32  N   -0.225286
    33  C    0.128817
    34  H    0.021377
    35  H    0.029404
    36  H    0.029628
    37  H    0.024564
    38  H    0.064202
    39  H    0.059525
    40  H    0.073452
    41  H    0.025983
    42  C   -0.129412
    43  O   -0.267551
    44  C    0.157051
    45  H    0.130562
    46  N   -0.109295
    47  O   -0.343998
    48  C    0.337696
    49  H    0.046347
    50  C    0.172919
    51  C    0.038094
    52  N   -0.274236
    53  H    0.033699
    54  H    0.042321
    55  H    0.027414
    56  H    0.126590
    57  H    0.112251
    58  N   -0.042932
    59  C    0.087238
    60  C    0.249708
    61  N   -0.275068
    62  H    0.035607
    63  C    0.172194
    64  N   -0.313201
    65  H    0.036800
    66  C    0.135384
    67  N   -0.267307
    68  C    0.016618
    69  C    0.180706
    70  N   -0.310202
 Sum of Mulliken charges =  -0.00000

 Dipole moment (field-independent basis, Debye):
    X=              7.8328    Y=              7.0240    Z=              1.2108  Tot=             10.5904
 Quadrupole moment (field-independent basis, Debye-Ang):
   XX=           -154.9984   YY=           -220.2904   ZZ=           -251.5649
   XY=              0.9617   XZ=             -5.9778   YZ=             -0.4787

 Normal termination of Gaussian 16 at Thu Feb  1 13:33:58 2018.
