 Gaussian 16, Revision A.03,
 Gaussian 16:  EM64L-G16RevA.03 25-Dec-2016

 ---------------------------------------
 #p wb97xd/cc-pvdz sp scf=(maxcycles=20)
 ---------------------------------------

 ------------------
 Base pair stacking
 ------------------
 Symbolic Z-matrix:
 Charge =  0 Multiplicity = 1

                         Standard orientation:
 ---------------------------------------------------------------------
 Center     Atomic      Atomic             Coordinates (Angstroms)
 Number     Number       Type             X           Y           Z
 ---------------------------------------------------------------------
      1          7           0       -6.717047   -1.488988    0.318665
      2          6           0       -8.098948   -0.991781    0.464015
      3          6           0       -4.530785   -1.699197    0.434398
      4          7           0       -4.989363   -2.799107   -0.275978
      5          6           0       -6.288148   -2.628437   -0.317275
      6          1           0       -6.987799   -3.309271   -0.802973
      7          7           0       -3.130402   -0.143908    1.522039
      8          6           0       -4.242182    0.540765    1.809700
      9          1           0       -4.089750    1.458103    2.376722
     10          7           0       -5.508052    0.263705    1.503527
     11          6           0       -5.584170   -0.882709    0.807561
     12          6           0       -3.240445   -1.293225    0.820583
     13          7           0       -2.131793   -1.978094    0.532460
     14          1           0       -2.165977   -2.834036    0.015343
     15          1           0       -1.229740   -1.659128    0.823528
     16          1           0       -8.648792   -1.669394    0.952586
     17          1           0       -8.093274   -0.134855    0.978570
     18          1           0       -8.495120   -0.832962   -0.440322
     19          7           0       -2.749164    2.757564   -1.601521
     20          6           0       -1.406531    2.503526   -1.457108
     21          6           0       -3.389437    4.079203   -1.446517
     22          7           0        1.811843    3.624464   -0.788315
     23          1           0        2.730953    3.235856   -0.729493
     24          1           0        1.722556    4.606167   -0.617988
     25          7           0       -0.454262    3.411273   -1.151782
     26          6           0        0.746325    2.864116   -1.082321
     27          7           0        0.997286    1.530254   -1.295236
     28          1           0        1.947086    1.199541   -1.221232
     29          6           0        0.032913    0.578185   -1.610547
     30          8           0        0.365072   -0.601077   -1.783022
     31          6           0       -1.261936    1.151018   -1.688686
     32          7           0       -2.489102    0.567697   -1.972772
     33          6           0       -3.339414    1.556246   -1.909876
     34          1           0       -4.412583    1.464020   -2.080377
     35          1           0       -4.066450    4.039407   -0.712440
     36          1           0       -2.693772    4.759732   -1.220228
     37          1           0       -3.839494    4.335697   -2.301183
     38          1           0        6.771034    0.072342   -0.075974
     39          1           0        6.978010    0.114535   -1.825260
     40          1           0        5.785666    1.160666   -1.053702
     41          1           0        4.933309   -4.206670   -1.284040
     42          6           0        4.648597   -3.154483   -1.292345
     43          8           0        2.334703   -3.592863   -1.576702
     44          6           0        3.269956   -2.803388   -1.446992
     45          1           0        2.056048   -1.159015   -1.550951
     46          7           0        3.018779   -1.446131   -1.443966
     47          8           0        3.617596    0.740960   -1.320354
     48          6           0        3.937024   -0.434858   -1.310927
     49          1           0        6.628515   -2.404797   -1.039988
     50          6           0        5.567390   -2.190630   -1.160376
     51          6           0        6.261939    0.192044   -1.020722
     52          7           0        5.245154   -0.853282   -1.166241
     53          1           0        3.695188    2.794814    4.252884
     54          1           0        2.513758    3.217753    3.210075
     55          1           0        4.079038    3.347277    2.765989
     56          1           0        1.343283   -3.177306    0.528922
     57          1           0        2.963916   -2.975366    1.021741
     58          7           0        2.045752   -2.588583    0.929019
     59          6           0        1.771382   -1.342941    1.321790
     60          6           0        2.287271    0.787498    2.247446
     61          7           0        1.045230    1.280544    2.110791
     62          1           0       -0.791309    0.690796    1.418031
     63          6           0        0.239632    0.371691    1.565000
     64          7           0        0.512536   -0.876434    1.170926
     65          1           0        5.419651    0.767825    3.047423
     66          6           0        4.416877    0.521315    2.697258
     67          7           0        4.070958   -0.631733    2.179073
     68          6           0        2.723102   -0.476409    1.889488
     69          6           0        3.421419    2.807006    3.291166
     70          7           0        3.386803    1.427161    2.768836
 ---------------------------------------------------------------------

 SCF Done:  E(RwB97XD) =  -2048.74094825     A.U. after   15 cycles

 The electronic state is 1-A.
 Alpha  occ. eigenvalues --  -19.26150 -19.22613 -19.20882 -14.52777 -14.51373
 Alpha  occ. eigenvalues --  -14.48893 -14.48760 -14.48229 -14.47222 -14.47107
 Alpha  occ. eigenvalues --  -14.45954 -14.44475 -14.42864 -14.42699 -14.42290
 Alpha  occ. eigenvalues --  -14.41879 -14.41383 -14.40950 -14.40823 -14.40026
 Alpha  occ. eigenvalues --  -10.45817 -10.41535 -10.40759 -10.38483 -10.38293
 Alpha  occ. eigenvalues --  -10.38259 -10.36996 -10.35898 -10.35524 -10.35241
 Alpha  occ. eigenvalues --  -10.34556 -10.34353 -10.34048 -10.33386 -10.33311
 Alpha  occ. eigenvalues --  -10.33132 -10.33000 -10.31482 -10.31359 -10.31007
 Alpha  occ. eigenvalues --  -10.30936 -10.28448 -10.28316  -1.19749  -1.14049
 Alpha  occ. eigenvalues --   -1.13785  -1.13468  -1.11323  -1.10759  -1.09669
 Alpha  occ. eigenvalues --   -1.08860  -1.07683  -1.04851  -1.03307  -1.02903
 Alpha  occ. eigenvalues --   -1.00255  -1.00110  -0.99807  -0.98775  -0.96896
 Alpha  occ. eigenvalues --   -0.96720  -0.95295  -0.92485  -0.91473  -0.86433
 Alpha  occ. eigenvalues --   -0.84863  -0.84283  -0.83971  -0.83907  -0.82622
 Alpha  occ. eigenvalues --   -0.82277  -0.79294  -0.75701  -0.74827  -0.73968
 Alpha  occ. eigenvalues --   -0.73773  -0.73429  -0.72792  -0.70959  -0.69077
 Alpha  occ. eigenvalues --   -0.67668  -0.66957  -0.66185  -0.65425  -0.64828
 Alpha  occ. eigenvalues --   -0.64024  -0.62924  -0.62899  -0.62526  -0.62015
 Alpha  occ. eigenvalues --   -0.60107  -0.60015  -0.59895  -0.59170  -0.58767
 Alpha  occ. eigenvalues --   -0.58671  -0.58293  -0.56732  -0.56420  -0.56403
 Alpha  occ. eigenvalues --   -0.56280  -0.55219  -0.54800  -0.54626  -0.54173
 Alpha  occ. eigenvalues --   -0.53911  -0.53680  -0.53171  -0.52793  -0.52687
 Alpha  occ. eigenvalues --   -0.52386  -0.51709  -0.51612  -0.50713  -0.50455
 Alpha  occ. eigenvalues --   -0.50119  -0.49849  -0.49383  -0.49243  -0.49092
 Alpha  occ. eigenvalues --   -0.48501  -0.48394  -0.47908  -0.47757  -0.47564
 Alpha  occ. eigenvalues --   -0.46881  -0.45527  -0.44981  -0.44501  -0.43088
 Alpha  occ. eigenvalues --   -0.41063  -0.39741  -0.39537  -0.37506  -0.37443
 Alpha  occ. eigenvalues --   -0.37094  -0.36517  -0.36271  -0.36062  -0.34563
 Alpha  occ. eigenvalues --   -0.33885  -0.33608  -0.33404  -0.33238  -0.32911
 Alpha  occ. eigenvalues --   -0.32771  -0.32570  -0.32439  -0.32003  -0.30876
 Alpha  occ. eigenvalues --   -0.30260  -0.28471  -0.25743  -0.25570
 Alpha virt. eigenvalues --    0.02419   0.05296   0.07621   0.08074   0.08683
 Alpha virt. eigenvalues --    0.09201   0.09511   0.11101   0.11486   0.12038
 Alpha virt. eigenvalues --    0.12773   0.13996   0.14616   0.14644   0.15770

 Mulliken charges:
               1
     1  N   -0.311063
     2  C    0.180737
     3  C    0.039074
     4  N   -0.256862
     5  C    0.131471
     6  H    0.025855
     7  N   -0.291437
     8  C    0.130358
     9  H    0.010985
    10  N   -0.291116
    11  C    0.235128
    12  C    0.118345
    13  N   -0.048252
    14  H    0.110528
    15  H    0.091693
    16  H    0.025879
    17  H    0.034171
    18  H    0.024343
    19  N   -0.311698
    20  C    0.250296
    21  C    0.180790
    22  N   -0.123903
    23  H    0.113386
    24  H    0.117690
    25  N   -0.307929
    26  C    0.247100
    27  N   -0.138486
    28  H    0.115165
    29  C    0.172097
    30  O   -0.322387
    31  C   -0.001491
    32  N   -0.224110
    33  C    0.131536
    34  H    0.028761
    35  H    0.031567
    36  H    0.028390
    37  H    0.024460
    38  H    0.061521
    39  H    0.060409
    40  H    0.072889
    41  H    0.031258
    42  C   -0.111436
    43  O   -0.281132
    44  C    0.136162
    45  H    0.138379
    46  N   -0.116368
    47  O   -0.350939
    48  C    0.357645
    49  H    0.050528
    50  C    0.187586
    51  C    0.041631
    52  N   -0.288006
    53  H    0.031832
    54  H    0.042685
    55  H    0.020982
    56  H    0.131016
    57  H    0.112054
    58  N   -0.039835
    59  C    0.094168
    60  C    0.243008
    61  N   -0.270608
    62  H    0.039284
    63  C    0.163034
    64  N   -0.299498
    65  H    0.028861
    66  C    0.130496
    67  N   -0.268158
    68  C    0.011949
    69  C    0.180047
    70  N   -0.312510
 Sum of Mulliken charges =  -0.00000

 Dipole moment (field-independent basis, Debye):
    X=              8.0874    Y=              6.1844    Z=              1.5908  Tot=             10.3045
 Quadrupole moment (field-independent basis, Debye-Ang):
   XX=           -145.2147   YY=           -221.8136   ZZ=           -250.3757
   XY=              3.7686   XZ=             11.3704   YZ=             -2.8484

 Normal termination of Gaussian 16 at Tue Jan 23 06:51:07 2018.
