 Gaussian 16, Revision A.03,
 Gaussian 16:  EM64L-G16RevA.03 25-Dec-2016

 ---------------------------------------
 #p wb97xd/cc-pvdz sp scf=(maxcycles=20)
 ---------------------------------------

 ------------------
 Base pair stacking
 ------------------
 Symbolic Z-matrix:
 Charge =  0 Multiplicity = 1

                         Standard orientation:
 ---------------------------------------------------------------------
 Center     Atomic      Atomic             Coordinates (Angstroms)
 Number     Number       Type             X           Y           Z
 ---------------------------------------------------------------------
      1          7           0       -6.106829   -1.550872    0.834569
      2          6           0       -7.483361   -1.018784    0.827513
      3          6           0       -3.919886   -1.734067    0.979528
      4          7           0       -4.396841   -3.002787    0.683564
      5          6           0       -5.695308   -2.841635    0.608075
      6          1           0       -6.407121   -3.637787    0.388031
      7          7           0       -2.492118    0.079514    1.464671
      8          6           0       -3.595040    0.832839    1.525070
      9          1           0       -3.427702    1.884970    1.751527
     10          7           0       -4.867657    0.483277    1.348572
     11          6           0       -4.962193   -0.828610    1.075707
     12          6           0       -2.620689   -1.236567    1.188124
     13          7           0       -1.520906   -1.990202    1.127397
     14          1           0       -1.568806   -2.969092    0.925679
     15          1           0       -0.612105   -1.602242    1.281389
     16          1           0       -8.027496   -1.488981    1.522510
     17          1           0       -7.464009   -0.039513    1.026943
     18          1           0       -7.895255   -1.166021   -0.071740
     19          7           0       -3.505547    2.383043   -1.496809
     20          6           0       -2.151000    2.187918   -1.373594
     21          6           0       -4.210029    3.657860   -1.253421
     22          7           0        1.011595    3.423123   -0.642843
     23          1           0        1.949332    3.078196   -0.612528
     24          1           0        0.874475    4.385868   -0.408198
     25          7           0       -1.243327    3.120490   -1.012379
     26          6           0       -0.016484    2.631019   -0.982738
     27          7           0        0.299428    1.328229   -1.283483
     28          1           0        1.265017    1.041556   -1.234327
     29          6           0       -0.618182    0.351534   -1.657540
     30          8           0       -0.228634   -0.795741   -1.908048
     31          6           0       -1.940510    0.862424   -1.693854
     32          7           0       -3.138802    0.237969   -2.011732
     33          6           0       -4.037015    1.176288   -1.881453
     34          1           0       -5.105311    1.041576   -2.054259
     35          1           0       -4.879481    3.536178   -0.521404
     36          1           0       -3.547796    4.356246   -0.985165
     37          1           0       -4.677839    3.946714   -2.088001
     38          1           0        6.146531    0.085841   -0.180664
     39          1           0        6.339882    0.252644   -1.924063
     40          1           0        5.101755    1.184829   -1.081783
     41          1           0        4.517140   -4.192020   -1.661061
     42          6           0        4.180164   -3.157180   -1.599424
     43          8           0        1.889285   -3.691815   -1.904642
     44          6           0        2.784735   -2.866482   -1.726365
     45          1           0        1.489552   -1.281942   -1.718408
     46          7           0        2.466097   -1.526670   -1.633525
     47          8           0        2.955685    0.674989   -1.368581
     48          6           0        3.333514   -0.481377   -1.437313
     49          1           0        6.121746   -2.327006   -1.304664
     50          6           0        5.050490   -2.159053   -1.407401
     51          6           0        5.626016    0.241309   -1.113914
     52          7           0        4.661815   -0.842072   -1.324505
     53          1           0        4.396859    3.686330    2.952998
     54          1           0        3.198619    3.750461    1.847468
     55          1           0        4.756100    3.707784    1.361176
     56          1           0        1.947542   -3.159483    1.469345
     57          1           0        3.577919   -2.822384    1.841283
     58          7           0        2.660134   -2.478701    1.639350
     59          6           0        2.399171   -1.170490    1.598799
     60          6           0        2.942492    1.140925    1.753401
     61          7           0        1.700606    1.573641    1.479693
     62          1           0       -0.151224    0.806634    1.051882
     63          6           0        0.880650    0.543624    1.280641
     64          7           0        1.140100   -0.767344    1.320806
     65          1           0        6.088882    1.355099    2.465110
     66          6           0        5.078635    1.016847    2.232845
     67          7           0        4.717582   -0.239155    2.134011
     68          6           0        3.365418   -0.174644    1.830334
     69          6           0        4.105562    3.380429    2.046599
     70          7           0        4.054555    1.905847    2.014553
 ---------------------------------------------------------------------

 SCF Done:  E(RwB97XD) =  -2048.74645410     A.U. after   15 cycles

 The electronic state is 1-A.
 Alpha  occ. eigenvalues --  -19.25786 -19.21952 -19.20473 -14.52315 -14.52313
 Alpha  occ. eigenvalues --  -14.48824 -14.48486 -14.47862 -14.47736 -14.46650
 Alpha  occ. eigenvalues --  -14.46159 -14.45330 -14.43940 -14.43807 -14.42418
 Alpha  occ. eigenvalues --  -14.41814 -14.41427 -14.41104 -14.40611 -14.40344
 Alpha  occ. eigenvalues --  -10.45384 -10.40879 -10.40063 -10.39633 -10.38013
 Alpha  occ. eigenvalues --  -10.37839 -10.37709 -10.36929 -10.35540 -10.35444
 Alpha  occ. eigenvalues --  -10.34945 -10.34103 -10.34095 -10.34059 -10.33406
 Alpha  occ. eigenvalues --  -10.33232 -10.33094 -10.32328 -10.31115 -10.31024
 Alpha  occ. eigenvalues --  -10.30575 -10.28562 -10.27829  -1.19367  -1.15002
 Alpha  occ. eigenvalues --   -1.13022  -1.12966  -1.11385  -1.10358  -1.09201
 Alpha  occ. eigenvalues --   -1.08960  -1.08302  -1.05122  -1.04505  -1.02385
 Alpha  occ. eigenvalues --   -1.00834  -1.00574  -0.99405  -0.98347  -0.97050
 Alpha  occ. eigenvalues --   -0.96486  -0.96328  -0.92800  -0.90945  -0.87457
 Alpha  occ. eigenvalues --   -0.85881  -0.84019  -0.83824  -0.83462  -0.82411
 Alpha  occ. eigenvalues --   -0.82217  -0.78757  -0.76802  -0.74626  -0.74344
 Alpha  occ. eigenvalues --   -0.73410  -0.73234  -0.73001  -0.71169  -0.70205
 Alpha  occ. eigenvalues --   -0.67107  -0.66587  -0.66423  -0.66386  -0.64316
 Alpha  occ. eigenvalues --   -0.64071  -0.63563  -0.62835  -0.62560  -0.61448
 Alpha  occ. eigenvalues --   -0.60540  -0.60426  -0.60258  -0.59395  -0.59310
 Alpha  occ. eigenvalues --   -0.59022  -0.58047  -0.56804  -0.56574  -0.56292
 Alpha  occ. eigenvalues --   -0.55867  -0.55597  -0.55238  -0.54567  -0.54217
 Alpha  occ. eigenvalues --   -0.53940  -0.53449  -0.53243  -0.53000  -0.52725
 Alpha  occ. eigenvalues --   -0.52486  -0.52285  -0.51883  -0.50878  -0.50323
 Alpha  occ. eigenvalues --   -0.49968  -0.49605  -0.49329  -0.48933  -0.48682
 Alpha  occ. eigenvalues --   -0.48631  -0.48390  -0.48089  -0.47434  -0.47229
 Alpha  occ. eigenvalues --   -0.47030  -0.45549  -0.44921  -0.44502  -0.43771
 Alpha  occ. eigenvalues --   -0.41230  -0.40653  -0.39368  -0.37558  -0.37536
 Alpha  occ. eigenvalues --   -0.37288  -0.37081  -0.36854  -0.35936  -0.34557
 Alpha  occ. eigenvalues --   -0.34149  -0.33729  -0.33546  -0.33124  -0.33019
 Alpha  occ. eigenvalues --   -0.32504  -0.32267  -0.31917  -0.31684  -0.31013
 Alpha  occ. eigenvalues --   -0.30556  -0.29592  -0.25882  -0.24967
 Alpha virt. eigenvalues --    0.03108   0.04267   0.07210   0.07829   0.08715
 Alpha virt. eigenvalues --    0.09437   0.09962   0.10606   0.10960   0.11488
 Alpha virt. eigenvalues --    0.12889   0.14191   0.14255   0.14758   0.15032

 Mulliken charges:
               1
     1  N   -0.313173
     2  C    0.180547
     3  C    0.055672
     4  N   -0.260040
     5  C    0.135177
     6  H    0.026619
     7  N   -0.286508
     8  C    0.135144
     9  H    0.010432
    10  N   -0.290580
    11  C    0.242704
    12  C    0.111962
    13  N   -0.053452
    14  H    0.109761
    15  H    0.086474
    16  H    0.025914
    17  H    0.031466
    18  H    0.026006
    19  N   -0.302160
    20  C    0.243973
    21  C    0.179436
    22  N   -0.093331
    23  H    0.111609
    24  H    0.112433
    25  N   -0.303748
    26  C    0.217374
    27  N   -0.142039
    28  H    0.124615
    29  C    0.166183
    30  O   -0.322530
    31  C    0.004717
    32  N   -0.225085
    33  C    0.129892
    34  H    0.020054
    35  H    0.030780
    36  H    0.026919
    37  H    0.022889
    38  H    0.061895
    39  H    0.058926
    40  H    0.068068
    41  H    0.028685
    42  C   -0.114395
    43  O   -0.267216
    44  C    0.169643
    45  H    0.133257
    46  N   -0.123123
    47  O   -0.341463
    48  C    0.341211
    49  H    0.047665
    50  C    0.173177
    51  C    0.039246
    52  N   -0.283677
    53  H    0.036140
    54  H    0.035123
    55  H    0.026084
    56  H    0.126276
    57  H    0.116627
    58  N   -0.061061
    59  C    0.092764
    60  C    0.252964
    61  N   -0.279869
    62  H    0.039456
    63  C    0.161692
    64  N   -0.299910
    65  H    0.034824
    66  C    0.127442
    67  N   -0.261167
    68  C    0.014339
    69  C    0.178262
    70  N   -0.307994
 Sum of Mulliken charges =  -0.00000

 Dipole moment (field-independent basis, Debye):
    X=              7.4684    Y=              6.1661    Z=              2.8527  Tot=             10.0964
 Quadrupole moment (field-independent basis, Debye-Ang):
   XX=           -149.3169   YY=           -222.4462   ZZ=           -255.5324
   XY=              4.2340   XZ=              3.8078   YZ=             -9.1993

 Normal termination of Gaussian 16 at Tue Jan 23 09:10:45 2018.
