 Gaussian 16, Revision A.03,
 Gaussian 16:  EM64L-G16RevA.03 25-Dec-2016

 ---------------------------------------
 #p wb97xd/cc-pvdz sp scf=(maxcycles=20)
 ---------------------------------------

 ------------------
 Base pair stacking
 ------------------
 Symbolic Z-matrix:
 Charge =  0 Multiplicity = 1

                         Standard orientation:
 ---------------------------------------------------------------------
 Center     Atomic      Atomic             Coordinates (Angstroms)
 Number     Number       Type             X           Y           Z
 ---------------------------------------------------------------------
      1          7           0        4.280502   -1.686880   -1.878434
      2          6           0        5.664335   -1.211314   -2.070415
      3          6           0        2.095220   -1.770789   -1.644315
      4          7           0        2.545614   -3.079968   -1.555296
      5          6           0        3.844139   -2.977021   -1.699907
      6          1           0        4.538273   -3.817784   -1.684499
      7          7           0        0.707249    0.135398   -1.698404
      8          6           0        1.822553    0.848141   -1.887217
      9          1           0        1.676685    1.923190   -1.983431
     10          7           0        3.085072    0.434240   -1.974627
     11          6           0        3.153124   -0.900899   -1.843475
     12          6           0        0.809148   -1.205592   -1.570139
     13          7           0       -0.303036   -1.918793   -1.381597
     14          1           0       -0.274849   -2.913983   -1.281511
     15          1           0       -1.201853   -1.482900   -1.333980
     16          1           0        6.051491   -1.630749   -2.891609
     17          1           0        5.664626   -0.217069   -2.173337
     18          1           0        6.218514   -1.462734   -1.276899
     19          7           0        5.354527    2.060558    0.707160
     20          6           0        3.991960    1.930238    0.827483
     21          6           0        6.065031    3.305644    0.352687
     22          7           0        0.813294    3.322473    0.687795
     23          1           0       -0.130318    3.021694    0.823292
     24          1           0        0.952716    4.281845    0.441020
     25          7           0        3.080583    2.909842    0.643583
     26          6           0        1.845986    2.478003    0.830370
     27          7           0        1.526232    1.186070    1.171209
     28          1           0        0.554693    0.945085    1.293702
     29          6           0        2.447541    0.161719    1.365557
     30          8           0        2.053975   -0.970618    1.671620
     31          6           0        3.778201    0.610429    1.168391
     32          7           0        4.982332   -0.074055    1.260233
     33          6           0        5.887135    0.824038    0.979210
     34          1           0        6.961307    0.637244    0.956108
     35          1           0        6.585955    3.166122   -0.488722
     36          1           0        5.400117    4.038401    0.214041
     37          1           0        6.688092    3.557944    1.092247
     38          1           0       -4.477065    0.233924    1.125367
     39          1           0       -4.346955    0.378819    2.876569
     40          1           0       -3.235857    1.267618    1.834054
     41          1           0       -2.818337   -4.139796    2.250439
     42          6           0       -2.448076   -3.120658    2.138608
     43          8           0       -0.168213   -3.765526    2.022579
     44          6           0       -1.040039   -2.896823    2.015468
     45          1           0        0.308063   -1.373741    1.789294
     46          7           0       -0.678601   -1.571692    1.878971
     47          8           0       -1.100391    0.654497    1.726115
     48          6           0       -1.515419   -0.484263    1.851176
     49          1           0       -4.368494   -2.196864    2.204857
     50          6           0       -3.289294   -2.080273    2.115020
     51          6           0       -3.791017    0.348833    1.951311
     52          7           0       -2.858353   -0.781349    1.975534
     53          1           0       -6.125396    4.133628   -1.591506
     54          1           0       -4.750417    4.041747   -0.717956
     55          1           0       -6.198634    4.010786    0.034216
     56          1           0       -3.837129   -2.914489   -1.199838
     57          1           0       -5.486234   -2.479872   -1.240758
     58          7           0       -4.529660   -2.193377   -1.176559
     59          6           0       -4.193583   -0.906617   -1.064887
     60          6           0       -4.626699    1.427862   -0.908822
     61          7           0       -3.334060    1.783339   -0.824450
     62          1           0       -1.481290    0.907215   -0.807618
     63          6           0       -2.550234    0.707961   -0.870267
     64          7           0       -2.884920   -0.581629   -0.982088
     65          1           0       -7.832335    1.832114   -1.021468
     66          6           0       -6.817345    1.433981   -1.006096
     67          7           0       -6.514691    0.161452   -1.088194
     68          6           0       -5.128776    0.143600   -1.027704
     69          6           0       -5.697288    3.728352   -0.783751
     70          7           0       -5.723220    2.257010   -0.895449
 ---------------------------------------------------------------------

 SCF Done:  E(RwB97XD) =  -2048.74521029     A.U. after   15 cycles

 The electronic state is 1-A.
 Alpha  occ. eigenvalues --  -19.25115 -19.21173 -19.20539 -14.52803 -14.51478
 Alpha  occ. eigenvalues --  -14.49061 -14.49052 -14.48326 -14.47036 -14.46653
 Alpha  occ. eigenvalues --  -14.46608 -14.45706 -14.45167 -14.44963 -14.43154
 Alpha  occ. eigenvalues --  -14.42002 -14.41368 -14.41195 -14.41005 -14.40738
 Alpha  occ. eigenvalues --  -10.44629 -10.41157 -10.40733 -10.39303 -10.38272
 Alpha  occ. eigenvalues --  -10.38161 -10.37705 -10.37109 -10.36433 -10.35892
 Alpha  occ. eigenvalues --  -10.34429 -10.34102 -10.33742 -10.33741 -10.33695
 Alpha  occ. eigenvalues --  -10.33269 -10.33259 -10.33229 -10.31176 -10.30418
 Alpha  occ. eigenvalues --  -10.30235 -10.28566 -10.28209  -1.18661  -1.15621
 Alpha  occ. eigenvalues --   -1.13172  -1.12208  -1.11013  -1.10745  -1.10105
 Alpha  occ. eigenvalues --   -1.08555  -1.08389  -1.05555  -1.05402  -1.01643
 Alpha  occ. eigenvalues --   -1.01349  -1.00894  -0.99666  -0.98565  -0.97619
 Alpha  occ. eigenvalues --   -0.96805  -0.96670  -0.93109  -0.90288  -0.88198
 Alpha  occ. eigenvalues --   -0.86260  -0.84288  -0.83746  -0.82771  -0.82575
 Alpha  occ. eigenvalues --   -0.81983  -0.78106  -0.77594  -0.75445  -0.74699
 Alpha  occ. eigenvalues --   -0.73586  -0.73040  -0.72568  -0.71220  -0.70968
 Alpha  occ. eigenvalues --   -0.67405  -0.67367  -0.66429  -0.65802  -0.64772
 Alpha  occ. eigenvalues --   -0.64320  -0.63340  -0.62910  -0.62542  -0.61793
 Alpha  occ. eigenvalues --   -0.61120  -0.60802  -0.60548  -0.59925  -0.58981
 Alpha  occ. eigenvalues --   -0.58813  -0.58292  -0.57054  -0.56663  -0.55951
 Alpha  occ. eigenvalues --   -0.55714  -0.55651  -0.55538  -0.55018  -0.54136
 Alpha  occ. eigenvalues --   -0.53965  -0.53776  -0.53269  -0.53148  -0.52924
 Alpha  occ. eigenvalues --   -0.51824  -0.51517  -0.51426  -0.50502  -0.50434
 Alpha  occ. eigenvalues --   -0.50154  -0.50035  -0.49656  -0.49034  -0.48960
 Alpha  occ. eigenvalues --   -0.48750  -0.48005  -0.47950  -0.47504  -0.47018
 Alpha  occ. eigenvalues --   -0.46903  -0.45636  -0.45441  -0.44917  -0.43047
 Alpha  occ. eigenvalues --   -0.41481  -0.41141  -0.38914  -0.38280  -0.38128
 Alpha  occ. eigenvalues --   -0.37553  -0.37272  -0.37008  -0.35476  -0.35180
 Alpha  occ. eigenvalues --   -0.35013  -0.34165  -0.33598  -0.33484  -0.32964
 Alpha  occ. eigenvalues --   -0.32566  -0.32332  -0.31864  -0.30958  -0.30751
 Alpha  occ. eigenvalues --   -0.30625  -0.30556  -0.26203  -0.25412
 Alpha virt. eigenvalues --    0.03259   0.04028   0.06254   0.07767   0.08904
 Alpha virt. eigenvalues --    0.09149   0.09761   0.10132   0.10722   0.11895
 Alpha virt. eigenvalues --    0.13526   0.14111   0.14382   0.14584   0.14681

 Mulliken charges:
               1
     1  N   -0.306584
     2  C    0.181828
     3  C    0.067136
     4  N   -0.260242
     5  C    0.149757
     6  H    0.029013
     7  N   -0.288528
     8  C    0.121959
     9  H    0.013363
    10  N   -0.271575
    11  C    0.244509
    12  C    0.077309
    13  N   -0.067475
    14  H    0.113228
    15  H    0.081940
    16  H    0.021372
    17  H    0.028752
    18  H    0.031798
    19  N   -0.309074
    20  C    0.267970
    21  C    0.182829
    22  N   -0.114123
    23  H    0.123703
    24  H    0.117462
    25  N   -0.300986
    26  C    0.208230
    27  N   -0.119946
    28  H    0.118381
    29  C    0.167840
    30  O   -0.318591
    31  C   -0.004395
    32  N   -0.231144
    33  C    0.113823
    34  H    0.021782
    35  H    0.025126
    36  H    0.030765
    37  H    0.024809
    38  H    0.066639
    39  H    0.053714
    40  H    0.077519
    41  H    0.024593
    42  C   -0.117534
    43  O   -0.264000
    44  C    0.173227
    45  H    0.134741
    46  N   -0.126296
    47  O   -0.348710
    48  C    0.347835
    49  H    0.042193
    50  C    0.167355
    51  C    0.041666
    52  N   -0.276363
    53  H    0.034716
    54  H    0.040230
    55  H    0.031081
    56  H    0.119139
    57  H    0.120611
    58  N   -0.064329
    59  C    0.077706
    60  C    0.217069
    61  N   -0.258520
    62  H    0.024365
    63  C    0.166134
    64  N   -0.304240
    65  H    0.040911
    66  C    0.139137
    67  N   -0.255732
    68  C    0.029640
    69  C    0.180743
    70  N   -0.307256
 Sum of Mulliken charges =  -0.00000

 Dipole moment (field-independent basis, Debye):
    X=             -7.6937    Y=              7.0704    Z=             -1.6192  Tot=             10.5738
 Quadrupole moment (field-independent basis, Debye-Ang):
   XX=           -161.1845   YY=           -222.7942   ZZ=           -252.5585
   XY=              5.4423   XZ=            -17.5263   YZ=             12.0551

 Normal termination of Gaussian 16 at Mon Jan 22 23:50:47 2018.
