 Gaussian 16, Revision A.03,
 Gaussian 16:  EM64L-G16RevA.03 25-Dec-2016

 ---------------------------------------
 #p wb97xd/cc-pvdz sp scf=(maxcycles=20)
 ---------------------------------------

 ------------------
 Base pair stacking
 ------------------
 Symbolic Z-matrix:
 Charge =  0 Multiplicity = 1

                         Standard orientation:
 ---------------------------------------------------------------------
 Center     Atomic      Atomic             Coordinates (Angstroms)
 Number     Number       Type             X           Y           Z
 ---------------------------------------------------------------------
      1          7           0       -4.893037   -2.070742    1.505011
      2          6           0       -6.262663   -1.692729    1.904064
      3          6           0       -2.713548   -2.087180    1.210305
      4          7           0       -3.195842   -3.238056    0.604011
      5          6           0       -4.489605   -3.182090    0.805827
      6          1           0       -5.203527   -3.931685    0.463241
      7          7           0       -1.280371   -0.392518    2.008470
      8          6           0       -2.376006    0.198833    2.495767
      9          1           0       -2.203564    1.138093    3.019513
     10          7           0       -3.646720   -0.194026    2.433514
     11          6           0       -3.747955   -1.357601    1.769985
     12          6           0       -1.415549   -1.562058    1.345915
     13          7           0       -0.323036   -2.153873    0.858758
     14          1           0       -0.375997   -3.020607    0.361567
     15          1           0        0.585140   -1.751299    0.974096
     16          1           0       -6.649001   -2.404842    2.490416
     17          1           0       -6.238161   -0.827556    2.404064
     18          1           0       -6.832805   -1.588754    1.089126
     19          7           0       -4.757179    2.435045   -0.837542
     20          6           0       -3.394277    2.310142   -0.959771
     21          6           0       -5.471200    3.673746   -0.468089
     22          7           0       -0.219637    3.709884   -0.804366
     23          1           0        0.724808    3.413493   -0.943684
     24          1           0       -0.361772    4.665838   -0.546156
     25          7           0       -2.485699    3.290146   -0.764465
     26          6           0       -1.249905    2.864154   -0.956702
     27          7           0       -0.926484    1.577309   -1.312976
     28          1           0        0.045713    1.340637   -1.438586
     29          6           0       -1.844863    0.552664   -1.519260
     30          8           0       -1.448088   -0.574793   -1.838872
     31          6           0       -3.176766    0.995117   -1.316407
     32          7           0       -4.378926    0.308264   -1.416076
     33          6           0       -5.286261    1.200309   -1.124147
     34          1           0       -6.359880    1.010110   -1.102983
     35          1           0       -5.991471    3.522707    0.371735
     36          1           0       -4.808379    4.406743   -0.320911
     37          1           0       -6.095215    3.933014   -1.204436
     38          1           0        5.079574    0.642203   -1.280049
     39          1           0        4.948518    0.807545   -3.029367
     40          1           0        3.835144    1.680634   -1.976058
     41          1           0        3.433257   -3.722638   -2.456650
     42          6           0        3.060059   -2.705987   -2.332603
     43          8           0        0.782120   -3.358847   -2.223654
     44          6           0        1.651415   -2.487740   -2.206434
     45          1           0        0.298948   -0.971397   -1.961799
     46          7           0        1.286152   -1.165389   -2.054091
     47          8           0        1.701512    1.060043   -1.874864
     48          6           0        2.119819   -0.075936   -2.013569
     49          1           0        4.977763   -1.775879   -2.388360
     50          6           0        3.898259   -1.663514   -2.296857
     51          6           0        4.392944    0.764921   -2.104396
     52          7           0        3.463577   -0.367594   -2.141811
     53          1           0        5.642828    3.188264    3.397608
     54          1           0        4.254912    3.483902    2.592368
     55          1           0        5.692189    3.739545    1.862326
     56          1           0        3.183931   -3.045683    0.210560
     57          1           0        4.843219   -2.692682    0.390099
     58          7           0        3.892935   -2.389440    0.469011
     59          6           0        3.585924   -1.164163    0.899849
     60          6           0        4.072000    1.022760    1.701611
     61          7           0        2.787119    1.402671    1.797478
     62          1           0        0.914120    0.640261    1.463957
     63          6           0        1.978781    0.415429    1.416877
     64          7           0        2.284339   -0.812462    0.985039
     65          1           0        7.287464    1.293391    1.900869
     66          6           0        6.263240    0.952915    1.745972
     67          7           0        5.931710   -0.236889    1.307640
     68          6           0        4.545091   -0.205877    1.274828
     69          6           0        5.194900    3.155620    2.504126
     70          7           0        5.187512    1.766958    2.004577
 ---------------------------------------------------------------------

 SCF Done:  E(RwB97XD) =  -2048.74341654     A.U. after   15 cycles

 The electronic state is 1-A.
 Alpha  occ. eigenvalues --  -19.25807 -19.22123 -19.20696 -14.52471 -14.52427
 Alpha  occ. eigenvalues --  -14.49042 -14.48262 -14.47931 -14.47688 -14.47016
 Alpha  occ. eigenvalues --  -14.46832 -14.45473 -14.44431 -14.44302 -14.42183
 Alpha  occ. eigenvalues --  -14.41940 -14.41236 -14.40484 -14.40473 -14.39970
 Alpha  occ. eigenvalues --  -10.45414 -10.41410 -10.40189 -10.40059 -10.38354
 Alpha  occ. eigenvalues --  -10.38004 -10.37921 -10.37227 -10.35846 -10.35020
 Alpha  occ. eigenvalues --  -10.34937 -10.34577 -10.33802 -10.33660 -10.33259
 Alpha  occ. eigenvalues --  -10.32730 -10.32705 -10.32668 -10.31138 -10.30980
 Alpha  occ. eigenvalues --  -10.30350 -10.28336 -10.27879  -1.19359  -1.15197
 Alpha  occ. eigenvalues --   -1.13344  -1.13111  -1.10801  -1.10535  -1.09582
 Alpha  occ. eigenvalues --   -1.09174  -1.08707  -1.04940  -1.04599  -1.02398
 Alpha  occ. eigenvalues --   -1.01000  -0.99992  -0.99900  -0.98722  -0.96971
 Alpha  occ. eigenvalues --   -0.96836  -0.96191  -0.92292  -0.91109  -0.87638
 Alpha  occ. eigenvalues --   -0.85868  -0.84349  -0.83510  -0.83269  -0.82719
 Alpha  occ. eigenvalues --   -0.81685  -0.78921  -0.77105  -0.74879  -0.74832
 Alpha  occ. eigenvalues --   -0.73804  -0.73307  -0.72356  -0.70563  -0.70426
 Alpha  occ. eigenvalues --   -0.67570  -0.66920  -0.66505  -0.65752  -0.64586
 Alpha  occ. eigenvalues --   -0.64307  -0.63882  -0.62805  -0.62186  -0.61959
 Alpha  occ. eigenvalues --   -0.60685  -0.60360  -0.60166  -0.59524  -0.59286
 Alpha  occ. eigenvalues --   -0.59202  -0.58534  -0.56839  -0.56088  -0.56020
 Alpha  occ. eigenvalues --   -0.55640  -0.55294  -0.54988  -0.54475  -0.54142
 Alpha  occ. eigenvalues --   -0.53789  -0.53700  -0.53592  -0.53247  -0.53140
 Alpha  occ. eigenvalues --   -0.52807  -0.52346  -0.51183  -0.50366  -0.50179
 Alpha  occ. eigenvalues --   -0.49963  -0.49606  -0.49482  -0.49292  -0.49004
 Alpha  occ. eigenvalues --   -0.48634  -0.48497  -0.48323  -0.47932  -0.47411
 Alpha  occ. eigenvalues --   -0.46403  -0.45839  -0.45579  -0.44349  -0.43266
 Alpha  occ. eigenvalues --   -0.40720  -0.40646  -0.39408  -0.37745  -0.37614
 Alpha  occ. eigenvalues --   -0.37495  -0.37462  -0.36538  -0.35902  -0.34817
 Alpha  occ. eigenvalues --   -0.34376  -0.34121  -0.33352  -0.32940  -0.32882
 Alpha  occ. eigenvalues --   -0.32714  -0.32713  -0.32444  -0.32034  -0.30321
 Alpha  occ. eigenvalues --   -0.29987  -0.29523  -0.25715  -0.25266
 Alpha virt. eigenvalues --    0.02677   0.04114   0.06673   0.08463   0.08902
 Alpha virt. eigenvalues --    0.09046   0.09589   0.10469   0.11492   0.11614
 Alpha virt. eigenvalues --    0.13295   0.14201   0.14489   0.14996   0.15019

 Mulliken charges:
               1
     1  N   -0.310588
     2  C    0.181536
     3  C    0.054740
     4  N   -0.255583
     5  C    0.144457
     6  H    0.025396
     7  N   -0.298763
     8  C    0.131911
     9  H    0.009277
    10  N   -0.288106
    11  C    0.252212
    12  C    0.094213
    13  N   -0.060734
    14  H    0.116335
    15  H    0.084520
    16  H    0.022823
    17  H    0.030080
    18  H    0.025396
    19  N   -0.310375
    20  C    0.257314
    21  C    0.181103
    22  N   -0.123822
    23  H    0.117960
    24  H    0.118434
    25  N   -0.312405
    26  C    0.250199
    27  N   -0.148896
    28  H    0.119555
    29  C    0.196369
    30  O   -0.320995
    31  C   -0.015867
    32  N   -0.227556
    33  C    0.125295
    34  H    0.021320
    35  H    0.028606
    36  H    0.029994
    37  H    0.024655
    38  H    0.065964
    39  H    0.059410
    40  H    0.074431
    41  H    0.024698
    42  C   -0.131639
    43  O   -0.268052
    44  C    0.169184
    45  H    0.131334
    46  N   -0.119637
    47  O   -0.347143
    48  C    0.346194
    49  H    0.043760
    50  C    0.174712
    51  C    0.037005
    52  N   -0.275697
    53  H    0.034089
    54  H    0.041941
    55  H    0.028422
    56  H    0.124948
    57  H    0.113301
    58  N   -0.053293
    59  C    0.095584
    60  C    0.249058
    61  N   -0.272944
    62  H    0.034492
    63  C    0.173827
    64  N   -0.316000
    65  H    0.038297
    66  C    0.135467
    67  N   -0.263701
    68  C    0.010372
    69  C    0.180803
    70  N   -0.309194
 Sum of Mulliken charges =  -0.00000

 Dipole moment (field-independent basis, Debye):
    X=              7.7493    Y=              7.1946    Z=              0.9895  Tot=             10.6204
 Quadrupole moment (field-independent basis, Debye-Ang):
   XX=           -156.7165   YY=           -220.2330   ZZ=           -251.9572
   XY=              0.1440   XZ=            -10.1620   YZ=             -3.0980

 Normal termination of Gaussian 16 at Tue Jan 23 02:56:36 2018.
