 Gaussian 16, Revision A.03,
 Gaussian 16:  EM64L-G16RevA.03 25-Dec-2016

 ---------------------------------------
 #p wb97xd/cc-pvdz sp scf=(maxcycles=20)
 ---------------------------------------

 ------------------
 Base pair stacking
 ------------------
 Symbolic Z-matrix:
 Charge =  0 Multiplicity = 1

                         Standard orientation:
 ---------------------------------------------------------------------
 Center     Atomic      Atomic             Coordinates (Angstroms)
 Number     Number       Type             X           Y           Z
 ---------------------------------------------------------------------
      1          7           0       -6.335791   -1.441208    0.674501
      2          6           0       -7.696106   -0.900394    0.487288
      3          6           0       -4.164498   -1.624998    0.972893
      4          7           0       -4.658019   -2.919872    0.905914
      5          6           0       -5.946376   -2.757322    0.728822
      6          1           0       -6.666142   -3.570471    0.630460
      7          7           0       -2.717466    0.227020    1.170519
      8          6           0       -3.802404    0.993912    1.020992
      9          1           0       -3.619996    2.067415    1.045373
     10          7           0       -5.072865    0.635530    0.846688
     11          6           0       -5.186875   -0.702829    0.831868
     12          6           0       -2.865364   -1.115677    1.151045
     13          7           0       -1.783539   -1.882887    1.300146
     14          1           0       -1.846088   -2.881509    1.292177
     15          1           0       -0.874165   -1.485847    1.424813
     16          1           0       -8.286871   -1.215930    1.229989
     17          1           0       -7.661933    0.098579    0.491351
     18          1           0       -8.065167   -1.216028   -0.386879
     19          7           0       -3.267259    2.244446   -1.521839
     20          6           0       -1.920043    2.049534   -1.334480
     21          6           0       -3.992449    3.503537   -1.258259
     22          7           0        1.190055    3.262752   -0.376821
     23          1           0        2.127093    2.920757   -0.311674
     24          1           0        1.033957    4.212916   -0.105637
     25          7           0       -1.039526    2.968108   -0.881764
     26          6           0        0.187206    2.482991   -0.808301
     27          7           0        0.527685    1.196972   -1.151455
     28          1           0        1.491133    0.912416   -1.063303
     29          6           0       -0.361768    0.234883   -1.619554
     30          8           0        0.048477   -0.897806   -1.901413
     31          6           0       -1.683628    0.741311   -1.703871
     32          7           0       -2.858757    0.127263   -2.114857
     33          6           0       -3.769011    1.054682   -1.990203
     34          1           0       -4.825494    0.923637   -2.226759
     35          1           0       -4.699607    3.345047   -0.570067
     36          1           0       -3.350400    4.191462   -0.922427
     37          1           0       -4.416450    3.828975   -2.102725
     38          1           0        6.314971   -0.070647    0.208268
     39          1           0        6.601050    0.178017   -1.512477
     40          1           0        5.312969    1.064688   -0.696367
     41          1           0        4.796832   -4.281756   -1.554807
     42          6           0        4.450042   -3.252347   -1.463704
     43          8           0        2.182646   -3.781880   -1.917182
     44          6           0        3.061571   -2.961967   -1.652579
     45          1           0        1.757179   -1.385029   -1.641540
     46          7           0        2.729340   -1.629302   -1.515224
     47          8           0        3.189016    0.559678   -1.122456
     48          6           0        3.577807   -0.590620   -1.224057
     49          1           0        6.367216   -2.428583   -1.025919
     50          6           0        5.301962   -2.260571   -1.178745
     51          6           0        5.844565    0.125919   -0.743652
     52          7           0        4.900485   -0.950546   -1.056179
     53          1           0        4.176492    3.952839    2.299198
     54          1           0        3.038307    3.815456    1.138268
     55          1           0        4.617005    3.654259    0.756402
     56          1           0        1.631876   -3.013594    2.055577
     57          1           0        3.249216   -2.634223    2.443378
     58          7           0        2.352039   -2.323428    2.127641
     59          6           0        2.127034   -1.045184    1.816756
     60          6           0        2.720674    1.242846    1.544314
     61          7           0        1.505862    1.631613    1.122986
     62          1           0       -0.340715    0.823136    0.752667
     63          6           0        0.671058    0.594994    1.085114
     64          7           0        0.894512   -0.686000    1.396086
     65          1           0        5.831053    1.546041    2.372428
     66          6           0        4.825676    1.183792    2.155760
     67          7           0        4.438142   -0.061444    2.285661
     68          6           0        3.105336   -0.037854    1.901184
     69          6           0        3.924137    3.478441    1.455838
     70          7           0        3.837144    2.027492    1.711116
 ---------------------------------------------------------------------

 SCF Done:  E(RwB97XD) =  -2048.67340191     A.U. after   15 cycles

 The electronic state is 1-A.
 Alpha  occ. eigenvalues --  -19.25829 -19.21842 -19.20486 -14.52353 -14.52246
 Alpha  occ. eigenvalues --  -14.49120 -14.48393 -14.47800 -14.47792 -14.46331
 Alpha  occ. eigenvalues --  -14.45275 -14.45162 -14.43755 -14.42783 -14.42265
 Alpha  occ. eigenvalues --  -14.41871 -14.41763 -14.41403 -14.40559 -14.40540
 Alpha  occ. eigenvalues --  -10.45430 -10.40446 -10.39973 -10.39480 -10.37904
 Alpha  occ. eigenvalues --  -10.37697 -10.37671 -10.36748 -10.35870 -10.35390
 Alpha  occ. eigenvalues --  -10.35086 -10.34625 -10.34416 -10.34026 -10.33746
 Alpha  occ. eigenvalues --  -10.33527 -10.33028 -10.31914 -10.31328 -10.30991
 Alpha  occ. eigenvalues --  -10.30503 -10.28884 -10.27798  -1.19468  -1.14959
 Alpha  occ. eigenvalues --   -1.13211  -1.12889  -1.11705  -1.10403  -1.09262
 Alpha  occ. eigenvalues --   -1.09022  -1.08242  -1.05431  -1.04370  -1.02407
 Alpha  occ. eigenvalues --   -1.00936  -1.00867  -0.99434  -0.98436  -0.97352
 Alpha  occ. eigenvalues --   -0.96486  -0.96147  -0.93117  -0.90939  -0.87507
 Alpha  occ. eigenvalues --   -0.86109  -0.84331  -0.83801  -0.83554  -0.82699
 Alpha  occ. eigenvalues --   -0.82207  -0.78774  -0.76799  -0.74836  -0.74432
 Alpha  occ. eigenvalues --   -0.73375  -0.73309  -0.73261  -0.71537  -0.70316
 Alpha  occ. eigenvalues --   -0.67167  -0.66756  -0.66710  -0.66422  -0.64385
 Alpha  occ. eigenvalues --   -0.64194  -0.63584  -0.63178  -0.62900  -0.61467
 Alpha  occ. eigenvalues --   -0.60857  -0.60708  -0.60377  -0.59511  -0.59345
 Alpha  occ. eigenvalues --   -0.59155  -0.58332  -0.57414  -0.56803  -0.56552
 Alpha  occ. eigenvalues --   -0.56006  -0.55711  -0.55362  -0.55184  -0.54305
 Alpha  occ. eigenvalues --   -0.54149  -0.53431  -0.53202  -0.52807  -0.52665
 Alpha  occ. eigenvalues --   -0.52338  -0.52219  -0.52117  -0.51222  -0.50524
 Alpha  occ. eigenvalues --   -0.49930  -0.49557  -0.49360  -0.48881  -0.48734
 Alpha  occ. eigenvalues --   -0.48561  -0.48248  -0.47991  -0.47472  -0.47255
 Alpha  occ. eigenvalues --   -0.47202  -0.46103  -0.45107  -0.43766  -0.43672
 Alpha  occ. eigenvalues --   -0.41537  -0.41063  -0.39473  -0.37893  -0.37692
 Alpha  occ. eigenvalues --   -0.37493  -0.37084  -0.36541  -0.35940  -0.34513
 Alpha  occ. eigenvalues --   -0.34128  -0.33955  -0.33784  -0.33023  -0.32503
 Alpha  occ. eigenvalues --   -0.32281  -0.31826  -0.31653  -0.31393  -0.30846
 Alpha  occ. eigenvalues --   -0.30302  -0.28792  -0.26167  -0.24532
 Alpha virt. eigenvalues --    0.03196   0.04347   0.07100   0.07618   0.08672
 Alpha virt. eigenvalues --    0.09440   0.10136   0.10587   0.10864   0.11597
 Alpha virt. eigenvalues --    0.13008   0.13860   0.13976   0.14705   0.14900

 Mulliken charges:
               1
     1  N   -0.313242
     2  C    0.180632
     3  C    0.049102
     4  N   -0.261097
     5  C    0.134949
     6  H    0.027517
     7  N   -0.278769
     8  C    0.143115
     9  H    0.004399
    10  N   -0.292855
    11  C    0.242974
    12  C    0.114700
    13  N   -0.055379
    14  H    0.107426
    15  H    0.086502
    16  H    0.026381
    17  H    0.031485
    18  H    0.027284
    19  N   -0.294715
    20  C    0.228356
    21  C    0.176415
    22  N   -0.048355
    23  H    0.105768
    24  H    0.109154
    25  N   -0.290755
    26  C    0.187362
    27  N   -0.134847
    28  H    0.127613
    29  C    0.141181
    30  O   -0.320278
    31  C    0.032126
    32  N   -0.220480
    33  C    0.120247
    34  H    0.020071
    35  H    0.032174
    36  H    0.026669
    37  H    0.023757
    38  H    0.061992
    39  H    0.058673
    40  H    0.066427
    41  H    0.030615
    42  C   -0.113814
    43  O   -0.264400
    44  C    0.178869
    45  H    0.132620
    46  N   -0.130572
    47  O   -0.343223
    48  C    0.352352
    49  H    0.047179
    50  C    0.173900
    51  C    0.044806
    52  N   -0.288329
    53  H    0.039367
    54  H    0.013750
    55  H    0.030020
    56  H    0.121721
    57  H    0.117360
    58  N   -0.066979
    59  C    0.104285
    60  C    0.270203
    61  N   -0.322538
    62  H    0.033989
    63  C    0.193521
    64  N   -0.305362
    65  H    0.032488
    66  C    0.114807
    67  N   -0.255958
    68  C    0.001068
    69  C    0.182092
    70  N   -0.307514
 Sum of Mulliken charges =  -0.00000

 Dipole moment (field-independent basis, Debye):
    X=              7.0373    Y=              5.9439    Z=              3.6716  Tot=              9.9164
 Quadrupole moment (field-independent basis, Debye-Ang):
   XX=           -147.8499   YY=           -224.9871   ZZ=           -256.7262
   XY=              5.7764   XZ=              5.8764   YZ=            -12.4215

 Normal termination of Gaussian 16 at Tue Jan 23 05:52:04 2018.
