 Gaussian 16, Revision A.03,
 Gaussian 16:  EM64L-G16RevA.03 25-Dec-2016

 ---------------------------------------
 #p wb97xd/cc-pvdz sp scf=(maxcycles=20)
 ---------------------------------------

 ------------------
 Base pair stacking
 ------------------
 Symbolic Z-matrix:
 Charge =  0 Multiplicity = 1

                         Standard orientation:
 ---------------------------------------------------------------------
 Center     Atomic      Atomic             Coordinates (Angstroms)
 Number     Number       Type             X           Y           Z
 ---------------------------------------------------------------------
      1          7           0        5.507771   -1.628189   -1.242207
      2          6           0        6.891767   -1.116918   -1.276381
      3          6           0        3.313350   -1.771156   -1.279136
      4          7           0        3.783299   -3.062826   -1.090813
      5          6           0        5.086550   -2.924994   -1.076104
      6          1           0        5.795138   -3.743515   -0.946192
      7          7           0        1.893465    0.089627   -1.569545
      8          6           0        3.004517    0.829829   -1.641965
      9          1           0        2.843631    1.896585   -1.791661
     10          7           0        4.278473    0.451904   -1.557638
     11          6           0        4.364621   -0.876010   -1.374239
     12          6           0        2.013711   -1.243192   -1.384600
     13          7           0        0.905790   -1.983757   -1.312039
     14          1           0        0.947367   -2.974182   -1.175840
     15          1           0       -0.003048   -1.574046   -1.391321
     16          1           0        7.389678   -1.548929   -2.028457
     17          1           0        6.878813   -0.126651   -1.411832
     18          1           0        7.348540   -1.327470   -0.412078
     19          7           0        4.159044    2.258524    1.266204
     20          6           0        2.796042    2.090675    1.220360
     21          6           0        4.875390    3.513336    0.961246
     22          7           0       -0.375548    3.381177    0.639522
     23          1           0       -1.320473    3.056172    0.666583
     24          1           0       -0.231573    4.336470    0.379910
     25          7           0        1.889462    3.036257    0.891666
     26          6           0        0.652975    2.573034    0.937780
     27          7           0        0.327096    1.282836    1.279424
     28          1           0       -0.645464    1.016342    1.288103
     29          6           0        1.243397    0.293170    1.621217
     30          8           0        0.844474   -0.840848    1.913813
     31          6           0        2.576007    0.775848    1.576184
     32          7           0        3.776717    0.131210    1.840098
     33          6           0        4.685672    1.047443    1.643815
     34          1           0        5.758815    0.892648    1.760836
     35          1           0        5.501150    3.364422    0.196362
     36          1           0        4.214062    4.221121    0.716392
     37          1           0        5.393996    3.806510    1.763684
     38          1           0       -5.595995    0.148383    0.518977
     39          1           0       -5.690251    0.349733    2.266891
     40          1           0       -4.481005    1.240028    1.341442
     41          1           0       -3.976943   -4.137296    1.988065
     42          6           0       -3.622501   -3.111239    1.888987
     43          8           0       -1.329911   -3.689966    2.079273
     44          6           0       -2.216509   -2.848668    1.934551
     45          1           0       -0.891212   -1.292941    1.826812
     46          7           0       -1.875778   -1.517901    1.799628
     47          8           0       -2.333476    0.688895    1.520735
     48          6           0       -2.730821   -0.457637    1.631387
     49          1           0       -5.559704   -2.244454    1.684664
     50          6           0       -4.481189   -2.097987    1.725954
     51          6           0       -5.022133    0.308781    1.419538
     52          7           0       -4.070473   -0.791384    1.597593
     53          1           0       -5.001434    3.880511   -2.448108
     54          1           0       -3.744846    3.856616   -1.407669
     55          1           0       -5.274611    3.804434   -0.840932
     56          1           0       -2.595800   -3.080107   -1.538086
     57          1           0       -4.237616   -2.697063   -1.798466
     58          7           0       -3.304511   -2.379933   -1.625408
     59          6           0       -3.019028   -1.080810   -1.516099
     60          6           0       -3.529515    1.243118   -1.493694
     61          7           0       -2.267426    1.639958   -1.261130
     62          1           0       -0.409000    0.821245   -0.984452
     63          6           0       -1.456047    0.587925   -1.172892
     64          7           0       -1.740054   -0.714001   -1.282075
     65          1           0       -6.705259    1.546531   -2.017850
     66          6           0       -5.690089    1.179974   -1.862935
     67          7           0       -5.346171   -0.084705   -1.863924
     68          6           0       -3.978787   -0.058745   -1.630893
     69          6           0       -4.667450    3.512852   -1.580192
     70          7           0       -4.640474    2.038700   -1.644737
 ---------------------------------------------------------------------

 SCF Done:  E(RwB97XD) =  -2048.75104276     A.U. after   15 cycles

 The electronic state is 1-A.
 Alpha  occ. eigenvalues --  -19.25439 -19.21651 -19.20400 -14.52822 -14.52052
 Alpha  occ. eigenvalues --  -14.48601 -14.48527 -14.48398 -14.47440 -14.46576
 Alpha  occ. eigenvalues --  -14.46049 -14.45798 -14.44530 -14.44527 -14.42513
 Alpha  occ. eigenvalues --  -14.41711 -14.41221 -14.41005 -14.40640 -14.40293
 Alpha  occ. eigenvalues --  -10.45043 -10.40886 -10.40266 -10.39764 -10.38314
 Alpha  occ. eigenvalues --  -10.37972 -10.37496 -10.37469 -10.35970 -10.35517
 Alpha  occ. eigenvalues --  -10.34493 -10.34288 -10.33996 -10.33921 -10.33270
 Alpha  occ. eigenvalues --  -10.33089 -10.33089 -10.32947 -10.30964 -10.30784
 Alpha  occ. eigenvalues --  -10.30561 -10.28424 -10.27793  -1.19104  -1.15538
 Alpha  occ. eigenvalues --   -1.12912  -1.12674  -1.11179  -1.10274  -1.09558
 Alpha  occ. eigenvalues --   -1.08953  -1.08223  -1.05112  -1.05047  -1.02091
 Alpha  occ. eigenvalues --   -1.01333  -1.00538  -0.99276  -0.98268  -0.97149
 Alpha  occ. eigenvalues --   -0.96820  -0.96281  -0.92772  -0.90700  -0.87948
 Alpha  occ. eigenvalues --   -0.86250  -0.83887  -0.83752  -0.83179  -0.82278
 Alpha  occ. eigenvalues --   -0.82172  -0.78521  -0.77330  -0.75179  -0.74291
 Alpha  occ. eigenvalues --   -0.73280  -0.72967  -0.72912  -0.71063  -0.70716
 Alpha  occ. eigenvalues --   -0.67143  -0.66976  -0.66335  -0.66149  -0.64585
 Alpha  occ. eigenvalues --   -0.64136  -0.63457  -0.62773  -0.62451  -0.61383
 Alpha  occ. eigenvalues --   -0.60875  -0.60768  -0.60556  -0.59701  -0.59213
 Alpha  occ. eigenvalues --   -0.58935  -0.57899  -0.56794  -0.56494  -0.56068
 Alpha  occ. eigenvalues --   -0.55759  -0.55676  -0.55484  -0.54331  -0.54143
 Alpha  occ. eigenvalues --   -0.53821  -0.53641  -0.53319  -0.53279  -0.52907
 Alpha  occ. eigenvalues --   -0.52627  -0.52051  -0.51775  -0.50728  -0.50203
 Alpha  occ. eigenvalues --   -0.50080  -0.49829  -0.49241  -0.49037  -0.48889
 Alpha  occ. eigenvalues --   -0.48501  -0.48245  -0.48029  -0.47274  -0.47081
 Alpha  occ. eigenvalues --   -0.46907  -0.45711  -0.44886  -0.44568  -0.43411
 Alpha  occ. eigenvalues --   -0.41156  -0.40933  -0.39158  -0.37916  -0.37899
 Alpha  occ. eigenvalues --   -0.37404  -0.37015  -0.36809  -0.35851  -0.34912
 Alpha  occ. eigenvalues --   -0.34658  -0.33679  -0.33488  -0.33239  -0.32856
 Alpha  occ. eigenvalues --   -0.32432  -0.32213  -0.32012  -0.31657  -0.30856
 Alpha  occ. eigenvalues --   -0.30515  -0.29815  -0.25789  -0.25022
 Alpha virt. eigenvalues --    0.03240   0.03789   0.06655   0.07785   0.09027
 Alpha virt. eigenvalues --    0.09406   0.09888   0.10195   0.11183   0.12146
 Alpha virt. eigenvalues --    0.12561   0.14152   0.14316   0.14749   0.15140

 Mulliken charges:
               1
     1  N   -0.312814
     2  C    0.180580
     3  C    0.061270
     4  N   -0.260936
     5  C    0.139183
     6  H    0.026472
     7  N   -0.292277
     8  C    0.136901
     9  H    0.011314
    10  N   -0.287404
    11  C    0.253523
    12  C    0.097499
    13  N   -0.054021
    14  H    0.109653
    15  H    0.082610
    16  H    0.025180
    17  H    0.029144
    18  H    0.027187
    19  N   -0.293972
    20  C    0.230720
    21  C    0.181119
    22  N   -0.103051
    23  H    0.112183
    24  H    0.113331
    25  N   -0.302574
    26  C    0.221262
    27  N   -0.143129
    28  H    0.120258
    29  C    0.184321
    30  O   -0.323343
    31  C   -0.010763
    32  N   -0.223032
    33  C    0.128007
    34  H    0.016501
    35  H    0.028409
    36  H    0.027220
    37  H    0.022271
    38  H    0.063143
    39  H    0.057759
    40  H    0.071769
    41  H    0.026994
    42  C   -0.110618
    43  O   -0.265872
    44  C    0.170254
    45  H    0.130959
    46  N   -0.120023
    47  O   -0.336048
    48  C    0.331816
    49  H    0.045953
    50  C    0.165130
    51  C    0.033809
    52  N   -0.278998
    53  H    0.035907
    54  H    0.036837
    55  H    0.029355
    56  H    0.123568
    57  H    0.117145
    58  N   -0.057242
    59  C    0.089565
    60  C    0.243521
    61  N   -0.272807
    62  H    0.046458
    63  C    0.154875
    64  N   -0.300980
    65  H    0.038176
    66  C    0.127832
    67  N   -0.257969
    68  C    0.021336
    69  C    0.181530
    70  N   -0.301935
 Sum of Mulliken charges =  -0.00000

 Dipole moment (field-independent basis, Debye):
    X=             -7.6440    Y=              6.4191    Z=             -2.8384  Tot=             10.3775
 Quadrupole moment (field-independent basis, Debye-Ang):
   XX=           -152.5233   YY=           -222.6833   ZZ=           -256.1376
   XY=             -1.9461   XZ=             -3.7545   YZ=             10.8304

 Normal termination of Gaussian 16 at Mon Jan 22 20:44:42 2018.
