 Gaussian 16, Revision A.03,
 Gaussian 16:  EM64L-G16RevA.03 25-Dec-2016

 ---------------------------------------
 #p wb97xd/cc-pvdz sp scf=(maxcycles=20)
 ---------------------------------------

 ------------------
 Base pair stacking
 ------------------
 Symbolic Z-matrix:
 Charge =  0 Multiplicity = 1

                         Standard orientation:
 ---------------------------------------------------------------------
 Center     Atomic      Atomic             Coordinates (Angstroms)
 Number     Number       Type             X           Y           Z
 ---------------------------------------------------------------------
      1          7           0        5.208571   -1.774298   -1.423116
      2          6           0        6.592799   -1.297303   -1.608606
      3          6           0        3.014616   -1.882172   -1.312513
      4          7           0        3.482793   -3.143171   -0.972789
      5          6           0        4.785832   -3.027714   -1.053023
      6          1           0        5.493176   -3.832590   -0.851098
      7          7           0        1.597502   -0.055084   -1.777762
      8          6           0        2.709159    0.648071   -2.017302
      9          1           0        2.549675    1.686297   -2.305245
     10          7           0        3.982260    0.263087   -1.954841
     11          6           0        4.066709   -1.027698   -1.592688
     12          6           0        1.716027   -1.351112   -1.415380
     13          7           0        0.607515   -2.054666   -1.175838
     14          1           0        0.647828   -3.017076   -0.904997
     15          1           0       -0.300544   -1.643964   -1.258903
     16          1           0        7.040740   -1.838513   -2.320374
     17          1           0        6.581103   -0.335458   -1.880337
     18          1           0        7.098449   -1.393588   -0.751254
     19          7           0        4.458477    2.314098    1.122073
     20          6           0        3.093236    2.160962    1.148657
     21          6           0        5.170805    3.568737    0.807164
     22          7           0       -0.091048    3.496566    0.776866
     23          1           0       -1.036603    3.180406    0.849121
     24          1           0        0.048989    4.456384    0.532205
     25          7           0        2.180455    3.123167    0.893617
     26          6           0        0.943314    2.671267    0.997944
     27          7           0        0.622472    1.376496    1.326772
     28          1           0       -0.351032    1.119539    1.383588
     29          6           0        1.545175    0.369801    1.593296
     30          8           0        1.150434   -0.766940    1.880943
     31          6           0        2.878566    0.840158    1.485128
     32          7           0        4.084775    0.177436    1.666147
     33          6           0        4.991653    1.089074    1.440938
     34          1           0        6.067825    0.920833    1.494031
     35          1           0        5.751260    3.432153    0.005151
     36          1           0        4.504884    4.288768    0.616476
     37          1           0        5.736602    3.837259    1.585995
     38          1           0       -5.346208    0.319644    0.872553
     39          1           0       -5.340635    0.479604    2.627271
     40          1           0       -4.174883    1.379966    1.656830
     41          1           0       -3.696199   -4.016163    2.147227
     42          6           0       -3.336292   -2.991583    2.052682
     43          8           0       -1.043326   -3.597487    2.100636
     44          6           0       -1.927076   -2.744172    2.025656
     45          1           0       -0.592385   -1.199536    1.880602
     46          7           0       -1.579413   -1.413985    1.903287
     47          8           0       -2.027046    0.803343    1.702573
     48          6           0       -2.430502   -0.341524    1.808228
     49          1           0       -5.271975   -2.100912    1.977635
     50          6           0       -4.191260   -1.966207    1.961921
     51          6           0       -4.721278    0.452532    1.743111
     52          7           0       -3.773635   -0.661026    1.841614
     53          1           0       -5.301575    3.698025   -2.777429
     54          1           0       -3.985277    3.796906   -1.818434
     55          1           0       -5.478820    3.851173   -1.162333
     56          1           0       -2.911512   -3.109699   -1.043030
     57          1           0       -4.562289   -2.737628   -1.258930
     58          7           0       -3.617548   -2.416057   -1.186292
     59          6           0       -3.313797   -1.119615   -1.276610
     60          6           0       -3.800109    1.193480   -1.550148
     61          7           0       -2.522693    1.596435   -1.448904
     62          1           0       -0.658837    0.791443   -1.168464
     63          6           0       -1.717435    0.552730   -1.261439
     64          7           0       -2.019725   -0.746492   -1.170700
     65          1           0       -6.998532    1.477123   -1.926797
     66          6           0       -5.979406    1.117786   -1.781162
     67          7           0       -5.648105   -0.140605   -1.625052
     68          6           0       -4.269036   -0.106659   -1.477538
     69          6           0       -4.919743    3.448857   -1.887419
     70          7           0       -4.910576    1.979828   -1.746461
 ---------------------------------------------------------------------

 SCF Done:  E(RwB97XD) =  -2048.75219785     A.U. after   15 cycles

 The electronic state is 1-A.
 Alpha  occ. eigenvalues --  -19.25547 -19.21819 -19.20491 -14.52657 -14.52186
 Alpha  occ. eigenvalues --  -14.48714 -14.48440 -14.48309 -14.47504 -14.46748
 Alpha  occ. eigenvalues --  -14.46477 -14.45667 -14.44487 -14.44450 -14.42316
 Alpha  occ. eigenvalues --  -14.41921 -14.40919 -14.40916 -14.40783 -14.40212
 Alpha  occ. eigenvalues --  -10.45163 -10.41125 -10.40189 -10.39904 -10.38197
 Alpha  occ. eigenvalues --  -10.38122 -10.37591 -10.37386 -10.35982 -10.35339
 Alpha  occ. eigenvalues --  -10.34646 -10.34279 -10.34052 -10.33654 -10.33365
 Alpha  occ. eigenvalues --  -10.33040 -10.32938 -10.32843 -10.30874 -10.30845
 Alpha  occ. eigenvalues --  -10.30700 -10.28213 -10.28040  -1.19154  -1.15397
 Alpha  occ. eigenvalues --   -1.13077  -1.12815  -1.10905  -1.10503  -1.09519
 Alpha  occ. eigenvalues --   -1.09044  -1.08432  -1.05020  -1.04891  -1.02178
 Alpha  occ. eigenvalues --   -1.01185  -1.00322  -0.99576  -0.98447  -0.97068
 Alpha  occ. eigenvalues --   -0.96568  -0.96531  -0.92593  -0.90819  -0.87807
 Alpha  occ. eigenvalues --   -0.86075  -0.84044  -0.83612  -0.83267  -0.82426
 Alpha  occ. eigenvalues --   -0.82034  -0.78637  -0.77231  -0.75028  -0.74534
 Alpha  occ. eigenvalues --   -0.73507  -0.73064  -0.72693  -0.70847  -0.70591
 Alpha  occ. eigenvalues --   -0.67262  -0.67010  -0.66265  -0.66094  -0.64446
 Alpha  occ. eigenvalues --   -0.64297  -0.63623  -0.62552  -0.62539  -0.61654
 Alpha  occ. eigenvalues --   -0.60771  -0.60585  -0.60391  -0.59540  -0.59291
 Alpha  occ. eigenvalues --   -0.59052  -0.58200  -0.56652  -0.56390  -0.55943
 Alpha  occ. eigenvalues --   -0.55769  -0.55539  -0.55294  -0.54335  -0.53998
 Alpha  occ. eigenvalues --   -0.53862  -0.53547  -0.53481  -0.53153  -0.52957
 Alpha  occ. eigenvalues --   -0.52861  -0.52126  -0.51529  -0.50452  -0.50201
 Alpha  occ. eigenvalues --   -0.50056  -0.49874  -0.49247  -0.49200  -0.48718
 Alpha  occ. eigenvalues --   -0.48690  -0.48391  -0.48227  -0.47580  -0.47195
 Alpha  occ. eigenvalues --   -0.46706  -0.45791  -0.45195  -0.44460  -0.43355
 Alpha  occ. eigenvalues --   -0.40947  -0.40872  -0.39182  -0.37810  -0.37787
 Alpha  occ. eigenvalues --   -0.37274  -0.37201  -0.36846  -0.35827  -0.34897
 Alpha  occ. eigenvalues --   -0.34512  -0.33889  -0.33288  -0.33149  -0.32958
 Alpha  occ. eigenvalues --   -0.32606  -0.32402  -0.32208  -0.31813  -0.30640
 Alpha  occ. eigenvalues --   -0.30308  -0.29757  -0.25595  -0.25385
 Alpha virt. eigenvalues --    0.03059   0.03994   0.06532   0.08133   0.09096
 Alpha virt. eigenvalues --    0.09296   0.09834   0.10252   0.11186   0.12099
 Alpha virt. eigenvalues --    0.12766   0.14329   0.14445   0.14747   0.14942

 Mulliken charges:
               1
     1  N   -0.311211
     2  C    0.180878
     3  C    0.059112
     4  N   -0.259416
     5  C    0.141822
     6  H    0.026163
     7  N   -0.295004
     8  C    0.132919
     9  H    0.011305
    10  N   -0.287250
    11  C    0.252788
    12  C    0.094841
    13  N   -0.054894
    14  H    0.112602
    15  H    0.082527
    16  H    0.024215
    17  H    0.029358
    18  H    0.026490
    19  N   -0.304893
    20  C    0.253297
    21  C    0.181419
    22  N   -0.117182
    23  H    0.115883
    24  H    0.116406
    25  N   -0.309637
    26  C    0.240829
    27  N   -0.142085
    28  H    0.116251
    29  C    0.189179
    30  O   -0.322579
    31  C   -0.016779
    32  N   -0.225315
    33  C    0.125084
    34  H    0.018767
    35  H    0.028997
    36  H    0.028753
    37  H    0.023199
    38  H    0.063241
    39  H    0.058679
    40  H    0.073890
    41  H    0.025320
    42  C   -0.112993
    43  O   -0.266518
    44  C    0.168181
    45  H    0.130765
    46  N   -0.118966
    47  O   -0.340952
    48  C    0.337130
    49  H    0.044918
    50  C    0.165913
    51  C    0.035676
    52  N   -0.276698
    53  H    0.034887
    54  H    0.039304
    55  H    0.028937
    56  H    0.123691
    57  H    0.115414
    58  N   -0.053959
    59  C    0.091640
    60  C    0.244765
    61  N   -0.272487
    62  H    0.033074
    63  C    0.170771
    64  N   -0.308996
    65  H    0.038093
    66  C    0.131287
    67  N   -0.259403
    68  C    0.012537
    69  C    0.181357
    70  N   -0.305335
 Sum of Mulliken charges =  -0.00000

 Dipole moment (field-independent basis, Debye):
    X=             -7.7221    Y=              6.7142    Z=             -1.9245  Tot=             10.4122
 Quadrupole moment (field-independent basis, Debye-Ang):
   XX=           -154.6035   YY=           -221.1347   ZZ=           -254.7863
   XY=             -0.4767   XZ=             -7.2122   YZ=              8.1541

 Normal termination of Gaussian 16 at Mon Jan 22 18:48:02 2018.
