 Gaussian 16, Revision A.03,
 Gaussian 16:  EM64L-G16RevA.03 25-Dec-2016

 ---------------------------------------
 #p wb97xd/cc-pvdz sp scf=(maxcycles=20)
 ---------------------------------------

 ------------------
 Base pair stacking
 ------------------
 Symbolic Z-matrix:
 Charge =  0 Multiplicity = 1

                         Standard orientation:
 ---------------------------------------------------------------------
 Center     Atomic      Atomic             Coordinates (Angstroms)
 Number     Number       Type             X           Y           Z
 ---------------------------------------------------------------------
      1          7           0       -6.120046   -1.577368    0.817335
      2          6           0       -7.498689   -1.052356    0.858875
      3          6           0       -3.931197   -1.760161    0.930614
      4          7           0       -4.405714   -3.007523    0.551584
      5          6           0       -5.705416   -2.847471    0.498513
      6          1           0       -6.415967   -3.629726    0.229946
      7          7           0       -2.506416    0.022000    1.527958
      8          6           0       -3.611737    0.764300    1.649782
      9          1           0       -3.446577    1.798991    1.947098
     10          7           0       -4.884463    0.421973    1.460360
     11          6           0       -4.976201   -0.868294    1.098133
     12          6           0       -2.632199   -1.272364    1.162068
     13          7           0       -1.530009   -2.014952    1.039927
     14          1           0       -1.575803   -2.977746    0.771335
     15          1           0       -0.621431   -1.634427    1.212651
     16          1           0       -8.034799   -1.572003    1.524252
     17          1           0       -7.481457   -0.089153    1.125450
     18          1           0       -7.917906   -1.138892   -0.044880
     19          7           0       -3.484039    2.445430   -1.500058
     20          6           0       -2.129216    2.246088   -1.387103
     21          6           0       -4.180969    3.726061   -1.265540
     22          7           0        1.045130    3.476628   -0.700788
     23          1           0        1.981687    3.128131   -0.675043
     24          1           0        0.914173    4.442693   -0.476537
     25          7           0       -1.214369    3.179102   -1.045646
     26          6           0        0.010670    2.684840   -1.021505
     27          7           0        0.318389    1.377192   -1.309411
     28          1           0        1.283210    1.087052   -1.265773
     29          6           0       -0.606702    0.399947   -1.663073
     30          8           0       -0.224233   -0.751893   -1.903318
     31          6           0       -1.927192    0.915957   -1.693257
     32          7           0       -3.130967    0.292784   -1.992405
     33          6           0       -4.024047    1.236399   -1.865119
     34          1           0       -5.094464    1.104127   -2.026337
     35          1           0       -4.844033    3.616035   -0.525916
     36          1           0       -3.513387    4.424824   -1.011923
     37          1           0       -4.655373    4.006808   -2.099161
     38          1           0        6.170391    0.123485   -0.246115
     39          1           0        6.348106    0.268449   -1.993129
     40          1           0        5.121751    1.215933   -1.150698
     41          1           0        4.509628   -4.164978   -1.659467
     42          6           0        4.177513   -3.128065   -1.607209
     43          8           0        1.881697   -3.656640   -1.884614
     44          6           0        2.782169   -2.833019   -1.724673
     45          1           0        1.493648   -1.243034   -1.723808
     46          7           0        2.469917   -1.490846   -1.645060
     47          8           0        2.971020    0.711758   -1.411314
     48          6           0        3.343429   -0.446938   -1.469584
     49          1           0        6.125160   -2.302608   -1.340589
     50          6           0        5.053696   -2.131382   -1.435374
     51          6           0        5.641806    0.269882   -1.176297
     52          7           0        4.671227   -0.811870   -1.364791
     53          1           0        4.381062    3.548609    3.203658
     54          1           0        3.172871    3.683615    2.115481
     55          1           0        4.726170    3.681809    1.614142
     56          1           0        1.945933   -3.189235    1.270512
     57          1           0        3.578171   -2.871242    1.650988
     58          7           0        2.657296   -2.518607    1.481157
     59          6           0        2.390792   -1.211924    1.533515
     60          6           0        2.926274    1.085710    1.843143
     61          7           0        1.680325    1.530655    1.610659
     62          1           0       -0.172152    0.786635    1.146562
     63          6           0        0.862730    0.513145    1.347761
     64          7           0        1.127727   -0.796270    1.294850
     65          1           0        6.077945    1.264485    2.541122
     66          6           0        5.067053    0.938509    2.294615
     67          7           0        4.710125   -0.309282    2.112133
     68          6           0        3.355083   -0.230089    1.825191
     69          6           0        4.082997    3.304838    2.280772
     70          7           0        4.037556    1.835792    2.147149
 ---------------------------------------------------------------------

 SCF Done:  E(RwB97XD) =  -2048.75004048     A.U. after   15 cycles

 The electronic state is 1-A.
 Alpha  occ. eigenvalues --  -19.25842 -19.22062 -19.20534 -14.52363 -14.52230
 Alpha  occ. eigenvalues --  -14.48746 -14.48577 -14.47778 -14.47724 -14.46765
 Alpha  occ. eigenvalues --  -14.46390 -14.45278 -14.43860 -14.43825 -14.42282
 Alpha  occ. eigenvalues --  -14.41895 -14.41341 -14.40999 -14.40684 -14.40249
 Alpha  occ. eigenvalues --  -10.45441 -10.41014 -10.40164 -10.39538 -10.38095
 Alpha  occ. eigenvalues --  -10.37784 -10.37775 -10.36861 -10.35434 -10.35388
 Alpha  occ. eigenvalues --  -10.34997 -10.34153 -10.34022 -10.33946 -10.33318
 Alpha  occ. eigenvalues --  -10.33162 -10.33142 -10.32283 -10.31085 -10.31053
 Alpha  occ. eigenvalues --  -10.30657 -10.28471 -10.27918  -1.19409  -1.14925
 Alpha  occ. eigenvalues --   -1.13092  -1.13065  -1.11303  -1.10429  -1.09251
 Alpha  occ. eigenvalues --   -1.08871  -1.08399  -1.05022  -1.04416  -1.02447
 Alpha  occ. eigenvalues --   -1.00744  -1.00462  -0.99539  -0.98417  -0.96962
 Alpha  occ. eigenvalues --   -0.96412  -0.96393  -0.92694  -0.91008  -0.87364
 Alpha  occ. eigenvalues --   -0.85767  -0.83943  -0.83908  -0.83507  -0.82330
 Alpha  occ. eigenvalues --   -0.82297  -0.78816  -0.76712  -0.74538  -0.74407
 Alpha  occ. eigenvalues --   -0.73502  -0.73300  -0.72906  -0.71072  -0.70102
 Alpha  occ. eigenvalues --   -0.67207  -0.66514  -0.66427  -0.66312  -0.64378
 Alpha  occ. eigenvalues --   -0.63959  -0.63633  -0.62733  -0.62593  -0.61561
 Alpha  occ. eigenvalues --   -0.60430  -0.60327  -0.60156  -0.59429  -0.59226
 Alpha  occ. eigenvalues --   -0.59034  -0.58167  -0.56695  -0.56520  -0.56295
 Alpha  occ. eigenvalues --   -0.55917  -0.55501  -0.55118  -0.54519  -0.54271
 Alpha  occ. eigenvalues --   -0.53819  -0.53525  -0.53199  -0.53008  -0.52810
 Alpha  occ. eigenvalues --   -0.52463  -0.52335  -0.51805  -0.50786  -0.50244
 Alpha  occ. eigenvalues --   -0.50045  -0.49580  -0.49389  -0.48860  -0.48754
 Alpha  occ. eigenvalues --   -0.48669  -0.48407  -0.48157  -0.47503  -0.47297
 Alpha  occ. eigenvalues --   -0.46959  -0.45566  -0.44885  -0.44487  -0.43835
 Alpha  occ. eigenvalues --   -0.41148  -0.40511  -0.39406  -0.37463  -0.37416
 Alpha  occ. eigenvalues --   -0.37185  -0.37151  -0.36934  -0.35970  -0.34527
 Alpha  occ. eigenvalues --   -0.34074  -0.33739  -0.33454  -0.33258  -0.33182
 Alpha  occ. eigenvalues --   -0.32565  -0.32311  -0.31986  -0.31746  -0.30931
 Alpha  occ. eigenvalues --   -0.30463  -0.29564  -0.25788  -0.25112
 Alpha virt. eigenvalues --    0.03006   0.04373   0.07244   0.07953   0.08697
 Alpha virt. eigenvalues --    0.09363   0.09888   0.10698   0.11035   0.11518
 Alpha virt. eigenvalues --    0.12878   0.14298   0.14411   0.14681   0.15024

 Mulliken charges:
               1
     1  N   -0.312892
     2  C    0.180545
     3  C    0.054983
     4  N   -0.259466
     5  C    0.134797
     6  H    0.026296
     7  N   -0.288756
     8  C    0.134426
     9  H    0.010286
    10  N   -0.291496
    11  C    0.241941
    12  C    0.112403
    13  N   -0.052323
    14  H    0.110458
    15  H    0.087089
    16  H    0.025777
    17  H    0.031804
    18  H    0.025469
    19  N   -0.305988
    20  C    0.248609
    21  C    0.179892
    22  N   -0.102715
    23  H    0.111799
    24  H    0.113796
    25  N   -0.305788
    26  C    0.227075
    27  N   -0.142376
    28  H    0.122562
    29  C    0.170087
    30  O   -0.322520
    31  C    0.000962
    32  N   -0.225681
    33  C    0.130901
    34  H    0.021223
    35  H    0.031094
    36  H    0.027359
    37  H    0.023015
    38  H    0.061454
    39  H    0.059099
    40  H    0.069125
    41  H    0.028381
    42  C   -0.115135
    43  O   -0.268263
    44  C    0.165919
    45  H    0.133764
    46  N   -0.121030
    47  O   -0.342179
    48  C    0.340579
    49  H    0.048036
    50  C    0.174197
    51  C    0.039110
    52  N   -0.283010
    53  H    0.035388
    54  H    0.037534
    55  H    0.025463
    56  H    0.127490
    57  H    0.116203
    58  N   -0.059494
    59  C    0.089726
    60  C    0.250655
    61  N   -0.275566
    62  H    0.039042
    63  C    0.161621
    64  N   -0.300067
    65  H    0.034697
    66  C    0.130015
    67  N   -0.262422
    68  C    0.016213
    69  C    0.178208
    70  N   -0.309401
 Sum of Mulliken charges =  -0.00000

 Dipole moment (field-independent basis, Debye):
    X=              7.5718    Y=              6.2309    Z=              2.5683  Tot=             10.1367
 Quadrupole moment (field-independent basis, Debye-Ang):
   XX=           -149.3799   YY=           -221.8989   ZZ=           -254.8917
   XY=              3.9531   XZ=              4.2221   YZ=             -7.8771

 Normal termination of Gaussian 16 at Mon Jan 22 18:12:48 2018.
