 Gaussian 16, Revision A.03,
 Gaussian 16:  EM64L-G16RevA.03 25-Dec-2016

 ---------------------------------------
 #p wb97xd/cc-pvdz sp scf=(maxcycles=20)
 ---------------------------------------

 ------------------
 Base pair stacking
 ------------------
 Symbolic Z-matrix:
 Charge =  0 Multiplicity = 1

                         Standard orientation:
 ---------------------------------------------------------------------
 Center     Atomic      Atomic             Coordinates (Angstroms)
 Number     Number       Type             X           Y           Z
 ---------------------------------------------------------------------
      1          7           0        4.604406   -1.589727   -1.711070
      2          6           0        5.995301   -1.098968   -1.761811
      3          6           0        2.409362   -1.694120   -1.620596
      4          7           0        2.858992   -3.006000   -1.659791
      5          6           0        4.163434   -2.890598   -1.712734
      6          1           0        4.858851   -3.729380   -1.754906
      7          7           0        1.019283    0.209276   -1.532771
      8          6           0        2.140970    0.935980   -1.568569
      9          1           0        1.996711    2.015302   -1.545794
     10          7           0        3.408164    0.531503   -1.627998
     11          6           0        3.473714   -0.809981   -1.651542
     12          6           0        1.118832   -1.137771   -1.557830
     13          7           0        0.000263   -1.864901   -1.522176
     14          1           0        0.026490   -2.865035   -1.538782
     15          1           0       -0.901585   -1.434985   -1.477677
     16          1           0        6.432907   -1.419641   -2.601964
     17          1           0        5.997679   -0.099521   -1.746420
     18          1           0        6.501747   -1.444004   -0.971593
     19          7           0        5.057805    2.049770    0.843378
     20          6           0        3.692496    1.904226    0.896258
     21          6           0        5.770511    3.288574    0.471720
     22          7           0        0.508539    3.240443    0.523790
     23          1           0       -0.437113    2.931671    0.621946
     24          1           0        0.648856    4.189936    0.241842
     25          7           0        2.779975    2.860752    0.619805
     26          6           0        1.542686    2.418907    0.759428
     27          7           0        1.221463    1.138642    1.140556
     28          1           0        0.247869    0.888606    1.221535
     29          6           0        2.143892    0.138038    1.429979
     30          8           0        1.748821   -0.985461    1.765242
     31          6           0        3.477442    0.597733    1.284371
     32          7           0        4.683483   -0.063629    1.471393
     33          6           0        5.590632    0.834765    1.199045
     34          1           0        6.666774    0.663461    1.241996
     35          1           0        6.338029    3.119811   -0.333421
     36          1           0        5.104779    4.004276    0.264738
     37          1           0        6.349279    3.582848    1.231475
     38          1           0       -4.757870    0.094305    0.816014
     39          1           0       -4.724759    0.318652    2.563356
     40          1           0       -3.570214    1.177143    1.542869
     41          1           0       -3.106810   -4.199531    2.224413
     42          6           0       -2.744080   -3.180848    2.086749
     43          8           0       -0.453220   -3.795516    2.122265
     44          6           0       -1.334417   -2.941326    2.029286
     45          1           0        0.004394   -1.409454    1.807240
     46          7           0       -0.983072   -1.618202    1.852746
     47          8           0       -1.424375    0.592350    1.577295
     48          6           0       -1.830989   -0.545920    1.731146
     49          1           0       -4.676922   -2.284312    2.008266
     50          6           0       -3.596012   -2.155427    1.971229
     51          6           0       -4.119128    0.256121    1.671523
     52          7           0       -3.174785   -0.857573    1.796619
     53          1           0       -5.823892    4.187427   -1.366463
     54          1           0       -4.503616    3.988877   -0.428616
     55          1           0       -5.994342    3.873651    0.225996
     56          1           0       -3.534209   -2.864467   -1.672538
     57          1           0       -5.179640   -2.423109   -1.761153
     58          7           0       -4.229865   -2.149077   -1.606046
     59          6           0       -3.906443   -0.885527   -1.323188
     60          6           0       -4.357825    1.415466   -0.918963
     61          7           0       -3.074080    1.754605   -0.715470
     62          1           0       -1.222086    0.877063   -0.690594
     63          6           0       -2.284481    0.689823   -0.840629
     64          7           0       -2.606493   -0.576531   -1.123894
     65          1           0       -7.552507    1.839825   -1.176040
     66          6           0       -6.538651    1.439619   -1.146655
     67          7           0       -6.226337    0.184785   -1.360042
     68          6           0       -4.846517    0.155761   -1.218691
     69          6           0       -5.443515    3.688299   -0.587883
     70          7           0       -5.456581    2.240528   -0.873887
 ---------------------------------------------------------------------

 SCF Done:  E(RwB97XD) =  -2048.72123876     A.U. after   15 cycles

 The electronic state is 1-A.
 Alpha  occ. eigenvalues --  -19.25160 -19.21211 -19.20402 -14.52968 -14.51581
 Alpha  occ. eigenvalues --  -14.49082 -14.48746 -14.48483 -14.47123 -14.46557
 Alpha  occ. eigenvalues --  -14.46447 -14.45846 -14.45088 -14.44838 -14.43133
 Alpha  occ. eigenvalues --  -14.41875 -14.41190 -14.41140 -14.41084 -14.40627
 Alpha  occ. eigenvalues --  -10.44685 -10.41014 -10.40744 -10.39348 -10.38368
 Alpha  occ. eigenvalues --  -10.37972 -10.37696 -10.37120 -10.36508 -10.35872
 Alpha  occ. eigenvalues --  -10.34251 -10.34175 -10.33893 -10.33516 -10.33353
 Alpha  occ. eigenvalues --  -10.33323 -10.33058 -10.32995 -10.30965 -10.30548
 Alpha  occ. eigenvalues --  -10.30447 -10.28613 -10.27938  -1.18871  -1.15760
 Alpha  occ. eigenvalues --   -1.13068  -1.12275  -1.11132  -1.10503  -1.10101
 Alpha  occ. eigenvalues --   -1.08573  -1.08417  -1.05581  -1.05415  -1.01719
 Alpha  occ. eigenvalues --   -1.01469  -1.00931  -0.99577  -0.98427  -0.97647
 Alpha  occ. eigenvalues --   -0.96836  -0.96585  -0.93122  -0.90341  -0.88321
 Alpha  occ. eigenvalues --   -0.86398  -0.84090  -0.83874  -0.82719  -0.82455
 Alpha  occ. eigenvalues --   -0.82185  -0.78166  -0.77670  -0.75540  -0.74530
 Alpha  occ. eigenvalues --   -0.73507  -0.73111  -0.72672  -0.71299  -0.71029
 Alpha  occ. eigenvalues --   -0.67464  -0.67257  -0.66535  -0.65882  -0.64881
 Alpha  occ. eigenvalues --   -0.64168  -0.63487  -0.62989  -0.62497  -0.61690
 Alpha  occ. eigenvalues --   -0.61344  -0.60933  -0.60783  -0.60053  -0.59067
 Alpha  occ. eigenvalues --   -0.58780  -0.58206  -0.57299  -0.56650  -0.56108
 Alpha  occ. eigenvalues --   -0.55809  -0.55798  -0.55597  -0.55019  -0.54203
 Alpha  occ. eigenvalues --   -0.54010  -0.53832  -0.53327  -0.53106  -0.52852
 Alpha  occ. eigenvalues --   -0.51879  -0.51696  -0.51364  -0.50703  -0.50562
 Alpha  occ. eigenvalues --   -0.50025  -0.49823  -0.49803  -0.49075  -0.49046
 Alpha  occ. eigenvalues --   -0.48675  -0.47997  -0.47936  -0.47661  -0.47036
 Alpha  occ. eigenvalues --   -0.46965  -0.45362  -0.45022  -0.44463  -0.42915
 Alpha  occ. eigenvalues --   -0.41453  -0.41273  -0.39063  -0.38281  -0.38212
 Alpha  occ. eigenvalues --   -0.37378  -0.37262  -0.37134  -0.35339  -0.35257
 Alpha  occ. eigenvalues --   -0.35029  -0.34502  -0.33653  -0.33305  -0.32788
 Alpha  occ. eigenvalues --   -0.32359  -0.32334  -0.31753  -0.30987  -0.30746
 Alpha  occ. eigenvalues --   -0.30393  -0.30245  -0.26321  -0.24999
 Alpha virt. eigenvalues --    0.03364   0.03786   0.06151   0.07720   0.08931
 Alpha virt. eigenvalues --    0.09326   0.09768   0.09936   0.10685   0.12092
 Alpha virt. eigenvalues --    0.13227   0.14175   0.14392   0.14525   0.14699

 Mulliken charges:
               1
     1  N   -0.308876
     2  C    0.182357
     3  C    0.065614
     4  N   -0.262877
     5  C    0.145933
     6  H    0.028009
     7  N   -0.280074
     8  C    0.112104
     9  H    0.022073
    10  N   -0.265807
    11  C    0.251488
    12  C    0.078583
    13  N   -0.065849
    14  H    0.110164
    15  H    0.081166
    16  H    0.023087
    17  H    0.027568
    18  H    0.031107
    19  N   -0.301734
    20  C    0.261813
    21  C    0.183478
    22  N   -0.104382
    23  H    0.122232
    24  H    0.116619
    25  N   -0.287197
    26  C    0.175295
    27  N   -0.098461
    28  H    0.115888
    29  C    0.157513
    30  O   -0.319452
    31  C   -0.000686
    32  N   -0.227093
    33  C    0.108003
    34  H    0.019642
    35  H    0.024009
    36  H    0.029627
    37  H    0.023688
    38  H    0.068634
    39  H    0.049620
    40  H    0.080388
    41  H    0.025984
    42  C   -0.113732
    43  O   -0.264603
    44  C    0.177241
    45  H    0.132845
    46  N   -0.126955
    47  O   -0.345300
    48  C    0.346470
    49  H    0.043426
    50  C    0.165323
    51  C    0.042225
    52  N   -0.275659
    53  H    0.035414
    54  H    0.038910
    55  H    0.031369
    56  H    0.119806
    57  H    0.120640
    58  N   -0.063148
    59  C    0.085294
    60  C    0.202455
    61  N   -0.264742
    62  H    0.003245
    63  C    0.195940
    64  N   -0.306881
    65  H    0.040257
    66  C    0.132954
    67  N   -0.249247
    68  C    0.018750
    69  C    0.181616
    70  N   -0.303108
 Sum of Mulliken charges =  -0.00000

 Dipole moment (field-independent basis, Debye):
    X=             -7.6203    Y=              6.8433    Z=             -2.4965  Tot=             10.5419
 Quadrupole moment (field-independent basis, Debye-Ang):
   XX=           -159.4004   YY=           -224.1933   ZZ=           -254.7137
   XY=              4.1929   XZ=            -15.1961   YZ=             14.1175

 Normal termination of Gaussian 16 at Tue Jan 23 07:26:38 2018.
