 Gaussian 16, Revision A.03,
 Gaussian 16:  EM64L-G16RevA.03 25-Dec-2016

 ---------------------------------------
 #p wb97xd/cc-pvdz sp scf=(maxcycles=20)
 ---------------------------------------

 ------------------
 Base pair stacking
 ------------------
 Symbolic Z-matrix:
 Charge =  0 Multiplicity = 1

                         Standard orientation:
 ---------------------------------------------------------------------
 Center     Atomic      Atomic             Coordinates (Angstroms)
 Number     Number       Type             X           Y           Z
 ---------------------------------------------------------------------
      1          7           0       -6.876166   -1.368862    0.325684
      2          6           0       -8.226233   -0.810334    0.117401
      3          6           0       -4.717912   -1.581729    0.691630
      4          7           0       -5.215015   -2.868349    0.542582
      5          6           0       -6.495398   -2.688603    0.328082
      6          1           0       -7.215135   -3.491047    0.163703
      7          7           0       -3.269862    0.248491    1.032816
      8          6           0       -4.344975    1.029094    0.883230
      9          1           0       -4.158311    2.098811    0.967638
     10          7           0       -5.610098    0.688293    0.646148
     11          6           0       -5.730038   -0.646888    0.560506
     12          6           0       -3.423513   -1.090560    0.941104
     13          7           0       -2.351509   -1.871430    1.090137
     14          1           0       -2.418614   -2.867984    1.030116
     15          1           0       -1.445266   -1.487146    1.266754
     16          1           0       -8.844805   -1.158453    0.821936
     17          1           0       -8.187332    0.186942    0.172536
     18          1           0       -8.565228   -1.079677   -0.784006
     19          7           0       -2.647853    2.301629   -1.632431
     20          6           0       -1.311568    2.090986   -1.391536
     21          6           0       -3.360008    3.579916   -1.433664
     22          7           0        1.783659    3.283350   -0.362171
     23          1           0        2.711816    2.928504   -0.253361
     24          1           0        1.634585    4.243964   -0.126117
     25          7           0       -0.431685    3.009003   -0.936454
     26          6           0        0.783191    2.506697   -0.804653
     27          7           0        1.113227    1.205214   -1.095715
     28          1           0        2.067959    0.908060   -0.964759
     29          6           0        0.224214    0.243367   -1.565145
     30          8           0        0.624471   -0.904095   -1.797224
     31          6           0       -1.084978    0.768153   -1.711807
     32          7           0       -2.255447    0.160541   -2.145044
     33          6           0       -3.153386    1.105987   -2.081365
     34          1           0       -4.203064    0.984645   -2.351054
     35          1           0       -4.093382    3.454559   -0.766387
     36          1           0       -2.718308    4.267615   -1.096659
     37          1           0       -3.748598    3.885463   -2.302251
     38          1           0        6.826824   -0.112280    0.506607
     39          1           0        7.177034    0.077557   -1.209770
     40          1           0        5.876723    1.010101   -0.467533
     41          1           0        5.298821   -4.351655   -1.178459
     42          6           0        4.966844   -3.314439   -1.131477
     43          8           0        2.707867   -3.821306   -1.648453
     44          6           0        3.591024   -3.007772   -1.378276
     45          1           0        2.314398   -1.410413   -1.462097
     46          7           0        3.277206   -1.666258   -1.293936
     47          8           0        3.760546    0.526280   -0.952827
     48          6           0        4.132770   -0.632766   -1.005068
     49          1           0        6.881475   -2.508375   -0.651660
     50          6           0        5.825264   -2.328072   -0.847228
     51          6           0        6.393393    0.061843   -0.466988
     52          7           0        5.442390   -1.008538   -0.779415
     53          1           0        3.597289    3.867553    2.590688
     54          1           0        2.500832    3.795635    1.384565
     55          1           0        4.091410    3.643088    1.051563
     56          1           0        1.029043   -3.061035    1.909270
     57          1           0        2.633263   -2.712200    2.372845
     58          7           0        1.749507   -2.380122    2.041278
     59          6           0        1.542053   -1.086540    1.786770
     60          6           0        2.156261    1.208192    1.650155
     61          7           0        0.959268    1.625515    1.205777
     62          1           0       -0.876762    0.848770    0.730087
     63          6           0        0.121309    0.597654    1.086543
     64          7           0        0.327198   -0.698678    1.340949
     65          1           0        5.236366    1.449104    2.602548
     66          6           0        4.237655    1.104790    2.332429
     67          7           0        3.839626   -0.142754    2.386141
     68          6           0        2.521619   -0.091198    1.956127
     69          6           0        3.373048    3.437350    1.716243
     70          7           0        3.269855    1.976111    1.895541
 ---------------------------------------------------------------------

 SCF Done:  E(RwB97XD) =  -2048.66925714     A.U. after   15 cycles

 The electronic state is 1-A.
 Alpha  occ. eigenvalues --  -19.25928 -19.21936 -19.20502 -14.52427 -14.51982
 Alpha  occ. eigenvalues --  -14.49428 -14.48583 -14.47900 -14.47246 -14.46082
 Alpha  occ. eigenvalues --  -14.45919 -14.44877 -14.43399 -14.42873 -14.42375
 Alpha  occ. eigenvalues --  -14.42098 -14.41902 -14.41702 -14.40830 -14.40606
 Alpha  occ. eigenvalues --  -10.45533 -10.41220 -10.40066 -10.39000 -10.38054
 Alpha  occ. eigenvalues --  -10.37750 -10.37497 -10.36340 -10.36117 -10.35447
 Alpha  occ. eigenvalues --  -10.34751 -10.34626 -10.34243 -10.34087 -10.33863
 Alpha  occ. eigenvalues --  -10.33693 -10.33037 -10.31843 -10.31489 -10.31049
 Alpha  occ. eigenvalues --  -10.30644 -10.29260 -10.27980  -1.19492  -1.14811
 Alpha  occ. eigenvalues --   -1.13292  -1.12974  -1.12031  -1.10463  -1.09318
 Alpha  occ. eigenvalues --   -1.08948  -1.08228  -1.05690  -1.03913  -1.02504
 Alpha  occ. eigenvalues --   -1.01149  -1.01034  -0.99610  -0.98458  -0.97621
 Alpha  occ. eigenvalues --   -0.96485  -0.95964  -0.93347  -0.91028  -0.87246
 Alpha  occ. eigenvalues --   -0.85882  -0.84613  -0.83975  -0.83744  -0.82947
 Alpha  occ. eigenvalues --   -0.82382  -0.78859  -0.76486  -0.74868  -0.74146
 Alpha  occ. eigenvalues --   -0.73683  -0.73566  -0.73365  -0.71796  -0.69902
 Alpha  occ. eigenvalues --   -0.67555  -0.66988  -0.66597  -0.66291  -0.64445
 Alpha  occ. eigenvalues --   -0.63840  -0.63731  -0.63375  -0.62841  -0.62221
 Alpha  occ. eigenvalues --   -0.60896  -0.60379  -0.60040  -0.59543  -0.59489
 Alpha  occ. eigenvalues --   -0.59007  -0.58123  -0.57451  -0.57022  -0.56961
 Alpha  occ. eigenvalues --   -0.56177  -0.55940  -0.55693  -0.54705  -0.54347
 Alpha  occ. eigenvalues --   -0.53812  -0.53480  -0.53140  -0.52834  -0.52614
 Alpha  occ. eigenvalues --   -0.52446  -0.52338  -0.51949  -0.51416  -0.50813
 Alpha  occ. eigenvalues --   -0.50012  -0.49804  -0.49420  -0.49309  -0.48700
 Alpha  occ. eigenvalues --   -0.48618  -0.48248  -0.48144  -0.47838  -0.47556
 Alpha  occ. eigenvalues --   -0.47321  -0.45860  -0.45603  -0.43955  -0.42766
 Alpha  occ. eigenvalues --   -0.41908  -0.39812  -0.39494  -0.37905  -0.37448
 Alpha  occ. eigenvalues --   -0.37165  -0.37039  -0.36392  -0.35855  -0.34828
 Alpha  occ. eigenvalues --   -0.34239  -0.34104  -0.33343  -0.33121  -0.32580
 Alpha  occ. eigenvalues --   -0.32221  -0.31948  -0.31898  -0.31710  -0.31561
 Alpha  occ. eigenvalues --   -0.31012  -0.28232  -0.26493  -0.25274
 Alpha virt. eigenvalues --    0.03154   0.04225   0.07205   0.07570   0.08549
 Alpha virt. eigenvalues --    0.09229   0.09432   0.10236   0.11382   0.12171
 Alpha virt. eigenvalues --    0.12905   0.13596   0.14295   0.14430   0.14800

 Mulliken charges:
               1
     1  N   -0.312340
     2  C    0.180618
     3  C    0.039288
     4  N   -0.259357
     5  C    0.134853
     6  H    0.028801
     7  N   -0.280815
     8  C    0.117336
     9  H    0.015221
    10  N   -0.286698
    11  C    0.241243
    12  C    0.118870
    13  N   -0.054478
    14  H    0.107527
    15  H    0.087897
    16  H    0.026882
    17  H    0.034370
    18  H    0.027344
    19  N   -0.302143
    20  C    0.221138
    21  C    0.181722
    22  N   -0.087140
    23  H    0.103722
    24  H    0.113302
    25  N   -0.274139
    26  C    0.192673
    27  N   -0.107727
    28  H    0.122586
    29  C    0.127232
    30  O   -0.317995
    31  C    0.019879
    32  N   -0.219843
    33  C    0.122072
    34  H    0.028323
    35  H    0.024023
    36  H    0.026987
    37  H    0.024258
    38  H    0.060854
    39  H    0.061662
    40  H    0.069861
    41  H    0.031229
    42  C   -0.113359
    43  O   -0.265657
    44  C    0.178418
    45  H    0.135924
    46  N   -0.136631
    47  O   -0.350244
    48  C    0.362021
    49  H    0.047431
    50  C    0.175188
    51  C    0.039620
    52  N   -0.292420
    53  H    0.032573
    54  H    0.024781
    55  H    0.021723
    56  H    0.121465
    57  H    0.116956
    58  N   -0.067833
    59  C    0.118469
    60  C    0.226301
    61  N   -0.270712
    62  H    0.074200
    63  C    0.156511
    64  N   -0.299929
    65  H    0.029431
    66  C    0.129805
    67  N   -0.261813
    68  C    0.018254
    69  C    0.174419
    70  N   -0.313992
 Sum of Mulliken charges =  -0.00000

 Dipole moment (field-independent basis, Debye):
    X=              6.7020    Y=              5.6208    Z=              3.7135  Tot=              9.5026
 Quadrupole moment (field-independent basis, Debye-Ang):
   XX=           -143.7329   YY=           -225.3990   ZZ=           -255.0994
   XY=              8.1172   XZ=             12.2994   YZ=            -11.3995

 Normal termination of Gaussian 16 at Tue Jan 23 03:08:58 2018.
