 Gaussian 16, Revision A.03,
 Gaussian 16:  EM64L-G16RevA.03 25-Dec-2016

 ---------------------------------------
 #p wb97xd/cc-pvdz sp scf=(maxcycles=20)
 ---------------------------------------

 ------------------
 Base pair stacking
 ------------------
 Symbolic Z-matrix:
 Charge =  0 Multiplicity = 1

                         Standard orientation:
 ---------------------------------------------------------------------
 Center     Atomic      Atomic             Coordinates (Angstroms)
 Number     Number       Type             X           Y           Z
 ---------------------------------------------------------------------
      1          7           0       -6.414521   -1.523969    0.600708
      2          6           0       -7.791240   -0.994177    0.645085
      3          6           0       -4.229417   -1.726259    0.748084
      4          7           0       -4.701743   -2.945893    0.285325
      5          6           0       -5.999278   -2.775199    0.215059
      6          1           0       -6.707718   -3.535769   -0.114493
      7          7           0       -2.809110    0.008489    1.480403
      8          6           0       -3.913236    0.748759    1.623562
      9          1           0       -3.749480    1.762829    1.985652
     10          7           0       -5.183306    0.425964    1.387705
     11          6           0       -5.273499   -0.839786    0.947050
     12          6           0       -2.933276   -1.260916    1.035144
     13          7           0       -1.832278   -2.001430    0.891588
     14          1           0       -1.876960   -2.946168    0.564941
     15          1           0       -0.925750   -1.637335    1.105542
     16          1           0       -8.343645   -1.549452    1.266938
     17          1           0       -7.775070   -0.048740    0.969152
     18          1           0       -8.191789   -1.024043   -0.270695
     19          7           0       -3.139286    2.525813   -1.588597
     20          6           0       -1.790164    2.308284   -1.445022
     21          6           0       -3.820436    3.821649   -1.394858
     22          7           0        1.389307    3.504683   -0.722994
     23          1           0        2.319615    3.142571   -0.671601
     24          1           0        1.269220    4.477211   -0.521809
     25          7           0       -0.867541    3.234336   -1.105556
     26          6           0        0.348922    2.722070   -1.047054
     27          7           0        0.641581    1.404016   -1.301197
     28          1           0        1.600722    1.100198   -1.232607
     29          6           0       -0.291739    0.433642   -1.652132
     30          8           0        0.077173   -0.728785   -1.860463
     31          6           0       -1.603170    0.968969   -1.718997
     32          7           0       -2.810584    0.357967   -2.028358
     33          6           0       -3.691050    1.317606   -1.938509
     34          1           0       -4.760118    1.198248   -2.117766
     35          1           0       -4.499219    3.737630   -0.666163
     36          1           0       -3.146973    4.515425   -1.143066
     37          1           0       -4.274289    4.091678   -2.243335
     38          1           0        6.451727    0.084252   -0.097555
     39          1           0        6.665210    0.189016   -1.843437
     40          1           0        5.437905    1.172945   -1.045324
     41          1           0        4.751429   -4.207683   -1.452133
     42          6           0        4.434652   -3.164937   -1.428302
     43          8           0        2.136587   -3.664250   -1.739263
     44          6           0        3.046621   -2.851223   -1.579194
     45          1           0        1.783384   -1.242118   -1.637103
     46          7           0        2.753968   -1.503044   -1.534085
     47          8           0        3.284929    0.696163   -1.337189
     48          6           0        3.640191   -0.469073   -1.363673
     49          1           0        6.389520   -2.363766   -1.141190
     50          6           0        5.322886   -2.178275   -1.260486
     51          6           0        5.943468    0.218737   -1.040760
     52          7           0        4.959853   -0.851876   -1.225283
     53          1           0        4.058205    3.387543    3.506323
     54          1           0        2.873781    3.594533    2.403419
     55          1           0        4.437242    3.613432    1.935105
     56          1           0        1.632473   -3.208103    1.123282
     57          1           0        3.257854   -2.923149    1.555786
     58          7           0        2.342409   -2.555508    1.388367
     59          6           0        2.081039   -1.252730    1.513342
     60          6           0        2.620723    1.019057    1.970989
     61          7           0        1.382035    1.484519    1.739838
     62          1           0       -0.463776    0.780629    1.193828
     63          6           0        0.565353    0.489435    1.399647
     64          7           0        0.825224   -0.816034    1.273925
     65          1           0        5.757847    1.137012    2.743456
     66          6           0        4.750829    0.832380    2.457015
     67          7           0        4.391926   -0.400127    2.192813
     68          6           0        3.043606   -0.295847    1.883157
     69          6           0        3.778438    3.201138    2.564526
     70          7           0        3.728897    1.742998    2.342274
 ---------------------------------------------------------------------

 SCF Done:  E(RwB97XD) =  -2048.74889919     A.U. after   15 cycles

 The electronic state is 1-A.
 Alpha  occ. eigenvalues --  -19.25958 -19.22216 -19.20655 -14.52490 -14.51911
 Alpha  occ. eigenvalues --  -14.48818 -14.48695 -14.47917 -14.47156 -14.46904
 Alpha  occ. eigenvalues --  -14.46704 -14.44978 -14.43447 -14.43438 -14.42196
 Alpha  occ. eigenvalues --  -14.42055 -14.41427 -14.40999 -14.40766 -14.40210
 Alpha  occ. eigenvalues --  -10.45577 -10.41200 -10.40332 -10.39102 -10.38224
 Alpha  occ. eigenvalues --  -10.37937 -10.37496 -10.36508 -10.35426 -10.35240
 Alpha  occ. eigenvalues --  -10.35049 -10.34316 -10.34099 -10.33689 -10.33386
 Alpha  occ. eigenvalues --  -10.33224 -10.33156 -10.31925 -10.31199 -10.31082
 Alpha  occ. eigenvalues --  -10.30748 -10.28534 -10.28073  -1.19524  -1.14596
 Alpha  occ. eigenvalues --   -1.13238  -1.13217  -1.11381  -1.10543  -1.09381
 Alpha  occ. eigenvalues --   -1.08573  -1.08438  -1.05014  -1.04003  -1.02595
 Alpha  occ. eigenvalues --   -1.00455  -1.00401  -0.99768  -0.98543  -0.96999
 Alpha  occ. eigenvalues --   -0.96514  -0.96009  -0.92672  -0.91151  -0.87028
 Alpha  occ. eigenvalues --   -0.85457  -0.84051  -0.83988  -0.83678  -0.82411
 Alpha  occ. eigenvalues --   -0.82368  -0.78959  -0.76344  -0.74592  -0.74103
 Alpha  occ. eigenvalues --   -0.73675  -0.73448  -0.72925  -0.71094  -0.69732
 Alpha  occ. eigenvalues --   -0.67382  -0.66629  -0.66330  -0.66074  -0.64517
 Alpha  occ. eigenvalues --   -0.63772  -0.63573  -0.62736  -0.62694  -0.61734
 Alpha  occ. eigenvalues --   -0.60309  -0.60120  -0.59840  -0.59568  -0.59022
 Alpha  occ. eigenvalues --   -0.58902  -0.58382  -0.56681  -0.56551  -0.56409
 Alpha  occ. eigenvalues --   -0.56044  -0.55446  -0.54859  -0.54579  -0.54423
 Alpha  occ. eigenvalues --   -0.53660  -0.53657  -0.53030  -0.52936  -0.52804
 Alpha  occ. eigenvalues --   -0.52498  -0.52176  -0.51825  -0.50821  -0.50256
 Alpha  occ. eigenvalues --   -0.50170  -0.49530  -0.49395  -0.48966  -0.48873
 Alpha  occ. eigenvalues --   -0.48740  -0.48312  -0.48098  -0.47647  -0.47435
 Alpha  occ. eigenvalues --   -0.46999  -0.45573  -0.45008  -0.44235  -0.43783
 Alpha  occ. eigenvalues --   -0.41200  -0.40143  -0.39518  -0.37317  -0.37263
 Alpha  occ. eigenvalues --   -0.37226  -0.37047  -0.36791  -0.35997  -0.34247
 Alpha  occ. eigenvalues --   -0.34025  -0.33658  -0.33463  -0.33381  -0.33285
 Alpha  occ. eigenvalues --   -0.32684  -0.32363  -0.32091  -0.31824  -0.30966
 Alpha  occ. eigenvalues --   -0.30442  -0.29214  -0.25766  -0.25400
 Alpha virt. eigenvalues --    0.02825   0.04809   0.07355   0.07983   0.08860
 Alpha virt. eigenvalues --    0.09176   0.09677   0.10912   0.11094   0.11458
 Alpha virt. eigenvalues --    0.12836   0.14147   0.14567   0.14653   0.15003

 Mulliken charges:
               1
     1  N   -0.312015
     2  C    0.180560
     3  C    0.048403
     4  N   -0.258576
     5  C    0.133493
     6  H    0.026373
     7  N   -0.289482
     8  C    0.131648
     9  H    0.010507
    10  N   -0.291873
    11  C    0.237693
    12  C    0.115907
    13  N   -0.050561
    14  H    0.110265
    15  H    0.089751
    16  H    0.025938
    17  H    0.032990
    18  H    0.025163
    19  N   -0.309882
    20  C    0.250873
    21  C    0.180128
    22  N   -0.110073
    23  H    0.112281
    24  H    0.115242
    25  N   -0.304945
    26  C    0.233543
    27  N   -0.135517
    28  H    0.115952
    29  C    0.163210
    30  O   -0.321162
    31  C    0.005217
    32  N   -0.225333
    33  C    0.129495
    34  H    0.025057
    35  H    0.031567
    36  H    0.027693
    37  H    0.023539
    38  H    0.060728
    39  H    0.059908
    40  H    0.070594
    41  H    0.029397
    42  C   -0.117682
    43  O   -0.270645
    44  C    0.162418
    45  H    0.135586
    46  N   -0.123426
    47  O   -0.347255
    48  C    0.350435
    49  H    0.048669
    50  C    0.179769
    51  C    0.040587
    52  N   -0.285553
    53  H    0.034627
    54  H    0.038965
    55  H    0.023394
    56  H    0.127504
    57  H    0.114703
    58  N   -0.057903
    59  C    0.095526
    60  C    0.242433
    61  N   -0.270210
    62  H    0.039101
    63  C    0.167867
    64  N   -0.300433
    65  H    0.032347
    66  C    0.130556
    67  N   -0.263035
    68  C    0.012466
    69  C    0.177045
    70  N   -0.311550
 Sum of Mulliken charges =  -0.00000

 Dipole moment (field-independent basis, Debye):
    X=              7.6281    Y=              6.1747    Z=              2.3329  Tot=             10.0875
 Quadrupole moment (field-independent basis, Debye-Ang):
   XX=           -147.5961   YY=           -221.8799   ZZ=           -253.6743
   XY=              4.6335   XZ=              7.8154   YZ=             -6.6942

 Normal termination of Gaussian 16 at Tue Jan 23 10:20:51 2018.
