 Gaussian 16, Revision A.03,
 Gaussian 16:  EM64L-G16RevA.03 25-Dec-2016

 ---------------------------------------
 #p wb97xd/cc-pvdz sp scf=(maxcycles=20)
 ---------------------------------------

 ------------------
 Base pair stacking
 ------------------
 Symbolic Z-matrix:
 Charge =  0 Multiplicity = 1

                         Standard orientation:
 ---------------------------------------------------------------------
 Center     Atomic      Atomic             Coordinates (Angstroms)
 Number     Number       Type             X           Y           Z
 ---------------------------------------------------------------------
      1          7           0       -6.854284   -1.364955    0.338459
      2          6           0       -8.199410   -0.812107    0.087499
      3          6           0       -4.699989   -1.568028    0.732282
      4          7           0       -5.203898   -2.858370    0.656061
      5          6           0       -6.481612   -2.684394    0.421853
      6          1           0       -7.205067   -3.491055    0.299992
      7          7           0       -3.243212    0.270936    0.975103
      8          6           0       -4.312456    1.047390    0.771608
      9          1           0       -4.119860    2.119153    0.793871
     10          7           0       -5.577944    0.700338    0.545810
     11          6           0       -5.705444   -0.636865    0.538534
     12          6           0       -3.404405   -1.070300    0.961757
     13          7           0       -2.338264   -1.847047    1.164689
     14          1           0       -2.411039   -2.845012    1.163330
     15          1           0       -1.430953   -1.458137    1.324915
     16          1           0       -8.825033   -1.114319    0.806841
     17          1           0       -8.154807    0.186459    0.083737
     18          1           0       -8.533706   -1.132472   -0.798849
     19          7           0       -2.681463    2.257950   -1.606239
     20          6           0       -1.345760    2.051111   -1.358925
     21          6           0       -3.403933    3.526912   -1.386046
     22          7           0        1.732810    3.241736   -0.278859
     23          1           0        2.662465    2.890838   -0.170029
     24          1           0        1.575269    4.196055   -0.023559
     25          7           0       -0.475889    2.964998   -0.877090
     26          6           0        0.741293    2.468098   -0.746071
     27          7           0        1.082578    1.175377   -1.062162
     28          1           0        2.038223    0.881859   -0.929739
     29          6           0        0.203977    0.217921   -1.559360
     30          8           0        0.613931   -0.921609   -1.812623
     31          6           0       -1.107542    0.736984   -1.705535
     32          7           0       -2.270291    0.131017   -2.161280
     33          6           0       -3.175163    1.068869   -2.084788
     34          1           0       -4.221766    0.946330   -2.365640
     35          1           0       -4.141798    3.382385   -0.727669
     36          1           0       -2.769701    4.211485   -1.029162
     37          1           0       -3.787570    3.848413   -2.251079
     38          1           0        6.791903   -0.138042    0.558584
     39          1           0        7.154671    0.090878   -1.150411
     40          1           0        5.842051    0.998607   -0.399126
     41          1           0        5.306610   -4.350414   -1.229271
     42          6           0        4.967179   -3.316675   -1.162852
     43          8           0        2.715984   -3.827385   -1.709125
     44          6           0        3.591332   -3.013965   -1.414359
     45          1           0        2.304535   -1.423721   -1.474498
     46          7           0        3.267675   -1.676685   -1.303934
     47          8           0        3.733236    0.511206   -0.912050
     48          6           0        4.113785   -0.643951   -0.985995
     49          1           0        6.872317   -2.508326   -0.650175
     50          6           0        5.816503   -2.330930   -0.850527
     51          6           0        6.365177    0.054024   -0.414608
     52          7           0        5.424071   -1.015732   -0.757666
     53          1           0        3.634816    3.936878    2.366446
     54          1           0        2.546446    3.799818    1.158649
     55          1           0        4.138356    3.618754    0.847016
     56          1           0        1.029105   -3.005202    2.077778
     57          1           0        2.632131   -2.638627    2.531687
     58          7           0        1.752788   -2.321770    2.174522
     59          6           0        1.555035   -1.044392    1.842302
     60          6           0        2.184205    1.234676    1.574517
     61          7           0        0.992937    1.631721    1.097378
     62          1           0       -0.844421    0.838598    0.655007
     63          6           0        0.149569    0.603379    1.033063
     64          7           0        0.345729   -0.676740    1.365330
     65          1           0        5.258962    1.514110    2.533655
     66          6           0        4.260083    1.160065    2.277047
     67          7           0        3.854070   -0.079813    2.401641
     68          6           0        2.539441   -0.046346    1.959619
     69          6           0        3.414095    3.456877    1.517398
     70          7           0        3.300715    2.009451    1.782183
 ---------------------------------------------------------------------

 SCF Done:  E(RwB97XD) =  -2048.60650427     A.U. after   15 cycles

 The electronic state is 1-A.
 Alpha  occ. eigenvalues --  -19.25938 -19.21912 -19.20474 -14.52437 -14.52103
 Alpha  occ. eigenvalues --  -14.49494 -14.48555 -14.47903 -14.47421 -14.45823
 Alpha  occ. eigenvalues --  -14.45092 -14.45005 -14.43601 -14.43000 -14.42265
 Alpha  occ. eigenvalues --  -14.42169 -14.41890 -14.41795 -14.40904 -14.40578
 Alpha  occ. eigenvalues --  -10.45540 -10.41339 -10.40045 -10.39141 -10.38001
 Alpha  occ. eigenvalues --  -10.37742 -10.37624 -10.36532 -10.36215 -10.35460
 Alpha  occ. eigenvalues --  -10.34818 -10.34777 -10.34218 -10.34168 -10.33930
 Alpha  occ. eigenvalues --  -10.33398 -10.32977 -10.31967 -10.31540 -10.31045
 Alpha  occ. eigenvalues --  -10.30626 -10.29338 -10.27928  -1.19520  -1.15208
 Alpha  occ. eigenvalues --   -1.13463  -1.12957  -1.12101  -1.10473  -1.09344
 Alpha  occ. eigenvalues --   -1.09311  -1.08343  -1.05780  -1.04045  -1.02508
 Alpha  occ. eigenvalues --   -1.01643  -1.01253  -0.99554  -0.98532  -0.97698
 Alpha  occ. eigenvalues --   -0.96608  -0.96084  -0.93443  -0.91027  -0.87511
 Alpha  occ. eigenvalues --   -0.86286  -0.84694  -0.83917  -0.83754  -0.83019
 Alpha  occ. eigenvalues --   -0.82409  -0.78864  -0.76834  -0.75205  -0.74375
 Alpha  occ. eigenvalues --   -0.73758  -0.73619  -0.73370  -0.71902  -0.70181
 Alpha  occ. eigenvalues --   -0.67731  -0.67082  -0.66811  -0.66486  -0.64452
 Alpha  occ. eigenvalues --   -0.64114  -0.63748  -0.63497  -0.62994  -0.62564
 Alpha  occ. eigenvalues --   -0.61022  -0.60674  -0.60196  -0.59653  -0.59502
 Alpha  occ. eigenvalues --   -0.59238  -0.58335  -0.57522  -0.57141  -0.57044
 Alpha  occ. eigenvalues --   -0.56466  -0.55999  -0.55664  -0.54554  -0.54382
 Alpha  occ. eigenvalues --   -0.53943  -0.53442  -0.53162  -0.52819  -0.52702
 Alpha  occ. eigenvalues --   -0.52422  -0.52406  -0.51672  -0.51499  -0.50841
 Alpha  occ. eigenvalues --   -0.49960  -0.49926  -0.49547  -0.49410  -0.48797
 Alpha  occ. eigenvalues --   -0.48587  -0.48381  -0.48126  -0.47854  -0.47523
 Alpha  occ. eigenvalues --   -0.47293  -0.46145  -0.45653  -0.43948  -0.42750
 Alpha  occ. eigenvalues --   -0.41991  -0.39766  -0.39514  -0.37986  -0.37561
 Alpha  occ. eigenvalues --   -0.37251  -0.37163  -0.36384  -0.35855  -0.35060
 Alpha  occ. eigenvalues --   -0.34322  -0.34180  -0.33397  -0.33099  -0.32553
 Alpha  occ. eigenvalues --   -0.32220  -0.31912  -0.31738  -0.31623  -0.31294
 Alpha  occ. eigenvalues --   -0.30547  -0.27701  -0.26588  -0.25244
 Alpha virt. eigenvalues --    0.03163   0.03892   0.07122   0.07477   0.08519
 Alpha virt. eigenvalues --    0.09078   0.09262   0.10172   0.11582   0.12257
 Alpha virt. eigenvalues --    0.12968   0.13574   0.14125   0.14408   0.14867

 Mulliken charges:
               1
     1  N   -0.312759
     2  C    0.180589
     3  C    0.039848
     4  N   -0.259695
     5  C    0.135096
     6  H    0.029027
     7  N   -0.280377
     8  C    0.116900
     9  H    0.014276
    10  N   -0.285856
    11  C    0.242537
    12  C    0.118568
    13  N   -0.055447
    14  H    0.107258
    15  H    0.087560
    16  H    0.026959
    17  H    0.034257
    18  H    0.027710
    19  N   -0.300767
    20  C    0.218317
    21  C    0.180426
    22  N   -0.076324
    23  H    0.087131
    24  H    0.108258
    25  N   -0.269675
    26  C    0.202278
    27  N   -0.109909
    28  H    0.122712
    29  C    0.123522
    30  O   -0.317976
    31  C    0.023216
    32  N   -0.218693
    33  C    0.118742
    34  H    0.027924
    35  H    0.025200
    36  H    0.026741
    37  H    0.024339
    38  H    0.061131
    39  H    0.061835
    40  H    0.069846
    41  H    0.031457
    42  C   -0.112775
    43  O   -0.264615
    44  C    0.179932
    45  H    0.135301
    46  N   -0.137051
    47  O   -0.349575
    48  C    0.362856
    49  H    0.047362
    50  C    0.174214
    51  C    0.039344
    52  N   -0.292802
    53  H    0.029576
    54  H    0.005995
    55  H    0.022771
    56  H    0.120745
    57  H    0.117365
    58  N   -0.069464
    59  C    0.119486
    60  C    0.237167
    61  N   -0.281979
    62  H    0.079791
    63  C    0.163928
    64  N   -0.300852
    65  H    0.030154
    66  C    0.130180
    67  N   -0.260468
    68  C    0.015163
    69  C    0.193555
    70  N   -0.321487
 Sum of Mulliken charges =  -0.00000

 Dipole moment (field-independent basis, Debye):
    X=              6.5077    Y=              5.4717    Z=              4.0537  Tot=              9.4192
 Quadrupole moment (field-independent basis, Debye-Ang):
   XX=           -143.9966   YY=           -226.6619   ZZ=           -255.6452
   XY=              7.7246   XZ=             11.8516   YZ=            -12.3565

 Normal termination of Gaussian 16 at Tue Jan 23 07:14:29 2018.
