 Gaussian 16, Revision A.03,
 Gaussian 16:  EM64L-G16RevA.03 25-Dec-2016

 ---------------------------------------
 #p wb97xd/cc-pvdz sp scf=(maxcycles=20)
 ---------------------------------------

 ------------------
 Base pair stacking
 ------------------
 Symbolic Z-matrix:
 Charge =  0 Multiplicity = 1

                         Standard orientation:
 ---------------------------------------------------------------------
 Center     Atomic      Atomic             Coordinates (Angstroms)
 Number     Number       Type             X           Y           Z
 ---------------------------------------------------------------------
      1          7           0        4.889919   -1.810430   -1.608647
      2          6           0        6.272055   -1.346864   -1.838431
      3          6           0        2.700043   -1.895657   -1.422873
      4          7           0        3.165817   -3.164236   -1.109019
      5          6           0        4.466489   -3.062111   -1.233507
      6          1           0        5.171517   -3.876089   -1.062246
      7          7           0        1.287842   -0.049888   -1.825046
      8          6           0        2.398207    0.643172   -2.097710
      9          1           0        2.240274    1.685277   -2.372179
     10          7           0        3.668401    0.244086   -2.082294
     11          6           0        3.751148   -1.050339   -1.732948
     12          6           0        1.404593   -1.349923   -1.476691
     13          7           0        0.297358   -2.043410   -1.204139
     14          1           0        0.336439   -3.008294   -0.942063
     15          1           0       -0.608460   -1.622351   -1.252608
     16          1           0        6.689145   -1.887238   -2.569325
     17          1           0        6.261535   -0.382845   -2.102394
     18          1           0        6.805960   -1.455294   -0.999866
     19          7           0        4.772773    2.248726    0.976558
     20          6           0        3.407668    2.110026    1.049302
     21          6           0        5.487523    3.498092    0.646539
     22          7           0        0.227294    3.482562    0.798105
     23          1           0       -0.718612    3.175996    0.900725
     24          1           0        0.369320    4.442716    0.555922
     25          7           0        2.497238    3.083933    0.833256
     26          6           0        1.259555    2.644513    0.977019
     27          7           0        0.936074    1.350712    1.307080
     28          1           0       -0.037647    1.103765    1.395681
     29          6           0        1.856336    0.332118    1.533925
     30          8           0        1.459308   -0.802546    1.826573
     31          6           0        3.190267    0.788998    1.383125
     32          7           0        4.394663    0.111984    1.517264
     33          6           0        5.303163    1.015583    1.267583
     34          1           0        6.378621    0.835414    1.282080
     35          1           0        6.038363    3.361598   -0.176111
     36          1           0        4.823355    4.226694    0.484438
     37          1           0        6.082828    3.754410    1.407277
     38          1           0       -5.055991    0.361492    1.052127
     39          1           0       -4.987989    0.507598    2.806745
     40          1           0       -3.846664    1.403002    1.803241
     41          1           0       -3.410605   -4.001633    2.236384
     42          6           0       -3.042960   -2.980252    2.137085
     43          8           0       -0.756500   -3.611056    2.101000
     44          6           0       -1.632888   -2.747755    2.063081
     45          1           0       -0.287126   -1.216422    1.883406
     46          7           0       -1.275076   -1.420451    1.938685
     47          8           0       -1.705001    0.803056    1.770194
     48          6           0       -2.117112   -0.338216    1.881206
     49          1           0       -4.970181   -2.068325    2.135840
     50          6           0       -3.889241   -1.945091    2.083684
     51          6           0       -4.399901    0.480829    1.901470
     52          7           0       -3.461707   -0.643561    1.958737
     53          1           0       -5.600030    3.784680   -2.556884
     54          1           0       -4.250355    3.861926   -1.643380
     55          1           0       -5.719637    3.927035   -0.935516
     56          1           0       -3.226343   -3.061668   -0.957331
     57          1           0       -4.879408   -2.670255   -1.113092
     58          7           0       -3.929241   -2.359400   -1.070843
     59          6           0       -3.614587   -1.065622   -1.161936
     60          6           0       -4.084632    1.254629   -1.401148
     61          7           0       -2.800131    1.643062   -1.341232
     62          1           0       -0.936645    0.815963   -1.131592
     63          6           0       -2.000384    0.589347   -1.189601
     64          7           0       -2.313606   -0.707233   -1.098157
     65          1           0       -7.290844    1.575489   -1.664577
     66          6           0       -6.271314    1.204114   -1.557044
     67          7           0       -5.948649   -0.058935   -1.421928
     68          6           0       -4.565019   -0.040939   -1.322053
     69          6           0       -5.190420    3.524457   -1.682533
     70          7           0       -5.192511    2.054347   -1.552966
 ---------------------------------------------------------------------

 SCF Done:  E(RwB97XD) =  -2048.75114274     A.U. after   15 cycles

 The electronic state is 1-A.
 Alpha  occ. eigenvalues --  -19.25479 -19.21694 -19.20507 -14.52678 -14.52098
 Alpha  occ. eigenvalues --  -14.48848 -14.48587 -14.48199 -14.47407 -14.46751
 Alpha  occ. eigenvalues --  -14.46561 -14.45656 -14.44654 -14.44564 -14.42469
 Alpha  occ. eigenvalues --  -14.41991 -14.41086 -14.40821 -14.40780 -14.40307
 Alpha  occ. eigenvalues --  -10.45094 -10.41179 -10.40320 -10.39800 -10.38211
 Alpha  occ. eigenvalues --  -10.38157 -10.37582 -10.37461 -10.36135 -10.35414
 Alpha  occ. eigenvalues --  -10.34561 -10.34381 -10.34035 -10.33573 -10.33522
 Alpha  occ. eigenvalues --  -10.33004 -10.32945 -10.32908 -10.30977 -10.30794
 Alpha  occ. eigenvalues --  -10.30532 -10.28213 -10.28134  -1.19072  -1.15440
 Alpha  occ. eigenvalues --   -1.13127  -1.12700  -1.10825  -1.10603  -1.09664
 Alpha  occ. eigenvalues --   -1.08960  -1.08484  -1.05141  -1.04950  -1.02077
 Alpha  occ. eigenvalues --   -1.01213  -1.00380  -0.99647  -0.98513  -0.97194
 Alpha  occ. eigenvalues --   -0.96646  -0.96505  -0.92652  -0.90760  -0.87879
 Alpha  occ. eigenvalues --   -0.86104  -0.84155  -0.83550  -0.83192  -0.82535
 Alpha  occ. eigenvalues --   -0.81954  -0.78566  -0.77319  -0.75116  -0.74624
 Alpha  occ. eigenvalues --   -0.73565  -0.72984  -0.72695  -0.70855  -0.70660
 Alpha  occ. eigenvalues --   -0.67340  -0.67098  -0.66204  -0.66094  -0.64511
 Alpha  occ. eigenvalues --   -0.64323  -0.63626  -0.62587  -0.62545  -0.61740
 Alpha  occ. eigenvalues --   -0.60855  -0.60603  -0.60416  -0.59589  -0.59260
 Alpha  occ. eigenvalues --   -0.59042  -0.58277  -0.56742  -0.56389  -0.55812
 Alpha  occ. eigenvalues --   -0.55754  -0.55567  -0.55336  -0.54482  -0.54084
 Alpha  occ. eigenvalues --   -0.53861  -0.53565  -0.53476  -0.53038  -0.52949
 Alpha  occ. eigenvalues --   -0.52789  -0.52055  -0.51446  -0.50396  -0.50254
 Alpha  occ. eigenvalues --   -0.50103  -0.49864  -0.49438  -0.49192  -0.48778
 Alpha  occ. eigenvalues --   -0.48697  -0.48312  -0.48198  -0.47742  -0.47181
 Alpha  occ. eigenvalues --   -0.46680  -0.45765  -0.45356  -0.44476  -0.43237
 Alpha  occ. eigenvalues --   -0.40994  -0.40953  -0.39130  -0.37921  -0.37873
 Alpha  occ. eigenvalues --   -0.37334  -0.37268  -0.36837  -0.35674  -0.35030
 Alpha  occ. eigenvalues --   -0.34616  -0.33986  -0.33272  -0.33188  -0.32862
 Alpha  occ. eigenvalues --   -0.32632  -0.32485  -0.31999  -0.31857  -0.30575
 Alpha  occ. eigenvalues --   -0.30307  -0.29977  -0.25714  -0.25441
 Alpha virt. eigenvalues --    0.03134   0.03905   0.06390   0.08196   0.09065
 Alpha virt. eigenvalues --    0.09316   0.09764   0.10263   0.11133   0.11917
 Alpha virt. eigenvalues --    0.13066   0.14282   0.14552   0.14698   0.14804

 Mulliken charges:
               1
     1  N   -0.310018
     2  C    0.181214
     3  C    0.057277
     4  N   -0.259020
     5  C    0.144645
     6  H    0.026588
     7  N   -0.293355
     8  C    0.130113
     9  H    0.011580
    10  N   -0.283606
    11  C    0.253451
    12  C    0.090722
    13  N   -0.060655
    14  H    0.113896
    15  H    0.082977
    16  H    0.023421
    17  H    0.028889
    18  H    0.027493
    19  N   -0.306936
    20  C    0.259221
    21  C    0.181799
    22  N   -0.121771
    23  H    0.118977
    24  H    0.117193
    25  N   -0.310588
    26  C    0.244707
    27  N   -0.138394
    28  H    0.115234
    29  C    0.187445
    30  O   -0.321988
    31  C   -0.015761
    32  N   -0.227499
    33  C    0.121306
    34  H    0.019800
    35  H    0.027957
    36  H    0.029544
    37  H    0.023770
    38  H    0.066007
    39  H    0.058344
    40  H    0.074971
    41  H    0.024621
    42  C   -0.116491
    43  O   -0.266099
    44  C    0.171750
    45  H    0.131104
    46  N   -0.123306
    47  O   -0.344602
    48  C    0.346516
    49  H    0.043453
    50  C    0.167212
    51  C    0.036312
    52  N   -0.277052
    53  H    0.034745
    54  H    0.039852
    55  H    0.029422
    56  H    0.121760
    57  H    0.116268
    58  N   -0.057441
    59  C    0.096063
    60  C    0.241626
    61  N   -0.271359
    62  H    0.028334
    63  C    0.176695
    64  N   -0.313319
    65  H    0.038818
    66  C    0.132814
    67  N   -0.257154
    68  C    0.004386
    69  C    0.181462
    70  N   -0.305335
 Sum of Mulliken charges =  -0.00000

 Dipole moment (field-independent basis, Debye):
    X=             -7.7002    Y=              6.9045    Z=             -1.5754  Tot=             10.4616
 Quadrupole moment (field-independent basis, Debye-Ang):
   XX=           -156.7714   YY=           -221.1456   ZZ=           -253.9978
   XY=              0.9746   XZ=            -11.0560   YZ=              8.5113

 Normal termination of Gaussian 16 at Mon Jan 22 19:11:12 2018.
