 Gaussian 16, Revision A.03,
 Gaussian 16:  EM64L-G16RevA.03 25-Dec-2016

 ---------------------------------------
 #p wb97xd/cc-pvdz sp scf=(maxcycles=20)
 ---------------------------------------

 ------------------
 Base pair stacking
 ------------------
 Symbolic Z-matrix:
 Charge =  0 Multiplicity = 1

                         Standard orientation:
 ---------------------------------------------------------------------
 Center     Atomic      Atomic             Coordinates (Angstroms)
 Number     Number       Type             X           Y           Z
 ---------------------------------------------------------------------
      1          7           0       -6.427270   -1.544845    0.570451
      2          6           0       -7.806494   -1.028063    0.663582
      3          6           0       -4.240061   -1.744381    0.687174
      4          7           0       -4.709133   -2.929199    0.138607
      5          6           0       -6.008067   -2.761569    0.090247
      6          1           0       -6.714753   -3.499858   -0.289812
      7          7           0       -2.823869   -0.060150    1.536108
      8          6           0       -3.930926    0.660842    1.741439
      9          1           0       -3.770046    1.646273    2.176528
     10          7           0       -5.200927    0.348793    1.491175
     11          6           0       -5.287462   -0.881359    0.958571
     12          6           0       -2.944396   -1.293816    0.998873
     13          7           0       -1.840458   -2.015051    0.793154
     14          1           0       -1.882397   -2.933245    0.397707
     15          1           0       -0.934376   -1.662369    1.027159
     16          1           0       -8.351245   -1.631173    1.246402
     17          1           0       -7.793093   -0.109146    1.056701
     18          1           0       -8.213649   -0.992423   -0.249085
     19          7           0       -3.114586    2.600857   -1.575475
     20          6           0       -1.765468    2.376225   -1.443302
     21          6           0       -3.786097    3.902142   -1.384586
     22          7           0        1.427913    3.558575   -0.760583
     23          1           0        2.356503    3.191230   -0.715511
     24          1           0        1.315577    4.533231   -0.565297
     25          7           0       -0.834104    3.299114   -1.119444
     26          6           0        0.379789    2.779944   -1.068937
     27          7           0        0.662122    1.458358   -1.316323
     28          1           0        1.620046    1.149257   -1.254761
     29          6           0       -0.280319    0.491138   -1.651232
     30          8           0        0.079622   -0.674964   -1.854663
     31          6           0       -1.589119    1.033873   -1.709359
     32          7           0       -2.803091    0.427964   -2.002658
     33          6           0       -3.676911    1.393521   -1.911304
     34          1           0       -4.748351    1.279339   -2.079411
     35          1           0       -4.458300    3.827462   -0.648812
     36          1           0       -3.106105    4.593625   -1.144326
     37          1           0       -4.246499    4.168788   -2.230599
     38          1           0        6.475642    0.112234   -0.159072
     39          1           0        6.672863    0.203153   -1.907633
     40          1           0        5.459214    1.200184   -1.104919
     41          1           0        4.736766   -4.178977   -1.466110
     42          6           0        4.426453   -3.134202   -1.446780
     43          8           0        2.122557   -3.621858   -1.732000
     44          6           0        3.038922   -2.813202   -1.586596
     45          1           0        1.784815   -1.196966   -1.644011
     46          7           0        2.754777   -1.463003   -1.548436
     47          8           0        3.300726    0.734321   -1.372607
     48          6           0        3.648757   -0.433190   -1.394051
     49          1           0        6.388744   -2.342795   -1.184298
     50          6           0        5.322132   -2.151745   -1.294662
     51          6           0        5.959104    0.243001   -1.098306
     52          7           0        4.967383   -0.822951   -1.265593
     53          1           0        4.039697    3.200693    3.758888
     54          1           0        2.846020    3.481692    2.682650
     55          1           0        4.405836    3.544607    2.206115
     56          1           0        1.632463   -3.214758    0.910586
     57          1           0        3.259413   -2.952882    1.351669
     58          7           0        2.340756   -2.579357    1.218350
     59          6           0        2.073205   -1.290996    1.441347
     60          6           0        2.603836    0.943848    2.062323
     61          7           0        1.360952    1.417719    1.874954
     62          1           0       -0.484970    0.745138    1.291170
     63          6           0        0.547223    0.445677    1.467662
     64          7           0        0.813292   -0.845303    1.243724
     65          1           0        5.745906    1.023080    2.819482
     66          6           0        4.738473    0.734467    2.518289
     67          7           0        4.384372   -0.477213    2.165987
     68          6           0        3.033245   -0.358379    1.874331
     69          6           0        3.753979    3.082872    2.807836
     70          7           0        3.710763    1.644940    2.478490
 ---------------------------------------------------------------------

 SCF Done:  E(RwB97XD) =  -2048.74854597     A.U. after   15 cycles

 The electronic state is 1-A.
 Alpha  occ. eigenvalues --  -19.26012 -19.22336 -19.20714 -14.52563 -14.51829
 Alpha  occ. eigenvalues --  -14.48754 -14.48743 -14.47965 -14.47001 -14.46923
 Alpha  occ. eigenvalues --  -14.46826 -14.44915 -14.43407 -14.43343 -14.42113
 Alpha  occ. eigenvalues --  -14.42061 -14.41346 -14.40895 -14.40825 -14.40116
 Alpha  occ. eigenvalues --  -10.45639 -10.41302 -10.40463 -10.38974 -10.38295
 Alpha  occ. eigenvalues --  -10.38043 -10.37429 -10.36427 -10.35319 -10.35289
 Alpha  occ. eigenvalues --  -10.34949 -10.34379 -10.34020 -10.33559 -10.33300
 Alpha  occ. eigenvalues --  -10.33277 -10.33061 -10.31863 -10.31278 -10.31023
 Alpha  occ. eigenvalues --  -10.30811 -10.28443 -10.28137  -1.19582  -1.14518
 Alpha  occ. eigenvalues --   -1.13374  -1.13284  -1.11302  -1.10601  -1.09455
 Alpha  occ. eigenvalues --   -1.08644  -1.08333  -1.04916  -1.03896  -1.02673
 Alpha  occ. eigenvalues --   -1.00347  -1.00305  -0.99863  -0.98605  -0.96912
 Alpha  occ. eigenvalues --   -0.96574  -0.95905  -0.92569  -0.91242  -0.86933
 Alpha  occ. eigenvalues --   -0.85347  -0.84117  -0.83909  -0.83740  -0.82474
 Alpha  occ. eigenvalues --   -0.82289  -0.79046  -0.76242  -0.74657  -0.73998
 Alpha  occ. eigenvalues --   -0.73751  -0.73527  -0.72832  -0.71000  -0.69622
 Alpha  occ. eigenvalues --   -0.67461  -0.66711  -0.66234  -0.65959  -0.64596
 Alpha  occ. eigenvalues --   -0.63841  -0.63448  -0.62756  -0.62625  -0.61815
 Alpha  occ. eigenvalues --   -0.60214  -0.60082  -0.59735  -0.59636  -0.58989
 Alpha  occ. eigenvalues --   -0.58788  -0.58478  -0.56649  -0.56480  -0.56381
 Alpha  occ. eigenvalues --   -0.56107  -0.55339  -0.54757  -0.54578  -0.54474
 Alpha  occ. eigenvalues --   -0.53728  -0.53634  -0.53013  -0.52978  -0.52796
 Alpha  occ. eigenvalues --   -0.52561  -0.52093  -0.51748  -0.50736  -0.50247
 Alpha  occ. eigenvalues --   -0.50170  -0.49614  -0.49329  -0.49104  -0.48982
 Alpha  occ. eigenvalues --   -0.48662  -0.48363  -0.48039  -0.47658  -0.47504
 Alpha  occ. eigenvalues --   -0.46915  -0.45586  -0.44950  -0.44307  -0.43702
 Alpha  occ. eigenvalues --   -0.41100  -0.40035  -0.39575  -0.37338  -0.37302
 Alpha  occ. eigenvalues --   -0.37131  -0.36921  -0.36757  -0.36056  -0.34239
 Alpha  occ. eigenvalues --   -0.34057  -0.33602  -0.33499  -0.33353  -0.33258
 Alpha  occ. eigenvalues --   -0.32738  -0.32416  -0.32201  -0.31875  -0.30881
 Alpha  occ. eigenvalues --   -0.30348  -0.29149  -0.25661  -0.25487
 Alpha virt. eigenvalues --    0.02687   0.04900   0.07363   0.08072   0.08868
 Alpha virt. eigenvalues --    0.09090   0.09651   0.11009   0.11174   0.11609
 Alpha virt. eigenvalues --    0.12808   0.14160   0.14610   0.14654   0.15245

 Mulliken charges:
               1
     1  N   -0.311908
     2  C    0.180580
     3  C    0.047812
     4  N   -0.258030
     5  C    0.132974
     6  H    0.026004
     7  N   -0.291122
     8  C    0.131896
     9  H    0.010304
    10  N   -0.291971
    11  C    0.237159
    12  C    0.115611
    13  N   -0.049688
    14  H    0.110828
    15  H    0.090690
    16  H    0.025817
    17  H    0.033189
    18  H    0.024726
    19  N   -0.311045
    20  C    0.251615
    21  C    0.180351
    22  N   -0.115727
    23  H    0.112636
    24  H    0.116086
    25  N   -0.306897
    26  C    0.239323
    27  N   -0.137996
    28  H    0.115698
    29  C    0.168431
    30  O   -0.321701
    31  C    0.002095
    32  N   -0.225559
    33  C    0.130705
    34  H    0.025694
    35  H    0.031597
    36  H    0.027993
    37  H    0.023771
    38  H    0.060906
    39  H    0.059819
    40  H    0.071203
    41  H    0.029519
    42  C   -0.117463
    43  O   -0.272905
    44  C    0.154762
    45  H    0.136349
    46  N   -0.119750
    47  O   -0.347674
    48  C    0.350434
    49  H    0.049249
    50  C    0.181797
    51  C    0.040849
    52  N   -0.285261
    53  H    0.033803
    54  H    0.040818
    55  H    0.022963
    56  H    0.128272
    57  H    0.113575
    58  N   -0.054279
    59  C    0.093037
    60  C    0.243756
    61  N   -0.270042
    62  H    0.038968
    63  C    0.167338
    64  N   -0.300308
    65  H    0.032019
    66  C    0.131533
    67  N   -0.264202
    68  C    0.012708
    69  C    0.178203
    70  N   -0.311940
 Sum of Mulliken charges =  -0.00000

 Dipole moment (field-independent basis, Debye):
    X=              7.7822    Y=              6.2392    Z=              2.0845  Tot=             10.1899
 Quadrupole moment (field-independent basis, Debye-Ang):
   XX=           -147.5343   YY=           -221.6372   ZZ=           -252.8603
   XY=              4.1678   XZ=              8.1284   YZ=             -5.2547

 Normal termination of Gaussian 16 at Mon Jan 22 21:43:02 2018.
