 Gaussian 16, Revision A.03,
 Gaussian 16:  EM64L-G16RevA.03 25-Dec-2016

 ---------------------------------------
 #p wb97xd/cc-pvdz sp scf=(maxcycles=20)
 ---------------------------------------

 ------------------
 Base pair stacking
 ------------------
 Symbolic Z-matrix:
 Charge =  0 Multiplicity = 1

                         Standard orientation:
 ---------------------------------------------------------------------
 Center     Atomic      Atomic             Coordinates (Angstroms)
 Number     Number       Type             X           Y           Z
 ---------------------------------------------------------------------
      1          7           0       -7.221497   -1.337752    0.038026
      2          6           0       -8.599203   -0.813061    0.106150
      3          6           0       -5.044758   -1.574349    0.245661
      4          7           0       -5.495653   -2.702665   -0.423897
      5          6           0       -6.789022   -2.514967   -0.522194
      6          1           0       -7.481920   -3.209545   -0.997995
      7          7           0       -3.658856    0.014184    1.303394
      8          6           0       -4.768666    0.729419    1.513970
      9          1           0       -4.621524    1.672572    2.038441
     10          7           0       -6.027040    0.455806    1.175532
     11          6           0       -6.097108   -0.723925    0.536984
     12          6           0       -3.762663   -1.168221    0.658242
     13          7           0       -2.655955   -1.883624    0.447097
     14          1           0       -2.685727   -2.764649   -0.026322
     15          1           0       -1.759855   -1.563501    0.754771
     16          1           0       -9.177795   -1.456094    0.608058
     17          1           0       -8.597800    0.069244    0.575899
     18          1           0       -8.959466   -0.695489   -0.819260
     19          7           0       -2.156576    2.678627   -1.732823
     20          6           0       -0.824564    2.412364   -1.525694
     21          6           0       -2.779689    4.015952   -1.669774
     22          7           0        2.385788    3.518259   -0.796046
     23          1           0        3.295463    3.119514   -0.683187
     24          1           0        2.306920    4.508692   -0.679766
     25          7           0        0.131127    3.320399   -1.232153
     26          6           0        1.318997    2.759691   -1.090078
     27          7           0        1.555023    1.412964   -1.224757
     28          1           0        2.495786    1.072379   -1.098590
     29          6           0        0.586843    0.460349   -1.526452
     30          8           0        0.905140   -0.731108   -1.625697
     31          6           0       -0.694464    1.047656   -1.682011
     32          7           0       -1.920136    0.468785   -1.981244
     33          6           0       -2.755379    1.471875   -2.000861
     34          1           0       -3.823049    1.386989   -2.206215
     35          1           0       -3.483547    4.024442   -0.960319
     36          1           0       -2.081354    4.696825   -1.452983
     37          1           0       -3.193973    4.234430   -2.552639
     38          1           0        7.255187   -0.065882    0.281702
     39          1           0        7.526359   -0.117641   -1.458543
     40          1           0        6.324531    0.984834   -0.786590
     41          1           0        5.390769   -4.373868   -0.772704
     42          6           0        5.124316   -3.319395   -0.845586
     43          8           0        2.815249   -3.737282   -1.192956
     44          6           0        3.758326   -2.956212   -1.069238
     45          1           0        2.576910   -1.301485   -1.302550
     46          7           0        3.530129   -1.597019   -1.145225
     47          8           0        4.160832    0.584326   -1.111831
     48          6           0        4.459839   -0.594061   -1.030180
     49          1           0        7.106103   -2.587303   -0.558551
     50          6           0        6.053817   -2.363840   -0.729167
     51          6           0        6.782889    0.012227   -0.686233
     52          7           0        5.754599   -1.023931   -0.815649
     53          1           0        3.111423    2.988288    4.131875
     54          1           0        1.976025    3.374151    3.025498
     55          1           0        3.558378    3.457018    2.633898
     56          1           0        0.796229   -3.133248    0.634412
     57          1           0        2.401027   -2.930250    1.176173
     58          7           0        1.493509   -2.535117    1.029624
     59          6           0        1.226055   -1.266797    1.347464
     60          6           0        1.743767    0.900857    2.181111
     61          7           0        0.516009    1.404666    1.973213
     62          1           0       -1.303788    0.807286    1.243784
     63          6           0       -0.284404    0.480857    1.445193
     64          7           0       -0.018421   -0.789984    1.126125
     65          1           0        4.844189    0.875891    3.097035
     66          6           0        3.850807    0.626562    2.722916
     67          7           0        3.504591   -0.546524    2.252081
     68          6           0        2.170961   -0.386295    1.904956
     69          6           0        2.873072    2.954633    3.161280
     70          7           0        2.834237    1.550211    2.709531
 ---------------------------------------------------------------------

 SCF Done:  E(RwB97XD) =  -2048.74601111     A.U. after   15 cycles

 The electronic state is 1-A.
 Alpha  occ. eigenvalues --  -19.26152 -19.22674 -19.20991 -14.52746 -14.50883
 Alpha  occ. eigenvalues --  -14.49062 -14.48950 -14.48286 -14.47381 -14.47353
 Alpha  occ. eigenvalues --  -14.45474 -14.43936 -14.42404 -14.42268 -14.42127
 Alpha  occ. eigenvalues --  -14.42071 -14.41739 -14.41105 -14.40991 -14.40320
 Alpha  occ. eigenvalues --  -10.45817 -10.41666 -10.40697 -10.38617 -10.38119
 Alpha  occ. eigenvalues --  -10.37680 -10.36474 -10.35643 -10.35551 -10.35353
 Alpha  occ. eigenvalues --  -10.34622 -10.34388 -10.33824 -10.33649 -10.33450
 Alpha  occ. eigenvalues --  -10.33281 -10.32744 -10.31392 -10.31194 -10.30952
 Alpha  occ. eigenvalues --  -10.30778 -10.28816 -10.28413  -1.19724  -1.13708
 Alpha  occ. eigenvalues --   -1.13656  -1.13464  -1.11649  -1.10853  -1.09651
 Alpha  occ. eigenvalues --   -1.09028  -1.07045  -1.05161  -1.02953  -1.02594
 Alpha  occ. eigenvalues --   -1.00551  -1.00306  -0.99261  -0.98866  -0.97197
 Alpha  occ. eigenvalues --   -0.96787  -0.94675  -0.92780  -0.91367  -0.85918
 Alpha  occ. eigenvalues --   -0.84407  -0.84334  -0.84194  -0.84018  -0.82679
 Alpha  occ. eigenvalues --   -0.82556  -0.79220  -0.75130  -0.74904  -0.74090
 Alpha  occ. eigenvalues --   -0.73757  -0.73097  -0.72844  -0.71265  -0.68482
 Alpha  occ. eigenvalues --   -0.67791  -0.66911  -0.66479  -0.64871  -0.64774
 Alpha  occ. eigenvalues --   -0.64063  -0.62998  -0.62897  -0.62242  -0.62155
 Alpha  occ. eigenvalues --   -0.60314  -0.59873  -0.59852  -0.58917  -0.58669
 Alpha  occ. eigenvalues --   -0.58397  -0.57796  -0.56792  -0.56656  -0.56607
 Alpha  occ. eigenvalues --   -0.56302  -0.55457  -0.54764  -0.54469  -0.53971
 Alpha  occ. eigenvalues --   -0.53736  -0.53639  -0.53217  -0.52819  -0.52321
 Alpha  occ. eigenvalues --   -0.52054  -0.51813  -0.51104  -0.50989  -0.50514
 Alpha  occ. eigenvalues --   -0.50370  -0.49828  -0.49293  -0.49230  -0.48982
 Alpha  occ. eigenvalues --   -0.48546  -0.48278  -0.47969  -0.47774  -0.47455
 Alpha  occ. eigenvalues --   -0.47156  -0.45322  -0.45061  -0.44369  -0.42876
 Alpha  occ. eigenvalues --   -0.41382  -0.39753  -0.39029  -0.37633  -0.37551
 Alpha  occ. eigenvalues --   -0.37393  -0.36388  -0.35906  -0.35709  -0.34886
 Alpha  occ. eigenvalues --   -0.33816  -0.33770  -0.33724  -0.33114  -0.32827
 Alpha  occ. eigenvalues --   -0.32508  -0.32315  -0.32188  -0.32013  -0.31221
 Alpha  occ. eigenvalues --   -0.30504  -0.27917  -0.25959  -0.25756
 Alpha virt. eigenvalues --    0.02671   0.05796   0.07776   0.08104   0.08663
 Alpha virt. eigenvalues --    0.09329   0.09399   0.10765   0.11575   0.12429
 Alpha virt. eigenvalues --    0.12741   0.13818   0.14380   0.14691   0.16092

 Mulliken charges:
               1
     1  N   -0.310585
     2  C    0.180858
     3  C    0.028676
     4  N   -0.257295
     5  C    0.132149
     6  H    0.027052
     7  N   -0.288725
     8  C    0.127940
     9  H    0.012635
    10  N   -0.288745
    11  C    0.237141
    12  C    0.115586
    13  N   -0.045891
    14  H    0.108235
    15  H    0.089873
    16  H    0.026385
    17  H    0.035353
    18  H    0.025204
    19  N   -0.310224
    20  C    0.250249
    21  C    0.181461
    22  N   -0.126114
    23  H    0.114387
    24  H    0.118172
    25  N   -0.303954
    26  C    0.242639
    27  N   -0.132491
    28  H    0.117468
    29  C    0.170227
    30  O   -0.324557
    31  C   -0.010803
    32  N   -0.222085
    33  C    0.132865
    34  H    0.031142
    35  H    0.031716
    36  H    0.028293
    37  H    0.024760
    38  H    0.060375
    39  H    0.061311
    40  H    0.073210
    41  H    0.032214
    42  C   -0.103216
    43  O   -0.281199
    44  C    0.154738
    45  H    0.137443
    46  N   -0.129757
    47  O   -0.353849
    48  C    0.368191
    49  H    0.049490
    50  C    0.180896
    51  C    0.041497
    52  N   -0.295463
    53  H    0.029958
    54  H    0.042963
    55  H    0.015852
    56  H    0.122977
    57  H    0.116263
    58  N   -0.034402
    59  C    0.099758
    60  C    0.243837
    61  N   -0.268674
    62  H    0.036557
    63  C    0.156444
    64  N   -0.300251
    65  H    0.024922
    66  C    0.129443
    67  N   -0.267481
    68  C    0.017017
    69  C    0.181464
    70  N   -0.311528
 Sum of Mulliken charges =  -0.00000

 Dipole moment (field-independent basis, Debye):
    X=              7.9749    Y=              5.9330    Z=              1.4290  Tot=             10.0420
 Quadrupole moment (field-independent basis, Debye-Ang):
   XX=           -140.9881   YY=           -222.4254   ZZ=           -248.7992
   XY=              6.4886   XZ=             16.0926   YZ=             -3.8534

 Normal termination of Gaussian 16 at Tue Jan 23 08:24:37 2018.
