 Gaussian 16, Revision A.03,
 Gaussian 16:  EM64L-G16RevA.03 25-Dec-2016

 ---------------------------------------
 #p wb97xd/cc-pvdz sp scf=(maxcycles=20)
 ---------------------------------------

 ------------------
 Base pair stacking
 ------------------
 Symbolic Z-matrix:
 Charge =  0 Multiplicity = 1

                         Standard orientation:
 ---------------------------------------------------------------------
 Center     Atomic      Atomic             Coordinates (Angstroms)
 Number     Number       Type             X           Y           Z
 ---------------------------------------------------------------------
      1          7           0        4.897352   -1.635188   -1.591826
      2          6           0        6.286032   -1.140164   -1.659006
      3          6           0        2.701871   -1.747355   -1.524215
      4          7           0        3.159407   -3.055589   -1.461663
      5          6           0        4.463794   -2.935650   -1.504893
      6          1           0        5.164467   -3.770632   -1.476354
      7          7           0        1.299962    0.148089   -1.594269
      8          6           0        2.417928    0.877721   -1.667407
      9          1           0        2.267264    1.954861   -1.725203
     10          7           0        3.688096    0.478452   -1.679808
     11          6           0        3.761552   -0.860728   -1.604771
     12          6           0        1.407451   -1.196524   -1.519863
     13          7           0        0.292621   -1.926577   -1.446788
     14          1           0        0.324725   -2.925071   -1.390203
     15          1           0       -0.612184   -1.500578   -1.446097
     16          1           0        6.737334   -1.518129   -2.467492
     17          1           0        6.282550   -0.142252   -1.716353
     18          1           0        6.783148   -1.423482   -0.838884
     19          7           0        4.775034    2.121594    0.989777
     20          6           0        3.409285    1.973364    1.018472
     21          6           0        5.491658    3.364761    0.640953
     22          7           0        0.229656    3.307598    0.604328
     23          1           0       -0.716957    2.996435    0.683906
     24          1           0        0.372994    4.259756    0.333079
     25          7           0        2.499835    2.930787    0.735112
     26          6           0        1.261168    2.485717    0.850101
     27          7           0        0.935869    1.201642    1.214584
     28          1           0       -0.038498    0.949312    1.277038
     29          6           0        1.855099    0.200040    1.510699
     30          8           0        1.456455   -0.926995    1.829462
     31          6           0        3.190080    0.663176    1.391499
     32          7           0        4.393988    0.002157    1.592938
     33          6           0        5.303976    0.904384    1.343704
     34          1           0        6.379550    0.734468    1.403204
     35          1           0        6.072899    3.203990   -0.155996
     36          1           0        4.828224    4.081168    0.429098
     37          1           0        6.057098    3.653305    1.412856
     38          1           0       -5.035306    0.150437    0.780673
     39          1           0       -5.031893    0.359516    2.530220
     40          1           0       -3.861936    1.228794    1.536782
     41          1           0       -3.400461   -4.152869    2.179024
     42          6           0       -3.037291   -3.132431    2.056363
     43          8           0       -0.746262   -3.743648    2.124933
     44          6           0       -1.627287   -2.890117    2.024654
     45          1           0       -0.287677   -1.354185    1.838477
     46          7           0       -1.275380   -1.564931    1.865598
     47          8           0       -1.715942    0.647239    1.602093
     48          6           0       -2.123049   -0.493001    1.739153
     49          1           0       -4.970140   -2.238395    1.953299
     50          6           0       -3.888987   -2.107436    1.935529
     51          6           0       -4.411294    0.305800    1.648164
     52          7           0       -3.467198   -0.807411    1.779348
     53          1           0       -5.567225    4.082127   -1.812040
     54          1           0       -4.259297    3.961071   -0.844157
     55          1           0       -5.758513    3.883805   -0.203467
     56          1           0       -3.233667   -2.957946   -1.572630
     57          1           0       -4.880140   -2.535160   -1.715756
     58          7           0       -3.934222   -2.244271   -1.567956
     59          6           0       -3.621992   -0.961378   -1.373366
     60          6           0       -4.092044    1.359858   -1.143895
     61          7           0       -2.813254    1.721431   -0.947974
     62          1           0       -0.956872    0.860366   -0.833827
     63          6           0       -2.015961    0.655653   -0.984453
     64          7           0       -2.326764   -0.630055   -1.179212
     65          1           0       -7.285091    1.743119   -1.475106
     66          6           0       -6.269507    1.352872   -1.402728
     67          7           0       -5.947123    0.087957   -1.519923
     68          6           0       -4.569314    0.078470   -1.357854
     69          6           0       -5.195136    3.643455   -0.994043
     70          7           0       -5.195964    2.178670   -1.174093
 ---------------------------------------------------------------------

 SCF Done:  E(RwB97XD) =  -2048.74124413     A.U. after   15 cycles

 The electronic state is 1-A.
 Alpha  occ. eigenvalues --  -19.25239 -19.21454 -19.20367 -14.52907 -14.51898
 Alpha  occ. eigenvalues --  -14.48837 -14.48636 -14.48418 -14.47278 -14.46496
 Alpha  occ. eigenvalues --  -14.46361 -14.45828 -14.44820 -14.44707 -14.42869
 Alpha  occ. eigenvalues --  -14.41863 -14.41108 -14.40937 -14.40922 -14.40493
 Alpha  occ. eigenvalues --  -10.44884 -10.40991 -10.40540 -10.39576 -10.38387
 Alpha  occ. eigenvalues --  -10.37980 -10.37627 -10.37364 -10.36441 -10.35701
 Alpha  occ. eigenvalues --  -10.34242 -10.34161 -10.34102 -10.33834 -10.33394
 Alpha  occ. eigenvalues --  -10.33224 -10.32986 -10.32970 -10.30824 -10.30689
 Alpha  occ. eigenvalues --  -10.30669 -10.28468 -10.27917  -1.18991  -1.15675
 Alpha  occ. eigenvalues --   -1.12974  -1.12486  -1.11057  -1.10414  -1.09853
 Alpha  occ. eigenvalues --   -1.08811  -1.08329  -1.05356  -1.05218  -1.01915
 Alpha  occ. eigenvalues --   -1.01423  -1.00680  -0.99459  -0.98362  -0.97416
 Alpha  occ. eigenvalues --   -0.96762  -0.96477  -0.92918  -0.90582  -0.88125
 Alpha  occ. eigenvalues --   -0.86324  -0.83997  -0.83769  -0.82999  -0.82372
 Alpha  occ. eigenvalues --   -0.82172  -0.78388  -0.77537  -0.75375  -0.74454
 Alpha  occ. eigenvalues --   -0.73386  -0.72970  -0.72828  -0.71104  -0.70881
 Alpha  occ. eigenvalues --   -0.67331  -0.67150  -0.66376  -0.66048  -0.64751
 Alpha  occ. eigenvalues --   -0.64170  -0.63523  -0.62830  -0.62488  -0.61573
 Alpha  occ. eigenvalues --   -0.61183  -0.60869  -0.60676  -0.59857  -0.59176
 Alpha  occ. eigenvalues --   -0.58876  -0.58082  -0.56975  -0.56537  -0.55897
 Alpha  occ. eigenvalues --   -0.55862  -0.55666  -0.55580  -0.54747  -0.54130
 Alpha  occ. eigenvalues --   -0.53858  -0.53699  -0.53293  -0.53198  -0.52804
 Alpha  occ. eigenvalues --   -0.52328  -0.51968  -0.51666  -0.50573  -0.50409
 Alpha  occ. eigenvalues --   -0.50012  -0.49919  -0.49613  -0.49064  -0.48960
 Alpha  occ. eigenvalues --   -0.48620  -0.48150  -0.48025  -0.47651  -0.47037
 Alpha  occ. eigenvalues --   -0.46921  -0.45684  -0.45020  -0.44423  -0.43084
 Alpha  occ. eigenvalues --   -0.41246  -0.41161  -0.39019  -0.38128  -0.38088
 Alpha  occ. eigenvalues --   -0.37450  -0.37149  -0.36890  -0.35490  -0.35196
 Alpha  occ. eigenvalues --   -0.34854  -0.34170  -0.33458  -0.33242  -0.32752
 Alpha  occ. eigenvalues --   -0.32453  -0.32193  -0.31721  -0.31608  -0.30672
 Alpha  occ. eigenvalues --   -0.30449  -0.30150  -0.26079  -0.25142
 Alpha virt. eigenvalues --    0.03301   0.03786   0.06162   0.07940   0.09098
 Alpha virt. eigenvalues --    0.09553   0.09850   0.09976   0.10851   0.12139
 Alpha virt. eigenvalues --    0.12943   0.14259   0.14300   0.14599   0.14852

 Mulliken charges:
               1
     1  N   -0.310172
     2  C    0.181032
     3  C    0.060371
     4  N   -0.262243
     5  C    0.143928
     6  H    0.027184
     7  N   -0.284471
     8  C    0.122290
     9  H    0.017683
    10  N   -0.276302
    11  C    0.253793
    12  C    0.085355
    13  N   -0.061117
    14  H    0.110486
    15  H    0.081095
    16  H    0.024235
    17  H    0.027522
    18  H    0.029310
    19  N   -0.298460
    20  C    0.250376
    21  C    0.182737
    22  N   -0.112780
    23  H    0.117654
    24  H    0.115869
    25  N   -0.298824
    26  C    0.219543
    27  N   -0.116674
    28  H    0.111652
    29  C    0.172900
    30  O   -0.322100
    31  C   -0.010286
    32  N   -0.225404
    33  C    0.115058
    34  H    0.018177
    35  H    0.026066
    36  H    0.028838
    37  H    0.022926
    38  H    0.064352
    39  H    0.053814
    40  H    0.077097
    41  H    0.026398
    42  C   -0.111712
    43  O   -0.264401
    44  C    0.176122
    45  H    0.131123
    46  N   -0.125170
    47  O   -0.340526
    48  C    0.344025
    49  H    0.044199
    50  C    0.164220
    51  C    0.043650
    52  N   -0.277928
    53  H    0.035556
    54  H    0.038031
    55  H    0.030623
    56  H    0.120154
    57  H    0.118700
    58  N   -0.061143
    59  C    0.098785
    60  C    0.220105
    61  N   -0.268952
    62  H    0.011219
    63  C    0.193334
    64  N   -0.311404
    65  H    0.039038
    66  C    0.129569
    67  N   -0.250913
    68  C    0.003101
    69  C    0.182095
    70  N   -0.300406
 Sum of Mulliken charges =  -0.00000

 Dipole moment (field-independent basis, Debye):
    X=             -7.6397    Y=              6.6979    Z=             -2.4060  Tot=             10.4411
 Quadrupole moment (field-independent basis, Debye-Ang):
   XX=           -156.9888   YY=           -223.2148   ZZ=           -255.3130
   XY=              1.9266   XZ=            -11.8225   YZ=             12.6334

 Normal termination of Gaussian 16 at Tue Jan 23 02:34:10 2018.
