 Gaussian 16, Revision A.03,
 Gaussian 16:  EM64L-G16RevA.03 25-Dec-2016

 ---------------------------------------
 #p wb97xd/cc-pvdz sp scf=(maxcycles=20)
 ---------------------------------------

 ------------------
 Base pair stacking
 ------------------
 Symbolic Z-matrix:
 Charge =  0 Multiplicity = 1

                         Standard orientation:
 ---------------------------------------------------------------------
 Center     Atomic      Atomic             Coordinates (Angstroms)
 Number     Number       Type             X           Y           Z
 ---------------------------------------------------------------------
      1          7           0       -7.127355   -1.332744    0.179360
      2          6           0       -8.471353   -0.769854   -0.054778
      3          6           0       -4.976318   -1.552398    0.581988
      4          7           0       -5.476618   -2.837853    0.433607
      5          6           0       -6.752515   -2.654075    0.196973
      6          1           0       -7.473010   -3.454504    0.026311
      7          7           0       -3.525948    0.273866    0.934339
      8          6           0       -4.595011    1.058050    0.761875
      9          1           0       -4.405018    2.127508    0.842036
     10          7           0       -5.857590    0.721084    0.506459
     11          6           0       -5.982022   -0.614125    0.427963
     12          6           0       -3.684009   -1.065101    0.849250
     13          7           0       -2.618041   -1.849552    1.021111
     14          1           0       -2.688571   -2.846187    0.966792
     15          1           0       -1.713114   -1.467976    1.209914
     16          1           0       -9.102875   -1.110441    0.641891
     17          1           0       -8.428947    0.227613   -0.005816
     18          1           0       -8.796771   -1.043928   -0.959762
     19          7           0       -2.363506    2.297444   -1.646885
     20          6           0       -1.032279    2.082715   -1.382744
     21          6           0       -3.073154    3.580137   -1.468504
     22          7           0        2.050972    3.268773   -0.311029
     23          1           0        2.975655    2.910677   -0.184640
     24          1           0        1.902321    4.231615   -0.083995
     25          7           0       -0.155893    3.000037   -0.919587
     26          6           0        1.054438    2.493418   -0.764523
     27          7           0        1.383423    1.188540   -1.041269
     28          1           0        2.334565    0.888179   -0.892694
     29          6           0        0.497940    0.227336   -1.518613
     30          8           0        0.896855   -0.923408   -1.736301
     31          6           0       -0.806345    0.756744   -1.690248
     32          7           0       -1.972266    0.151215   -2.138415
     33          6           0       -2.866933    1.100939   -2.095872
     34          1           0       -3.912589    0.982264   -2.381861
     35          1           0       -3.817872    3.462539   -0.812473
     36          1           0       -2.434007    4.267352   -1.125747
     37          1           0       -3.446155    3.881370   -2.345391
     38          1           0        7.064208   -0.142513    0.663228
     39          1           0        7.443227    0.033980   -1.048450
     40          1           0        6.135118    0.977214   -0.333945
     41          1           0        5.545177   -4.386758   -1.017688
     42          6           0        5.217068   -3.347833   -0.983215
     43          8           0        2.964622   -3.848492   -1.533608
     44          6           0        3.846837   -3.036926   -1.254570
     45          1           0        2.578830   -1.434704   -1.370131
     46          7           0        3.537622   -1.693523   -1.184514
     47          8           0        4.025026    0.499195   -0.850480
     48          6           0        4.392916   -0.661770   -0.888728
     49          1           0        7.127164   -2.546734   -0.477651
     50          6           0        6.075090   -2.363232   -0.691683
     51          6           0        6.647504    0.026771   -0.318489
     52          7           0        5.697002   -1.041623   -0.639130
     53          1           0        3.330799    3.873916    2.579633
     54          1           0        2.253872    3.798428    1.356256
     55          1           0        3.848979    3.636742    1.050362
     56          1           0        0.743382   -3.048052    1.903521
     57          1           0        2.341347   -2.702957    2.390885
     58          7           0        1.464609   -2.369366    2.042644
     59          6           0        1.267063   -1.076683    1.775971
     60          6           0        1.893562    1.214392    1.633794
     61          7           0        0.705841    1.633805    1.167066
     62          1           0       -1.125597    0.861729    0.666711
     63          6           0       -0.134594    0.608762    1.041145
     64          7           0        0.061371   -0.686655    1.307710
     65          1           0        4.958756    1.448565    2.634779
     66          6           0        3.963066    1.106705    2.350708
     67          7           0        3.558698   -0.138711    2.406399
     68          6           0        2.248119   -0.084428    1.954554
     69          6           0        3.118955    3.438681    1.704599
     70          7           0        3.006387    1.979173    1.892125
 ---------------------------------------------------------------------

 SCF Done:  E(RwB97XD) =  -2048.63711702     A.U. after   15 cycles

 The electronic state is 1-A.
 Alpha  occ. eigenvalues --  -19.25947 -19.21931 -19.20379 -14.52462 -14.51948
 Alpha  occ. eigenvalues --  -14.49562 -14.48553 -14.47875 -14.47122 -14.46355
 Alpha  occ. eigenvalues --  -14.45862 -14.44723 -14.43226 -14.42985 -14.42557
 Alpha  occ. eigenvalues --  -14.42251 -14.41838 -14.41405 -14.41011 -14.40606
 Alpha  occ. eigenvalues --  -10.45553 -10.41378 -10.40060 -10.38901 -10.37976
 Alpha  occ. eigenvalues --  -10.37758 -10.37348 -10.36264 -10.36160 -10.35534
 Alpha  occ. eigenvalues --  -10.34902 -10.34373 -10.34239 -10.34204 -10.34025
 Alpha  occ. eigenvalues --  -10.33161 -10.33139 -10.31788 -10.31568 -10.31059
 Alpha  occ. eigenvalues --  -10.30644 -10.29429 -10.27973  -1.19497  -1.14940
 Alpha  occ. eigenvalues --   -1.13191  -1.12969  -1.12178  -1.10446  -1.09347
 Alpha  occ. eigenvalues --   -1.09081  -1.08256  -1.05854  -1.03816  -1.02506
 Alpha  occ. eigenvalues --   -1.01857  -1.01283  -0.99465  -0.98324  -0.97754
 Alpha  occ. eigenvalues --   -0.96439  -0.95918  -0.93504  -0.91045  -0.87429
 Alpha  occ. eigenvalues --   -0.85954  -0.84749  -0.83868  -0.83784  -0.83069
 Alpha  occ. eigenvalues --   -0.82380  -0.78876  -0.76364  -0.74820  -0.74250
 Alpha  occ. eigenvalues --   -0.73819  -0.73714  -0.73367  -0.71944  -0.69742
 Alpha  occ. eigenvalues --   -0.68019  -0.67119  -0.66627  -0.66231  -0.64494
 Alpha  occ. eigenvalues --   -0.64067  -0.63789  -0.63519  -0.62967  -0.62508
 Alpha  occ. eigenvalues --   -0.61014  -0.60651  -0.60081  -0.59674  -0.59494
 Alpha  occ. eigenvalues --   -0.58941  -0.58710  -0.57335  -0.57089  -0.56874
 Alpha  occ. eigenvalues --   -0.56225  -0.55801  -0.55594  -0.54536  -0.54321
 Alpha  occ. eigenvalues --   -0.53723  -0.53416  -0.53093  -0.52763  -0.52598
 Alpha  occ. eigenvalues --   -0.52465  -0.52334  -0.51940  -0.51536  -0.50946
 Alpha  occ. eigenvalues --   -0.49995  -0.49880  -0.49431  -0.49330  -0.48728
 Alpha  occ. eigenvalues --   -0.48554  -0.48161  -0.48029  -0.47803  -0.47519
 Alpha  occ. eigenvalues --   -0.47267  -0.45838  -0.45374  -0.43996  -0.42480
 Alpha  occ. eigenvalues --   -0.42056  -0.39562  -0.39310  -0.38048  -0.37339
 Alpha  occ. eigenvalues --   -0.37030  -0.36726  -0.36421  -0.35859  -0.35120
 Alpha  occ. eigenvalues --   -0.34364  -0.34268  -0.33121  -0.32923  -0.32705
 Alpha  occ. eigenvalues --   -0.32354  -0.31971  -0.31923  -0.31690  -0.31611
 Alpha  occ. eigenvalues --   -0.31202  -0.28538  -0.26648  -0.24774
 Alpha virt. eigenvalues --    0.03169   0.04254   0.07037   0.07486   0.08286
 Alpha virt. eigenvalues --    0.09489   0.09660   0.10048   0.11140   0.12504
 Alpha virt. eigenvalues --    0.12710   0.13446   0.14131   0.14415   0.14923

 Mulliken charges:
               1
     1  N   -0.311995
     2  C    0.180688
     3  C    0.035265
     4  N   -0.259185
     5  C    0.135266
     6  H    0.029371
     7  N   -0.280420
     8  C    0.113001
     9  H    0.018810
    10  N   -0.285131
    11  C    0.242058
    12  C    0.118484
    13  N   -0.054019
    14  H    0.107305
    15  H    0.088238
    16  H    0.027084
    17  H    0.035302
    18  H    0.027527
    19  N   -0.301879
    20  C    0.211701
    21  C    0.186756
    22  N   -0.087645
    23  H    0.116973
    24  H    0.105620
    25  N   -0.259751
    26  C    0.169548
    27  N   -0.099115
    28  H    0.122332
    29  C    0.134774
    30  O   -0.320904
    31  C    0.003026
    32  N   -0.219263
    33  C    0.127455
    34  H    0.029956
    35  H    0.017284
    36  H    0.027249
    37  H    0.024431
    38  H    0.060508
    39  H    0.061674
    40  H    0.069014
    41  H    0.031570
    42  C   -0.111509
    43  O   -0.265747
    44  C    0.179559
    45  H    0.134759
    46  N   -0.138228
    47  O   -0.351838
    48  C    0.366447
    49  H    0.047431
    50  C    0.174052
    51  C    0.040791
    52  N   -0.295194
    53  H    0.017720
    54  H    0.039088
    55  H   -0.006570
    56  H    0.120642
    57  H    0.117422
    58  N   -0.066551
    59  C    0.123811
    60  C    0.222645
    61  N   -0.261884
    62  H    0.072038
    63  C    0.149498
    64  N   -0.299488
    65  H    0.028143
    66  C    0.133873
    67  N   -0.262654
    68  C    0.023211
    69  C    0.207448
    70  N   -0.317877
 Sum of Mulliken charges =  -0.00000

 Dipole moment (field-independent basis, Debye):
    X=              6.5203    Y=              5.5223    Z=              3.7887  Tot=              9.3469
 Quadrupole moment (field-independent basis, Debye-Ang):
   XX=           -141.6544   YY=           -225.7713   ZZ=           -254.6562
   XY=              9.6163   XZ=             14.6568   YZ=            -11.6784

 Normal termination of Gaussian 16 at Tue Jan 23 03:55:12 2018.
