 Gaussian 16, Revision A.03,
 Gaussian 16:  EM64L-G16RevA.03 25-Dec-2016

 ---------------------------------------
 #p wb97xd/cc-pvdz sp scf=(maxcycles=20)
 ---------------------------------------

 ------------------
 Base pair stacking
 ------------------
 Symbolic Z-matrix:
 Charge =  0 Multiplicity = 1

                         Standard orientation:
 ---------------------------------------------------------------------
 Center     Atomic      Atomic             Coordinates (Angstroms)
 Number     Number       Type             X           Y           Z
 ---------------------------------------------------------------------
      1          7           0        4.248548   -1.903135   -1.910245
      2          6           0        5.615298   -1.478323   -2.270153
      3          6           0        2.079188   -1.936375   -1.549560
      4          7           0        2.548263   -3.197342   -1.210977
      5          6           0        3.836446   -3.126853   -1.441828
      6          1           0        4.539885   -3.945366   -1.286383
      7          7           0        0.668884   -0.084633   -1.930438
      8          6           0        1.764984    0.572638   -2.323071
      9          1           0        1.602283    1.603291   -2.635391
     10          7           0        3.025953    0.149901   -2.387511
     11          6           0        3.115652   -1.127674   -1.982313
     12          6           0        0.792320   -1.368521   -1.528604
     13          7           0       -0.300670   -2.026294   -1.136308
     14          1           0       -0.256196   -2.978097   -0.830831
     15          1           0       -1.200722   -1.590361   -1.134394
     16          1           0        5.964622   -2.061170   -3.003939
     17          1           0        5.599128   -0.528034   -2.579701
     18          1           0        6.212146   -1.556896   -1.471665
     19          7           0        5.369791    2.156195    0.663569
     20          6           0        4.011038    2.044386    0.834892
     21          6           0        6.087466    3.400376    0.320566
     22          7           0        0.854496    3.492419    0.869050
     23          1           0       -0.088116    3.202899    1.033065
     24          1           0        1.000886    4.456920    0.647661
     25          7           0        3.110522    3.044298    0.719607
     26          6           0        1.876944    2.626893    0.942461
     27          7           0        1.548262    1.329933    1.254481
     28          1           0        0.578291    1.101059    1.408546
     29          6           0        2.458319    0.284794    1.378360
     30          8           0        2.057330   -0.850326    1.663745
     31          6           0        3.787759    0.717824    1.141774
     32          7           0        4.982292    0.011031    1.162687
     33          6           0        5.890873    0.902861    0.874036
     34          1           0        6.959775    0.699311    0.801361
     35          1           0        6.571714    3.279914   -0.545340
     36          1           0        5.430625    4.148087    0.232569
     37          1           0        6.744032    3.618099    1.041916
     38          1           0       -4.467988    0.478445    1.422011
     39          1           0       -4.265279    0.563838    3.170230
     40          1           0       -3.181261    1.467906    2.112435
     41          1           0       -2.843263   -3.956357    2.338210
     42          6           0       -2.459783   -2.940323    2.244120
     43          8           0       -0.198178   -3.618382    2.015003
     44          6           0       -1.054062   -2.735724    2.071128
     45          1           0        0.310669   -1.228382    1.839261
     46          7           0       -0.674953   -1.412942    1.962551
     47          8           0       -1.063032    0.823685    1.898297
     48          6           0       -1.492829   -0.311601    2.003591
     49          1           0       -4.359338   -1.987808    2.417838
     50          6           0       -3.282703   -1.886059    2.288027
     51          6           0       -3.747465    0.555005    2.222676
     52          7           0       -2.834757   -0.590511    2.172812
     53          1           0       -6.193920    3.844869   -2.308789
     54          1           0       -4.775091    3.939304   -1.508714
     55          1           0       -6.182500    4.067077   -0.692029
     56          1           0       -3.809389   -2.962224   -0.564365
     57          1           0       -5.463218   -2.546350   -0.609291
     58          7           0       -4.507908   -2.252541   -0.656971
     59          6           0       -4.181070   -0.971040   -0.836120
     60          6           0       -4.631890    1.343864   -1.151922
     61          7           0       -3.340698    1.709440   -1.212016
     62          1           0       -1.479757    0.856929   -1.108442
     63          6           0       -2.548194    0.648707   -1.071713
     64          7           0       -2.873624   -0.635600   -0.892187
     65          1           0       -7.843432    1.714579   -1.178941
     66          6           0       -6.824572    1.328855   -1.133401
     67          7           0       -6.512196    0.067634   -0.961839
     68          6           0       -5.124898    0.063245   -0.971645
     69          6           0       -5.720512    3.618860   -1.457435
     70          7           0       -5.735546    2.156978   -1.255758
 ---------------------------------------------------------------------

 SCF Done:  E(RwB97XD) =  -2048.74924050     A.U. after   15 cycles

 The electronic state is 1-A.
 Alpha  occ. eigenvalues --  -19.25372 -19.21488 -19.20695 -14.52599 -14.51839
 Alpha  occ. eigenvalues --  -14.49197 -14.48851 -14.48017 -14.47255 -14.46925
 Alpha  occ. eigenvalues --  -14.46762 -14.45540 -14.44963 -14.44773 -14.42718
 Alpha  occ. eigenvalues --  -14.42170 -14.41490 -14.40869 -14.40614 -14.40457
 Alpha  occ. eigenvalues --  -10.44918 -10.41371 -10.40503 -10.39608 -10.38354
 Alpha  occ. eigenvalues --  -10.38122 -10.37539 -10.37465 -10.36263 -10.35530
 Alpha  occ. eigenvalues --  -10.34648 -10.34399 -10.33928 -10.33865 -10.33395
 Alpha  occ. eigenvalues --  -10.33067 -10.33012 -10.32960 -10.31276 -10.30682
 Alpha  occ. eigenvalues --  -10.30087 -10.28416 -10.28220  -1.18887  -1.15411
 Alpha  occ. eigenvalues --   -1.13348  -1.12512  -1.10908  -1.10694  -1.09873
 Alpha  occ. eigenvalues --   -1.08777  -1.08645  -1.05331  -1.05061  -1.01904
 Alpha  occ. eigenvalues --   -1.01168  -1.00518  -0.99852  -0.98750  -0.97382
 Alpha  occ. eigenvalues --   -0.96953  -0.96355  -0.92767  -0.90616  -0.87946
 Alpha  occ. eigenvalues --   -0.86062  -0.84449  -0.83437  -0.83042  -0.82797
 Alpha  occ. eigenvalues --   -0.81736  -0.78393  -0.77403  -0.75226  -0.74876
 Alpha  occ. eigenvalues --   -0.73773  -0.72845  -0.72689  -0.70895  -0.70730
 Alpha  occ. eigenvalues --   -0.67563  -0.67202  -0.66103  -0.66067  -0.64568
 Alpha  occ. eigenvalues --   -0.64499  -0.63570  -0.62741  -0.62564  -0.61961
 Alpha  occ. eigenvalues --   -0.60881  -0.60561  -0.60215  -0.59636  -0.59149
 Alpha  occ. eigenvalues --   -0.59011  -0.58477  -0.56995  -0.56368  -0.55766
 Alpha  occ. eigenvalues --   -0.55598  -0.55528  -0.55368  -0.54813  -0.54219
 Alpha  occ. eigenvalues --   -0.53877  -0.53679  -0.53456  -0.53123  -0.53063
 Alpha  occ. eigenvalues --   -0.52347  -0.51856  -0.51254  -0.50424  -0.50295
 Alpha  occ. eigenvalues --   -0.50173  -0.49821  -0.49571  -0.49201  -0.48924
 Alpha  occ. eigenvalues --   -0.48646  -0.48230  -0.48096  -0.47820  -0.47222
 Alpha  occ. eigenvalues --   -0.46625  -0.45712  -0.45581  -0.44778  -0.43276
 Alpha  occ. eigenvalues --   -0.41139  -0.40955  -0.39088  -0.38131  -0.37908
 Alpha  occ. eigenvalues --   -0.37565  -0.37445  -0.36803  -0.35449  -0.35217
 Alpha  occ. eigenvalues --   -0.34789  -0.34162  -0.33283  -0.33237  -0.33072
 Alpha  occ. eigenvalues --   -0.32685  -0.32573  -0.32039  -0.31449  -0.30524
 Alpha  occ. eigenvalues --   -0.30458  -0.30297  -0.25953  -0.25521
 Alpha virt. eigenvalues --    0.03431   0.03729   0.06542   0.08138   0.08793
 Alpha virt. eigenvalues --    0.09009   0.09615   0.10317   0.11087   0.11715
 Alpha virt. eigenvalues --    0.13609   0.14089   0.14309   0.14856   0.14890

 Mulliken charges:
               1
     1  N   -0.307430
     2  C    0.181993
     3  C    0.059795
     4  N   -0.255475
     5  C    0.150326
     6  H    0.028115
     7  N   -0.295598
     8  C    0.126060
     9  H    0.010645
    10  N   -0.279877
    11  C    0.247750
    12  C    0.082559
    13  N   -0.068329
    14  H    0.116069
    15  H    0.082491
    16  H    0.020843
    17  H    0.028913
    18  H    0.029881
    19  N   -0.310674
    20  C    0.262068
    21  C    0.181828
    22  N   -0.123478
    23  H    0.120843
    24  H    0.118488
    25  N   -0.312336
    26  C    0.246215
    27  N   -0.142389
    28  H    0.120385
    29  C    0.188636
    30  O   -0.318962
    31  C   -0.013321
    32  N   -0.232548
    33  C    0.120554
    34  H    0.022870
    35  H    0.026738
    36  H    0.030964
    37  H    0.025296
    38  H    0.067216
    39  H    0.057914
    40  H    0.075605
    41  H    0.023764
    42  C   -0.122310
    43  O   -0.262849
    44  C    0.166899
    45  H    0.134671
    46  N   -0.123756
    47  O   -0.352085
    48  C    0.352679
    49  H    0.041388
    50  C    0.172210
    51  C    0.037099
    52  N   -0.277879
    53  H    0.034292
    54  H    0.041440
    55  H    0.030081
    56  H    0.118939
    57  H    0.119080
    58  N   -0.063887
    59  C    0.082619
    60  C    0.233706
    61  N   -0.264733
    62  H    0.031396
    63  C    0.170624
    64  N   -0.310449
    65  H    0.040110
    66  C    0.140070
    67  N   -0.258687
    68  C    0.023450
    69  C    0.180448
    70  N   -0.308974
 Sum of Mulliken charges =  -0.00000

 Dipole moment (field-independent basis, Debye):
    X=             -7.5957    Y=              7.3114    Z=             -0.6572  Tot=             10.5633
 Quadrupole moment (field-independent basis, Debye-Ang):
   XX=           -161.2613   YY=           -221.0124   ZZ=           -251.0033
   XY=              3.9064   XZ=            -16.9650   YZ=              7.7776

 Normal termination of Gaussian 16 at Tue Jan 23 12:50:12 2018.
