 Gaussian 16, Revision A.03,
 Gaussian 16:  EM64L-G16RevA.03 25-Dec-2016

 ---------------------------------------
 #p wb97xd/cc-pvdz sp scf=(maxcycles=20)
 ---------------------------------------

 ------------------
 Base pair stacking
 ------------------
 Symbolic Z-matrix:
 Charge =  0 Multiplicity = 1

                         Standard orientation:
 ---------------------------------------------------------------------
 Center     Atomic      Atomic             Coordinates (Angstroms)
 Number     Number       Type             X           Y           Z
 ---------------------------------------------------------------------
      1          7           0        5.205238   -1.716721   -1.431852
      2          6           0        6.590909   -1.226270   -1.563685
      3          6           0        3.010221   -1.834200   -1.358156
      4          7           0        3.476186   -3.116390   -1.105928
      5          6           0        4.779953   -2.994288   -1.160422
      6          1           0        5.486032   -3.811262   -1.008955
      7          7           0        1.596041    0.020997   -1.706377
      8          6           0        2.709465    0.740750   -1.879046
      9          1           0        2.551897    1.797197   -2.091978
     10          7           0        3.982332    0.353238   -1.828408
     11          6           0        4.064356   -0.960608   -1.561014
     12          6           0        1.712146   -1.298078   -1.438679
     13          7           0        0.601856   -2.018217   -1.266000
     14          1           0        0.640346   -2.997904   -1.066104
     15          1           0       -0.305773   -1.603255   -1.330518
     16          1           0        7.049002   -1.713336   -2.307383
     17          1           0        6.581037   -0.247059   -1.764131
     18          1           0        7.085559   -1.384892   -0.709193
     19          7           0        4.465349    2.259607    1.132811
     20          6           0        3.100049    2.105184    1.145521
     21          6           0        5.179859    3.512405    0.815538
     22          7           0       -0.081266    3.434210    0.727527
     23          1           0       -1.027232    3.117609    0.791884
     24          1           0        0.060510    4.392140    0.476561
     25          7           0        2.189180    3.064266    0.872495
     26          6           0        0.951415    2.611886    0.966815
     27          7           0        0.628253    1.319494    1.302684
     28          1           0       -0.345567    1.061947    1.350822
     29          6           0        1.548957    0.316028    1.587677
     30          8           0        1.152193   -0.818751    1.880243
     31          6           0        2.882999    0.786961    1.490425
     32          7           0        4.087786    0.127068    1.690227
     33          6           0        4.996183    1.037824    1.467611
     34          1           0        6.071873    0.871206    1.534004
     35          1           0        5.769301    3.369891    0.021145
     36          1           0        4.515360    4.230121    0.611575
     37          1           0        5.736711    3.787920    1.598362
     38          1           0       -5.333946    0.252404    0.791041
     39          1           0       -5.347998    0.426741    2.544341
     40          1           0       -4.172471    1.320393    1.579518
     41          1           0       -3.693813   -4.071001    2.119466
     42          6           0       -3.333910   -3.046834    2.020511
     43          8           0       -1.041011   -3.649801    2.098835
     44          6           0       -1.924735   -2.798102    2.007061
     45          1           0       -0.590076   -1.253244    1.864142
     46          7           0       -1.577076   -1.468581    1.877652
     47          8           0       -2.024688    0.746531    1.653800
     48          6           0       -2.428135   -0.397875    1.764363
     49          1           0       -5.269545   -2.158942    1.916709
     50          6           0       -4.188852   -2.023180    1.911867
     51          6           0       -4.718849    0.393102    1.667350
     52          7           0       -3.771235   -0.718571    1.785488
     53          1           0       -5.296105    3.831849   -2.517624
     54          1           0       -3.992530    3.861049   -1.536832
     55          1           0       -5.494554    3.865736   -0.898091
     56          1           0       -2.916729   -3.082996   -1.257066
     57          1           0       -4.565217   -2.697399   -1.466599
     58          7           0       -3.622063   -2.381279   -1.358187
     59          6           0       -3.319463   -1.081454   -1.349016
     60          6           0       -3.806268    1.245091   -1.458176
     61          7           0       -2.530984    1.640543   -1.310914
     62          1           0       -0.669508    0.818629   -1.066052
     63          6           0       -1.726384    0.586531   -1.190145
     64          7           0       -2.027526   -0.716081   -1.199076
     65          1           0       -7.000022    1.553065   -1.854735
     66          6           0       -5.982247    1.184820   -1.722588
     67          7           0       -5.650773   -0.081376   -1.655054
     68          6           0       -4.273801   -0.057250   -1.487436
     69          6           0       -4.925406    3.518257   -1.643415
     70          7           0       -4.915478    2.042847   -1.610670
 ---------------------------------------------------------------------

 SCF Done:  E(RwB97XD) =  -2048.75271187     A.U. after   15 cycles

 The electronic state is 1-A.
 Alpha  occ. eigenvalues --  -19.25443 -19.21698 -19.20437 -14.52760 -14.52097
 Alpha  occ. eigenvalues --  -14.48630 -14.48542 -14.48385 -14.47431 -14.46660
 Alpha  occ. eigenvalues --  -14.46364 -14.45743 -14.44567 -14.44540 -14.42464
 Alpha  occ. eigenvalues --  -14.41861 -14.41011 -14.40858 -14.40854 -14.40285
 Alpha  occ. eigenvalues --  -10.45073 -10.41051 -10.40288 -10.39799 -10.38281
 Alpha  occ. eigenvalues --  -10.38059 -10.37522 -10.37480 -10.36091 -10.35447
 Alpha  occ. eigenvalues --  -10.34541 -10.34205 -10.34146 -10.33742 -10.33307
 Alpha  occ. eigenvalues --  -10.33123 -10.32996 -10.32912 -10.30812 -10.30775
 Alpha  occ. eigenvalues --  -10.30758 -10.28302 -10.27967  -1.19089  -1.15496
 Alpha  occ. eigenvalues --   -1.13008  -1.12705  -1.10986  -1.10429  -1.09595
 Alpha  occ. eigenvalues --   -1.08976  -1.08358  -1.05106  -1.04984  -1.02095
 Alpha  occ. eigenvalues --   -1.01278  -1.00429  -0.99482  -0.98381  -0.97158
 Alpha  occ. eigenvalues --   -0.96657  -0.96460  -0.92688  -0.90742  -0.87903
 Alpha  occ. eigenvalues --   -0.86170  -0.83973  -0.83687  -0.83195  -0.82355
 Alpha  occ. eigenvalues --   -0.82112  -0.78557  -0.77321  -0.75131  -0.74460
 Alpha  occ. eigenvalues --   -0.73425  -0.72984  -0.72787  -0.70933  -0.70682
 Alpha  occ. eigenvalues --   -0.67189  -0.67089  -0.66213  -0.66169  -0.64542
 Alpha  occ. eigenvalues --   -0.64224  -0.63557  -0.62639  -0.62500  -0.61574
 Alpha  occ. eigenvalues --   -0.60867  -0.60698  -0.60484  -0.59634  -0.59244
 Alpha  occ. eigenvalues --   -0.58994  -0.58103  -0.56690  -0.56446  -0.55963
 Alpha  occ. eigenvalues --   -0.55718  -0.55631  -0.55402  -0.54379  -0.53997
 Alpha  occ. eigenvalues --   -0.53908  -0.53548  -0.53404  -0.53086  -0.53017
 Alpha  occ. eigenvalues --   -0.52791  -0.52070  -0.51607  -0.50510  -0.50259
 Alpha  occ. eigenvalues --   -0.50021  -0.49929  -0.49311  -0.49141  -0.48786
 Alpha  occ. eigenvalues --   -0.48641  -0.48309  -0.48147  -0.47506  -0.47130
 Alpha  occ. eigenvalues --   -0.46779  -0.45786  -0.45096  -0.44469  -0.43316
 Alpha  occ. eigenvalues --   -0.41052  -0.40934  -0.39113  -0.37887  -0.37883
 Alpha  occ. eigenvalues --   -0.37307  -0.37143  -0.36858  -0.35765  -0.34983
 Alpha  occ. eigenvalues --   -0.34612  -0.33854  -0.33369  -0.33191  -0.32885
 Alpha  occ. eigenvalues --   -0.32536  -0.32304  -0.32103  -0.31755  -0.30709
 Alpha  occ. eigenvalues --   -0.30391  -0.29852  -0.25696  -0.25315
 Alpha virt. eigenvalues --    0.03115   0.03960   0.06407   0.08056   0.09207
 Alpha virt. eigenvalues --    0.09340   0.09874   0.10146   0.11105   0.12164
 Alpha virt. eigenvalues --    0.12682   0.14312   0.14354   0.14709   0.14994

 Mulliken charges:
               1
     1  N   -0.311149
     2  C    0.180812
     3  C    0.059725
     4  N   -0.260361
     5  C    0.141840
     6  H    0.026437
     7  N   -0.293072
     8  C    0.132462
     9  H    0.011978
    10  N   -0.285846
    11  C    0.253564
    12  C    0.092989
    13  N   -0.055067
    14  H    0.111517
    15  H    0.082232
    16  H    0.024407
    17  H    0.028879
    18  H    0.027169
    19  N   -0.301569
    20  C    0.249175
    21  C    0.181635
    22  N   -0.114353
    23  H    0.115153
    24  H    0.115753
    25  N   -0.307167
    26  C    0.236613
    27  N   -0.138684
    28  H    0.114516
    29  C    0.187648
    30  O   -0.322840
    31  C   -0.017427
    32  N   -0.224362
    33  C    0.123552
    34  H    0.018025
    35  H    0.028546
    36  H    0.028430
    37  H    0.022827
    38  H    0.062778
    39  H    0.058055
    40  H    0.074387
    41  H    0.025863
    42  C   -0.111527
    43  O   -0.265878
    44  C    0.170571
    45  H    0.130719
    46  N   -0.120494
    47  O   -0.339454
    48  C    0.336694
    49  H    0.044884
    50  C    0.164655
    51  C    0.036277
    52  N   -0.277187
    53  H    0.035209
    54  H    0.038436
    55  H    0.029463
    56  H    0.122618
    57  H    0.116233
    58  N   -0.055831
    59  C    0.093703
    60  C    0.240413
    61  N   -0.271232
    62  H    0.032254
    63  C    0.171510
    64  N   -0.308315
    65  H    0.038317
    66  C    0.129903
    67  N   -0.257416
    68  C    0.011987
    69  C    0.181649
    70  N   -0.303231
 Sum of Mulliken charges =  -0.00000

 Dipole moment (field-independent basis, Debye):
    X=             -7.7012    Y=              6.6477    Z=             -2.1953  Tot=             10.4077
 Quadrupole moment (field-independent basis, Debye-Ang):
   XX=           -154.5652   YY=           -221.7409   ZZ=           -255.2660
   XY=             -0.3610   XZ=             -7.4916   YZ=              9.6723

 Normal termination of Gaussian 16 at Tue Jan 23 10:09:14 2018.
