 Gaussian 16, Revision A.03,
 Gaussian 16:  EM64L-G16RevA.03 25-Dec-2016

 ---------------------------------------
 #p wb97xd/cc-pvdz sp scf=(maxcycles=20)
 ---------------------------------------

 ------------------
 Base pair stacking
 ------------------
 Symbolic Z-matrix:
 Charge =  0 Multiplicity = 1

                         Standard orientation:
 ---------------------------------------------------------------------
 Center     Atomic      Atomic             Coordinates (Angstroms)
 Number     Number       Type             X           Y           Z
 ---------------------------------------------------------------------
      1          7           0       -6.598751   -1.401561    0.499610
      2          6           0       -7.951226   -0.854008    0.278292
      3          6           0       -4.436113   -1.596130    0.849554
      4          7           0       -4.935262   -2.888514    0.776543
      5          6           0       -6.218181   -2.719571    0.568639
      6          1           0       -6.940048   -3.529124    0.456913
      7          7           0       -2.983621    0.248656    1.073115
      8          6           0       -4.060399    1.020913    0.894958
      9          1           0       -3.872528    2.093481    0.919033
     10          7           0       -5.328446    0.668849    0.692479
     11          6           0       -5.449663   -0.668906    0.680692
     12          6           0       -3.138632   -1.093269    1.055901
     13          7           0       -2.064958   -1.865828    1.233561
     14          1           0       -2.132964   -2.864112    1.228382
     15          1           0       -1.156517   -1.473320    1.377806
     16          1           0       -8.560984   -1.162987    1.008291
     17          1           0       -7.911487    0.144771    0.278904
     18          1           0       -8.301520   -1.171417   -0.602926
     19          7           0       -2.970803    2.254488   -1.574152
     20          6           0       -1.629470    2.052911   -1.354465
     21          6           0       -3.694807    3.518747   -1.332999
     22          7           0        1.464206    3.252978   -0.329415
     23          1           0        2.397509    2.906072   -0.240894
     24          1           0        1.307201    4.205182   -0.066019
     25          7           0       -0.754583    2.968543   -0.885180
     26          6           0        0.467321    2.476926   -0.780937
     27          7           0        0.808449    1.187545   -1.110546
     28          1           0        1.767930    0.898024   -0.998650
     29          6           0       -0.075262    0.228382   -1.595248
     30          8           0        0.335037   -0.907813   -1.862590
     31          6           0       -1.391895    0.741775   -1.712647
     32          7           0       -2.560546    0.132485   -2.148428
     33          6           0       -3.468200    1.065505   -2.049073
     34          1           0       -4.519580    0.939298   -2.309746
     35          1           0       -4.418761    3.367215   -0.660878
     36          1           0       -3.056906    4.204563   -0.985154
     37          1           0       -4.097086    3.842831   -2.188541
     38          1           0        6.555056   -0.106300    0.389708
     39          1           0        6.882711    0.133219   -1.324907
     40          1           0        5.580939    1.030622   -0.542968
     41          1           0        5.054728   -4.316590   -1.390485
     42          6           0        4.711739   -3.284880   -1.311905
     43          8           0        2.452611   -3.803762   -1.816104
     44          6           0        3.329736   -2.987606   -1.534477
     45          1           0        2.034401   -1.403384   -1.560709
     46          7           0        3.001938   -1.652514   -1.410615
     47          8           0        3.464711    0.535573   -1.016526
     48          6           0        3.849245   -0.617307   -1.104094
     49          1           0        6.622791   -2.469886   -0.832864
     50          6           0        5.562369   -2.296622   -1.011300
     51          6           0        6.108170    0.088701   -0.573795
     52          7           0        5.165568   -0.983856   -0.903749
     53          1           0        3.903059    3.940952    2.347048
     54          1           0        2.791583    3.804813    1.160378
     55          1           0        4.377842    3.633153    0.816276
     56          1           0        1.325385   -3.012207    2.073574
     57          1           0        2.935335   -2.640149    2.497524
     58          7           0        2.047567   -2.325753    2.159543
     59          6           0        1.837142   -1.047657    1.838042
     60          6           0        2.449954    1.235814    1.569835
     61          7           0        1.247559    1.629490    1.118514
     62          1           0       -0.594404    0.829689    0.708501
     63          6           0        0.408005    0.597379    1.065519
     64          7           0        0.616858   -0.683462    1.387091
     65          1           0        5.541779    1.525319    2.469261
     66          6           0        4.539712    1.167729    2.230645
     67          7           0        4.142188   -0.074751    2.356745
     68          6           0        2.818900   -0.045425    1.941057
     69          6           0        3.667816    3.464268    1.500037
     70          7           0        3.566651    2.014960    1.759385
 ---------------------------------------------------------------------

 SCF Done:  E(RwB97XD) =  -2048.64266725     A.U. after   15 cycles

 The electronic state is 1-A.
 Alpha  occ. eigenvalues --  -19.25921 -19.21896 -19.20606 -14.52404 -14.52020
 Alpha  occ. eigenvalues --  -14.49306 -14.48616 -14.47893 -14.47448 -14.46367
 Alpha  occ. eigenvalues --  -14.45188 -14.44967 -14.43500 -14.42854 -14.42255
 Alpha  occ. eigenvalues --  -14.41962 -14.41661 -14.41590 -14.40681 -14.40668
 Alpha  occ. eigenvalues --  -10.45513 -10.40801 -10.40029 -10.39135 -10.38089
 Alpha  occ. eigenvalues --  -10.37716 -10.37542 -10.36489 -10.36021 -10.35299
 Alpha  occ. eigenvalues --  -10.35104 -10.34612 -10.34272 -10.34231 -10.33955
 Alpha  occ. eigenvalues --  -10.33713 -10.33116 -10.31700 -10.31434 -10.31025
 Alpha  occ. eigenvalues --  -10.30660 -10.29102 -10.28069  -1.19523  -1.14876
 Alpha  occ. eigenvalues --   -1.13480  -1.12944  -1.11900  -1.10568  -1.09309
 Alpha  occ. eigenvalues --   -1.09138  -1.08211  -1.05573  -1.04053  -1.02484
 Alpha  occ. eigenvalues --   -1.01074  -1.00896  -0.99629  -0.98658  -0.97516
 Alpha  occ. eigenvalues --   -0.96609  -0.95971  -0.93243  -0.90994  -0.87339
 Alpha  occ. eigenvalues --   -0.86032  -0.84509  -0.84008  -0.83671  -0.82853
 Alpha  occ. eigenvalues --   -0.82418  -0.78835  -0.76678  -0.74974  -0.74474
 Alpha  occ. eigenvalues --   -0.73556  -0.73457  -0.73354  -0.71704  -0.70147
 Alpha  occ. eigenvalues --   -0.67476  -0.66905  -0.66651  -0.66425  -0.64452
 Alpha  occ. eigenvalues --   -0.64053  -0.63724  -0.63322  -0.63011  -0.62014
 Alpha  occ. eigenvalues --   -0.60885  -0.60607  -0.60130  -0.59519  -0.59381
 Alpha  occ. eigenvalues --   -0.59238  -0.58096  -0.57646  -0.56938  -0.56796
 Alpha  occ. eigenvalues --   -0.56071  -0.56013  -0.55625  -0.54893  -0.54314
 Alpha  occ. eigenvalues --   -0.54147  -0.53567  -0.53099  -0.52828  -0.52611
 Alpha  occ. eigenvalues --   -0.52430  -0.52264  -0.51884  -0.51354  -0.50670
 Alpha  occ. eigenvalues --   -0.50036  -0.49698  -0.49415  -0.49128  -0.48661
 Alpha  occ. eigenvalues --   -0.48574  -0.48350  -0.48133  -0.47928  -0.47415
 Alpha  occ. eigenvalues --   -0.47338  -0.46369  -0.45401  -0.43867  -0.43087
 Alpha  occ. eigenvalues --   -0.41783  -0.40540  -0.39552  -0.37828  -0.37710
 Alpha  occ. eigenvalues --   -0.37307  -0.37285  -0.36330  -0.35870  -0.34552
 Alpha  occ. eigenvalues --   -0.34297  -0.34016  -0.33826  -0.33099  -0.32638
 Alpha  occ. eigenvalues --   -0.32390  -0.31879  -0.31807  -0.31454  -0.31025
 Alpha  occ. eigenvalues --   -0.29679  -0.28038  -0.26363  -0.25129
 Alpha virt. eigenvalues --    0.03171   0.04425   0.07305   0.07543   0.08681
 Alpha virt. eigenvalues --    0.09043   0.09683   0.10438   0.11253   0.11822
 Alpha virt. eigenvalues --    0.13040   0.13719   0.14116   0.14553   0.14723

 Mulliken charges:
               1
     1  N   -0.312801
     2  C    0.180567
     3  C    0.044477
     4  N   -0.260249
     5  C    0.134783
     6  H    0.028207
     7  N   -0.280455
     8  C    0.129753
     9  H    0.007752
    10  N   -0.289935
    11  C    0.241396
    12  C    0.116534
    13  N   -0.054682
    14  H    0.107230
    15  H    0.087268
    16  H    0.026686
    17  H    0.032868
    18  H    0.027404
    19  N   -0.299201
    20  C    0.230405
    21  C    0.176642
    22  N   -0.063402
    23  H    0.091941
    24  H    0.113411
    25  N   -0.279622
    26  C    0.202376
    27  N   -0.117762
    28  H    0.121569
    29  C    0.127559
    30  O   -0.317917
    31  C    0.037032
    32  N   -0.219483
    33  C    0.115988
    34  H    0.026185
    35  H    0.032209
    36  H    0.026830
    37  H    0.024312
    38  H    0.061240
    39  H    0.060630
    40  H    0.069530
    41  H    0.031144
    42  C   -0.113982
    43  O   -0.264481
    44  C    0.179811
    45  H    0.134149
    46  N   -0.134731
    47  O   -0.347445
    48  C    0.360061
    49  H    0.047366
    50  C    0.174848
    51  C    0.041545
    52  N   -0.290610
    53  H    0.037981
    54  H    0.005051
    55  H    0.033050
    56  H    0.120724
    57  H    0.116798
    58  N   -0.069396
    59  C    0.110550
    60  C    0.254435
    61  N   -0.312222
    62  H    0.047580
    63  C    0.190852
    64  N   -0.305512
    65  H    0.030820
    66  C    0.120096
    67  N   -0.257381
    68  C    0.006703
    69  C    0.179325
    70  N   -0.314404
 Sum of Mulliken charges =  -0.00000

 Dipole moment (field-independent basis, Debye):
    X=              6.7069    Y=              5.7719    Z=              3.7060  Tot=              9.5933
 Quadrupole moment (field-independent basis, Debye-Ang):
   XX=           -146.0724   YY=           -225.6788   ZZ=           -256.2160
   XY=              6.6196   XZ=              8.9752   YZ=            -12.3421

 Normal termination of Gaussian 16 at Tue Jan 23 06:27:42 2018.
