 Gaussian 16, Revision A.03,
 Gaussian 16:  EM64L-G16RevA.03 25-Dec-2016

 ---------------------------------------
 #p wb97xd/cc-pvdz sp scf=(maxcycles=20)
 ---------------------------------------

 ------------------
 Base pair stacking
 ------------------
 Symbolic Z-matrix:
 Charge =  0 Multiplicity = 1

                         Standard orientation:
 ---------------------------------------------------------------------
 Center     Atomic      Atomic             Coordinates (Angstroms)
 Number     Number       Type             X           Y           Z
 ---------------------------------------------------------------------
      1          7           0        4.241404   -1.999502   -1.894150
      2          6           0        5.600779   -1.604458   -2.311348
      3          6           0        2.078762   -2.004723   -1.493853
      4          7           0        2.556279   -3.233734   -1.062315
      5          6           0        3.840084   -3.181398   -1.320753
      6          1           0        4.547812   -3.984137   -1.111757
      7          7           0        0.658199   -0.190941   -1.998964
      8          6           0        1.745901    0.432978   -2.462880
      9          1           0        1.575636    1.434757   -2.854934
     10          7           0        3.006421    0.007208   -2.514959
     11          6           0        3.105824   -1.233178   -2.009005
     12          6           0        0.791277   -1.437869   -1.496445
     13          7           0       -0.293322   -2.062308   -1.032883
     14          1           0       -0.241556   -2.986118   -0.651962
     15          1           0       -1.194103   -1.628224   -1.050529
     16          1           0        5.938426   -2.244752   -3.001404
     17          1           0        5.577244   -0.682458   -2.696695
     18          1           0        6.211650   -1.617541   -1.519726
     19          7           0        5.370779    2.197545    0.624496
     20          6           0        4.013726    2.094031    0.813604
     21          6           0        6.091556    3.437467    0.272668
     22          7           0        0.866901    3.561488    0.889864
     23          1           0       -0.075236    3.277701    1.066117
     24          1           0        1.016328    4.525186    0.667010
     25          7           0        3.117968    3.099545    0.710609
     26          6           0        1.884861    2.689637    0.949453
     27          7           0        1.552307    1.394554    1.265173
     28          1           0        0.583046    1.171590    1.431862
     29          6           0        2.457437    0.343763    1.376612
     30          8           0        2.053236   -0.789022    1.666724
     31          6           0        3.786306    0.768709    1.122791
     32          7           0        4.976627    0.054552    1.127692
     33          6           0        5.886832    0.940917    0.827539
     34          1           0        6.953408    0.730823    0.740737
     35          1           0        6.563642    3.314482   -0.599575
     36          1           0        5.438235    4.189259    0.193645
     37          1           0        6.758866    3.650748    0.985427
     38          1           0       -4.466370    0.580103    1.511321
     39          1           0       -4.240202    0.663315    3.256760
     40          1           0       -3.164604    1.561243    2.185221
     41          1           0       -2.857161   -3.865119    2.404084
     42          6           0       -2.468685   -2.851423    2.305426
     43          8           0       -0.214517   -3.543295    2.046328
     44          6           0       -1.064124   -2.655394    2.114089
     45          1           0        0.306725   -1.156385    1.864999
     46          7           0       -0.678312   -1.334923    2.001141
     47          8           0       -1.053382    0.904077    1.942993
     48          6           0       -1.488760   -0.228585    2.053407
     49          1           0       -4.359884   -1.887292    2.504503
     50          6           0       -3.284438   -1.792129    2.360618
     51          6           0       -3.734944    0.651795    2.302480
     52          7           0       -2.830052   -0.499304    2.240109
     53          1           0       -6.218269    3.690489   -2.574349
     54          1           0       -4.785880    3.850487   -1.809655
     55          1           0       -6.179048    4.043279   -0.981412
     56          1           0       -3.789579   -2.950930   -0.325209
     57          1           0       -5.444790   -2.541136   -0.374668
     58          7           0       -4.491064   -2.251550   -0.462839
     59          6           0       -4.170048   -0.988627   -0.751161
     60          6           0       -4.631104    1.292689   -1.245894
     61          7           0       -3.341914    1.652999   -1.358169
     62          1           0       -1.477688    0.812912   -1.218460
     63          6           0       -2.544895    0.607677   -1.146166
     64          7           0       -2.864476   -0.658018   -0.857261
     65          1           0       -7.843381    1.657948   -1.246429
     66          6           0       -6.823091    1.277839   -1.187648
     67          7           0       -6.505165    0.034914   -0.919784
     68          6           0       -5.118238    0.030630   -0.953591
     69          6           0       -5.729589    3.534666   -1.715908
     70          7           0       -5.738086    2.093987   -1.395974
 ---------------------------------------------------------------------

 SCF Done:  E(RwB97XD) =  -2048.74796160     A.U. after   15 cycles

 The electronic state is 1-A.
 Alpha  occ. eigenvalues --  -19.25476 -19.21614 -19.20750 -14.52536 -14.51985
 Alpha  occ. eigenvalues --  -14.49243 -14.48777 -14.47908 -14.47350 -14.47006
 Alpha  occ. eigenvalues --  -14.46835 -14.45490 -14.44896 -14.44692 -14.42536
 Alpha  occ. eigenvalues --  -14.42234 -14.41524 -14.40739 -14.40475 -14.40331
 Alpha  occ. eigenvalues --  -10.45033 -10.41445 -10.40431 -10.39734 -10.38414
 Alpha  occ. eigenvalues --  -10.38074 -10.37609 -10.37476 -10.36186 -10.35390
 Alpha  occ. eigenvalues --  -10.34711 -10.34575 -10.33900 -10.33869 -10.33268
 Alpha  occ. eigenvalues --  -10.33009 -10.32898 -10.32844 -10.31312 -10.30772
 Alpha  occ. eigenvalues --  -10.30036 -10.28477 -10.28089  -1.18993  -1.15347
 Alpha  occ. eigenvalues --   -1.13412  -1.12643  -1.10959  -1.10580  -1.09812
 Alpha  occ. eigenvalues --   -1.08883  -1.08727  -1.05266  -1.04930  -1.02013
 Alpha  occ. eigenvalues --   -1.01112  -1.00377  -0.99927  -0.98813  -0.97311
 Alpha  occ. eigenvalues --   -0.97004  -0.96238  -0.92637  -0.90748  -0.87873
 Alpha  occ. eigenvalues --   -0.86000  -0.84502  -0.83327  -0.83158  -0.82855
 Alpha  occ. eigenvalues --   -0.81645  -0.78513  -0.77344  -0.75158  -0.74936
 Alpha  occ. eigenvalues --   -0.73844  -0.72956  -0.72568  -0.70794  -0.70645
 Alpha  occ. eigenvalues --   -0.67629  -0.67147  -0.66190  -0.65973  -0.64565
 Alpha  occ. eigenvalues --   -0.64505  -0.63675  -0.62814  -0.62436  -0.62026
 Alpha  occ. eigenvalues --   -0.60823  -0.60486  -0.60122  -0.59540  -0.59246
 Alpha  occ. eigenvalues --   -0.59074  -0.58551  -0.57020  -0.56252  -0.55848
 Alpha  occ. eigenvalues --   -0.55502  -0.55455  -0.55280  -0.54749  -0.54279
 Alpha  occ. eigenvalues --   -0.53822  -0.53712  -0.53564  -0.53191  -0.53006
 Alpha  occ. eigenvalues --   -0.52530  -0.51992  -0.51161  -0.50429  -0.50270
 Alpha  occ. eigenvalues --   -0.50100  -0.49731  -0.49551  -0.49272  -0.48989
 Alpha  occ. eigenvalues --   -0.48534  -0.48327  -0.48149  -0.47919  -0.47300
 Alpha  occ. eigenvalues --   -0.46516  -0.45710  -0.45616  -0.44685  -0.43336
 Alpha  occ. eigenvalues --   -0.41001  -0.40889  -0.39177  -0.38079  -0.37836
 Alpha  occ. eigenvalues --   -0.37624  -0.37510  -0.36679  -0.35523  -0.35171
 Alpha  occ. eigenvalues --   -0.34713  -0.34220  -0.33251  -0.33107  -0.33061
 Alpha  occ. eigenvalues --   -0.32729  -0.32641  -0.32097  -0.31630  -0.30427
 Alpha  occ. eigenvalues --   -0.30363  -0.30175  -0.25933  -0.25469
 Alpha virt. eigenvalues --    0.03379   0.03700   0.06629   0.08250   0.08750
 Alpha virt. eigenvalues --    0.08941   0.09549   0.10360   0.11230   0.11655
 Alpha virt. eigenvalues --    0.13630   0.14060   0.14306   0.14950   0.14996

 Mulliken charges:
               1
     1  N   -0.308055
     2  C    0.182218
     3  C    0.057760
     4  N   -0.253663
     5  C    0.150189
     6  H    0.027676
     7  N   -0.297366
     8  C    0.127601
     9  H    0.009876
    10  N   -0.281889
    11  C    0.248712
    12  C    0.083876
    13  N   -0.068592
    14  H    0.116286
    15  H    0.082878
    16  H    0.020677
    17  H    0.029005
    18  H    0.029216
    19  N   -0.310794
    20  C    0.260141
    21  C    0.181571
    22  N   -0.123903
    23  H    0.120005
    24  H    0.118790
    25  N   -0.313010
    26  C    0.249267
    27  N   -0.146359
    28  H    0.120867
    29  C    0.193830
    30  O   -0.318873
    31  C   -0.015083
    32  N   -0.232485
    33  C    0.121780
    34  H    0.023136
    35  H    0.027100
    36  H    0.030979
    37  H    0.025463
    38  H    0.066791
    39  H    0.058377
    40  H    0.075506
    41  H    0.023840
    42  C   -0.125359
    43  O   -0.262819
    44  C    0.165165
    45  H    0.134545
    46  N   -0.122858
    47  O   -0.352655
    48  C    0.353764
    49  H    0.041042
    50  C    0.175073
    51  C    0.037208
    52  N   -0.278196
    53  H    0.034161
    54  H    0.041875
    55  H    0.029809
    56  H    0.118827
    57  H    0.118572
    58  N   -0.064079
    59  C    0.084921
    60  C    0.237942
    61  N   -0.266689
    62  H    0.033012
    63  C    0.172632
    64  N   -0.312382
    65  H    0.039826
    66  C    0.140240
    67  N   -0.259822
    68  C    0.022187
    69  C    0.180375
    70  N   -0.309653
 Sum of Mulliken charges =  -0.00000

 Dipole moment (field-independent basis, Debye):
    X=             -7.5578    Y=              7.4261    Z=             -0.4111  Tot=             10.6036
 Quadrupole moment (field-independent basis, Debye-Ang):
   XX=           -161.2391   YY=           -220.6463   ZZ=           -250.3459
   XY=              3.2014   XZ=            -16.7322   YZ=              6.1044

 Normal termination of Gaussian 16 at Tue Jan 23 00:13:00 2018.
