 Gaussian 16, Revision A.03,
 Gaussian 16:  EM64L-G16RevA.03 25-Dec-2016

 ---------------------------------------
 #p wb97xd/cc-pvdz sp scf=(maxcycles=20)
 ---------------------------------------

 ------------------
 Base pair stacking
 ------------------
 Symbolic Z-matrix:
 Charge =  0 Multiplicity = 1

                         Standard orientation:
 ---------------------------------------------------------------------
 Center     Atomic      Atomic             Coordinates (Angstroms)
 Number     Number       Type             X           Y           Z
 ---------------------------------------------------------------------
      1          7           0        6.078816   -1.503269   -0.854467
      2          6           0        7.450095   -0.967462   -0.751887
      3          6           0        3.896515   -1.680528   -1.062884
      4          7           0        4.379774   -2.973928   -0.927586
      5          6           0        5.675194   -2.815357   -0.807427
      6          1           0        6.390264   -3.628739   -0.680842
      7          7           0        2.460970    0.171476   -1.331683
      8          6           0        3.557850    0.933624   -1.271948
      9          1           0        3.384899    2.005260   -1.361095
     10          7           0        4.830310    0.572449   -1.119343
     11          6           0        4.932036   -0.763274   -1.019722
     12          6           0        2.596677   -1.168665   -1.228331
     13          7           0        1.502932   -1.931131   -1.287731
     14          1           0        1.556225   -2.927722   -1.215678
     15          1           0        0.593468   -1.532402   -1.406200
     16          1           0        8.010610   -1.338357   -1.492460
     17          1           0        7.425290    0.029388   -0.821078
     18          1           0        7.847481   -1.229067    0.127683
     19          7           0        3.548502    2.274031    1.468758
     20          6           0        2.194897    2.085243    1.326777
     21          6           0        4.267553    3.535200    1.198316
     22          7           0       -0.943810    3.320292    0.499181
     23          1           0       -1.883582    2.981600    0.462461
     24          1           0       -0.794684    4.274050    0.236858
     25          7           0        1.301494    3.012670    0.919640
     26          6           0        0.071493    2.531686    0.882813
     27          7           0       -0.260332    1.241472    1.218607
     28          1           0       -1.227148    0.960618    1.160710
     29          6           0        0.642423    0.270283    1.640155
     30          8           0        0.239145   -0.865528    1.919499
     31          6           0        1.967945    0.772173    1.684747
     32          7           0        3.155175    0.149153    2.044221
     33          6           0        4.063145    1.076136    1.901009
     34          1           0        5.126998    0.938976    2.097669
     35          1           0        4.949221    3.385383    0.482984
     36          1           0        3.615958    4.229663    0.895987
     37          1           0        4.722399    3.846842    2.031867
     38          1           0       -6.096195    0.008530    0.047797
     39          1           0       -6.319918    0.231922    1.781200
     40          1           0       -5.059180    1.127668    0.932942
     41          1           0       -4.528559   -4.232341    1.692205
     42          6           0       -4.182194   -3.202537    1.604189
     43          8           0       -1.901631   -3.744328    1.968349
     44          6           0       -2.787011   -2.918394    1.747639
     45          1           0       -1.479170   -1.344639    1.713609
     46          7           0       -2.455941   -1.584616    1.618475
     47          8           0       -2.922875    0.611137    1.275225
     48          6           0       -3.311194   -0.539608    1.373409
     49          1           0       -6.111323   -2.367614    1.247613
     50          6           0       -5.040802   -2.204504    1.364746
     51          6           0       -5.591524    0.189581    0.985132
     52          7           0       -4.640082   -0.893760    1.247545
     53          1           0       -4.433508    3.896336   -2.460372
     54          1           0       -3.255472    3.822389   -1.333924
     55          1           0       -4.820804    3.705533   -0.886510
     56          1           0       -1.948160   -3.068567   -1.844931
     57          1           0       -3.574770   -2.696429   -2.199522
     58          7           0       -2.663851   -2.376159   -1.937106
     59          6           0       -2.415602   -1.082939   -1.719973
     60          6           0       -2.977210    1.224981   -1.579223
     61          7           0       -1.744326    1.626253   -1.227938
     62          1           0        0.106654    0.822099   -0.870401
     63          6           0       -0.918607    0.584549   -1.150917
     64          7           0       -1.165331   -0.711439   -1.368015
     65          1           0       -6.112453    1.509791   -2.314935
     66          6           0       -5.103399    1.150717   -2.110445
     67          7           0       -4.732676   -0.104900   -2.171002
     68          6           0       -3.386698   -0.071824   -1.836398
     69          6           0       -4.155371    3.475689   -1.596834
     70          7           0       -4.091468    2.010115   -1.758109
 ---------------------------------------------------------------------

 SCF Done:  E(RwB97XD) =  -2048.72444870     A.U. after   15 cycles

 The electronic state is 1-A.
 Alpha  occ. eigenvalues --  -19.25679 -19.21778 -19.20369 -14.52502 -14.52237
 Alpha  occ. eigenvalues --  -14.48953 -14.48269 -14.48102 -14.47654 -14.46393
 Alpha  occ. eigenvalues --  -14.45503 -14.45436 -14.44098 -14.43580 -14.42661
 Alpha  occ. eigenvalues --  -14.41635 -14.41574 -14.41272 -14.40499 -14.40458
 Alpha  occ. eigenvalues --  -10.45283 -10.40577 -10.39904 -10.39823 -10.37952
 Alpha  occ. eigenvalues --  -10.37848 -10.37604 -10.37062 -10.35718 -10.35513
 Alpha  occ. eigenvalues --  -10.34837 -10.34466 -10.34236 -10.33849 -10.33553
 Alpha  occ. eigenvalues --  -10.33373 -10.32947 -10.32404 -10.31221 -10.30922
 Alpha  occ. eigenvalues --  -10.30408 -10.28704 -10.27632  -1.19319  -1.15175
 Alpha  occ. eigenvalues --   -1.12931  -1.12813  -1.11522  -1.10231  -1.09217
 Alpha  occ. eigenvalues --   -1.09069  -1.08136  -1.05301  -1.04690  -1.02285
 Alpha  occ. eigenvalues --   -1.01034  -1.00774  -0.99152  -0.98236  -0.97200
 Alpha  occ. eigenvalues --   -0.96652  -0.96179  -0.92992  -0.90848  -0.87671
 Alpha  occ. eigenvalues --   -0.86146  -0.84162  -0.83648  -0.83395  -0.82550
 Alpha  occ. eigenvalues --   -0.82060  -0.78670  -0.76995  -0.74913  -0.74193
 Alpha  occ. eigenvalues --   -0.73251  -0.73168  -0.73114  -0.71352  -0.70440
 Alpha  occ. eigenvalues --   -0.66952  -0.66805  -0.66592  -0.66304  -0.64362
 Alpha  occ. eigenvalues --   -0.64194  -0.63441  -0.63020  -0.62590  -0.61222
 Alpha  occ. eigenvalues --   -0.60812  -0.60630  -0.60511  -0.59556  -0.59303
 Alpha  occ. eigenvalues --   -0.58997  -0.57943  -0.57098  -0.56679  -0.56333
 Alpha  occ. eigenvalues --   -0.55853  -0.55698  -0.55421  -0.54818  -0.54274
 Alpha  occ. eigenvalues --   -0.54024  -0.53369  -0.53288  -0.53074  -0.52563
 Alpha  occ. eigenvalues --   -0.52489  -0.52208  -0.52015  -0.51066  -0.50437
 Alpha  occ. eigenvalues --   -0.49829  -0.49589  -0.49266  -0.49036  -0.48738
 Alpha  occ. eigenvalues --   -0.48489  -0.48264  -0.47954  -0.47303  -0.47112
 Alpha  occ. eigenvalues --   -0.47055  -0.45585  -0.44934  -0.44401  -0.43654
 Alpha  occ. eigenvalues --   -0.41307  -0.41029  -0.39348  -0.37871  -0.37687
 Alpha  occ. eigenvalues --   -0.37493  -0.36940  -0.36746  -0.35950  -0.34542
 Alpha  occ. eigenvalues --   -0.34198  -0.33859  -0.33707  -0.32954  -0.32391
 Alpha  occ. eigenvalues --   -0.32277  -0.32143  -0.31818  -0.31564  -0.31096
 Alpha  occ. eigenvalues --   -0.30696  -0.29584  -0.26026  -0.24567
 Alpha virt. eigenvalues --    0.03261   0.04023   0.07077   0.07600   0.08756
 Alpha virt. eigenvalues --    0.09553   0.09992   0.10558   0.10919   0.11565
 Alpha virt. eigenvalues --    0.12909   0.13968   0.14057   0.14859   0.15054

 Mulliken charges:
               1
     1  N   -0.313871
     2  C    0.180566
     3  C    0.055819
     4  N   -0.261100
     5  C    0.135533
     6  H    0.027048
     7  N   -0.282121
     8  C    0.142527
     9  H    0.008223
    10  N   -0.290015
    11  C    0.245981
    12  C    0.110735
    13  N   -0.055969
    14  H    0.108384
    15  H    0.085544
    16  H    0.026127
    17  H    0.030700
    18  H    0.027049
    19  N   -0.291233
    20  C    0.224094
    21  C    0.178399
    22  N   -0.069275
    23  H    0.112216
    24  H    0.108621
    25  N   -0.298574
    26  C    0.193333
    27  N   -0.144616
    28  H    0.129789
    29  C    0.159574
    30  O   -0.322750
    31  C    0.015935
    32  N   -0.223033
    33  C    0.128182
    34  H    0.017122
    35  H    0.029689
    36  H    0.026240
    37  H    0.023044
    38  H    0.063650
    39  H    0.057866
    40  H    0.065222
    41  H    0.029305
    42  C   -0.113257
    43  O   -0.265404
    44  C    0.174808
    45  H    0.132149
    46  N   -0.125652
    47  O   -0.339383
    48  C    0.342024
    49  H    0.047028
    50  C    0.171814
    51  C    0.040989
    52  N   -0.285080
    53  H    0.037589
    54  H    0.028812
    55  H    0.027853
    56  H    0.123742
    57  H    0.117655
    58  N   -0.063485
    59  C    0.097191
    60  C    0.262667
    61  N   -0.298122
    62  H    0.044211
    63  C    0.164034
    64  N   -0.299861
    65  H    0.034768
    66  C    0.120068
    67  N   -0.258066
    68  C    0.010114
    69  C    0.180747
    70  N   -0.303911
 Sum of Mulliken charges =  -0.00000

 Dipole moment (field-independent basis, Debye):
    X=             -7.3289    Y=              6.0674    Z=             -3.4618  Tot=             10.1247
 Quadrupole moment (field-independent basis, Debye-Ang):
   XX=           -149.2413   YY=           -223.9290   ZZ=           -256.6101
   XY=             -4.7218   XZ=              3.0196   YZ=             11.5557

 Normal termination of Gaussian 16 at Tue Jan 23 00:48:44 2018.
