 Gaussian 16, Revision A.03,
 Gaussian 16:  EM64L-G16RevA.03 25-Dec-2016

 ---------------------------------------
 #p wb97xd/cc-pvdz sp scf=(maxcycles=20)
 ---------------------------------------

 ------------------
 Base pair stacking
 ------------------
 Symbolic Z-matrix:
 Charge =  0 Multiplicity = 1

                         Standard orientation:
 ---------------------------------------------------------------------
 Center     Atomic      Atomic             Coordinates (Angstroms)
 Number     Number       Type             X           Y           Z
 ---------------------------------------------------------------------
      1          7           0       -6.618745   -1.410257    0.488537
      2          6           0       -7.975623   -0.857663    0.311013
      3          6           0       -4.452499   -1.613891    0.809790
      4          7           0       -4.945736   -2.902170    0.662232
      5          6           0       -6.231083   -2.727928    0.474596
      6          1           0       -6.949750   -3.533133    0.319370
      7          7           0       -3.007515    0.221837    1.133988
      8          6           0       -4.089486    0.997595    1.011110
      9          1           0       -3.906779    2.067730    1.098825
     10          7           0       -5.357312    0.651550    0.797167
     11          6           0       -5.471938   -0.683669    0.705120
     12          6           0       -3.155959   -1.117404    1.036534
     13          7           0       -2.077090   -1.893444    1.158914
     14          1           0       -2.140160   -2.889937    1.093679
     15          1           0       -1.169514   -1.505460    1.319895
     16          1           0       -8.578108   -1.213672    1.025476
     17          1           0       -7.940861    0.139437    0.371943
     18          1           0       -8.331214   -1.122955   -0.585184
     19          7           0       -2.940702    2.300330   -1.599067
     20          6           0       -1.598770    2.095326   -1.386374
     21          6           0       -3.655428    3.573460   -1.377646
     22          7           0        1.510177    3.297598   -0.411320
     23          1           0        2.442178    2.947048   -0.323458
     24          1           0        1.360839    4.255839   -0.166002
     25          7           0       -0.714765    3.015085   -0.942946
     26          6           0        0.505127    2.518472   -0.838812
     27          7           0        0.836088    1.220692   -1.145011
     28          1           0        1.794807    0.927834   -1.035154
     29          6           0       -0.057108    0.257158   -1.602889
     30          8           0        0.344427   -0.886604   -1.850505
     31          6           0       -1.371713    0.775839   -1.719844
     32          7           0       -2.547432    0.164770   -2.133566
     33          6           0       -3.448860    1.104941   -2.045683
     34          1           0       -4.503082    0.979699   -2.295092
     35          1           0       -4.374602    3.439833   -0.696672
     36          1           0       -3.010706    4.262390   -1.049032
     37          1           0       -4.062955    3.882549   -2.236243
     38          1           0        6.587495   -0.076437    0.333878
     39          1           0        6.902219    0.126417   -1.387877
     40          1           0        5.612181    1.047115   -0.613617
     41          1           0        5.048260   -4.312935   -1.348207
     42          6           0        4.711866   -3.277850   -1.287752
     43          8           0        2.445665   -3.793485   -1.762737
     44          6           0        3.329778   -2.976979   -1.504928
     45          1           0        2.043372   -1.386005   -1.552628
     46          7           0        3.010682   -1.637748   -1.405467
     47          8           0        3.489264    0.555087   -1.059634
     48          6           0        3.866434   -0.601570   -1.126966
     49          1           0        6.631474   -2.464629   -0.841047
     50          6           0        5.570622   -2.288741   -1.014237
     51          6           0        6.133719    0.101673   -0.629675
     52          7           0        5.182269   -0.971752   -0.930061
     53          1           0        3.870425    3.867561    2.577933
     54          1           0        2.750385    3.797591    1.393564
     55          1           0        4.334743    3.655764    1.027788
     56          1           0        1.325398   -3.070156    1.902344
     57          1           0        2.936740   -2.715721    2.336004
     58          7           0        2.044789   -2.386261    2.024394
     59          6           0        1.825494   -1.092182    1.782628
     60          6           0        2.424786    1.206662    1.648909
     61          7           0        1.216949    1.620422    1.231348
     62          1           0       -0.624148    0.836927    0.787382
     63          6           0        0.382174    0.588870    1.122120
     64          7           0        0.599919   -0.707961    1.363789
     65          1           0        5.522067    1.457942    2.541012
     66          6           0        4.519965    1.110017    2.288671
     67          7           0        4.129634   -0.139966    2.342113
     68          6           0        2.803016   -0.092705    1.938920
     69          6           0        3.630944    3.441853    1.705343
     70          7           0        3.539033    1.978947    1.877018
 ---------------------------------------------------------------------

 SCF Done:  E(RwB97XD) =  -2048.68979673     A.U. after   15 cycles

 The electronic state is 1-A.
 Alpha  occ. eigenvalues --  -19.25919 -19.21930 -19.20593 -14.52403 -14.51986
 Alpha  occ. eigenvalues --  -14.49255 -14.48608 -14.47894 -14.47370 -14.46462
 Alpha  occ. eigenvalues --  -14.45797 -14.44943 -14.43456 -14.42752 -14.42225
 Alpha  occ. eigenvalues --  -14.42144 -14.41907 -14.41524 -14.40658 -14.40630
 Alpha  occ. eigenvalues --  -10.45514 -10.40898 -10.40061 -10.39101 -10.38104
 Alpha  occ. eigenvalues --  -10.37736 -10.37515 -10.36449 -10.35945 -10.35309
 Alpha  occ. eigenvalues --  -10.35010 -10.34562 -10.34262 -10.34164 -10.33891
 Alpha  occ. eigenvalues --  -10.33668 -10.33100 -10.31753 -10.31391 -10.31040
 Alpha  occ. eigenvalues --  -10.30645 -10.29047 -10.28037  -1.19499  -1.14726
 Alpha  occ. eigenvalues --   -1.13323  -1.12970  -1.11845  -1.10509  -1.09297
 Alpha  occ. eigenvalues --   -1.08872  -1.08233  -1.05505  -1.04018  -1.02491
 Alpha  occ. eigenvalues --   -1.00987  -1.00688  -0.99622  -0.98559  -0.97456
 Alpha  occ. eigenvalues --   -0.96513  -0.95991  -0.93170  -0.91005  -0.87228
 Alpha  occ. eigenvalues --   -0.85837  -0.84443  -0.83989  -0.83669  -0.82794
 Alpha  occ. eigenvalues --   -0.82369  -0.78839  -0.76522  -0.74736  -0.74303
 Alpha  occ. eigenvalues --   -0.73562  -0.73407  -0.73355  -0.71615  -0.69981
 Alpha  occ. eigenvalues --   -0.67376  -0.66827  -0.66569  -0.66313  -0.64432
 Alpha  occ. eigenvalues --   -0.63890  -0.63700  -0.63227  -0.62853  -0.61827
 Alpha  occ. eigenvalues --   -0.60775  -0.60440  -0.60039  -0.59494  -0.59315
 Alpha  occ. eigenvalues --   -0.59123  -0.58044  -0.57397  -0.56889  -0.56735
 Alpha  occ. eigenvalues --   -0.56012  -0.55856  -0.55610  -0.54900  -0.54323
 Alpha  occ. eigenvalues --   -0.53976  -0.53557  -0.53082  -0.52845  -0.52593
 Alpha  occ. eigenvalues --   -0.52448  -0.52218  -0.52037  -0.51277  -0.50658
 Alpha  occ. eigenvalues --   -0.50045  -0.49643  -0.49408  -0.49056  -0.48676
 Alpha  occ. eigenvalues --   -0.48544  -0.48301  -0.48146  -0.47906  -0.47421
 Alpha  occ. eigenvalues --   -0.47346  -0.46015  -0.45389  -0.43892  -0.43199
 Alpha  occ. eigenvalues --   -0.41720  -0.40398  -0.39516  -0.37748  -0.37614
 Alpha  occ. eigenvalues --   -0.37251  -0.37193  -0.36377  -0.35865  -0.34430
 Alpha  occ. eigenvalues --   -0.34227  -0.33965  -0.33795  -0.33122  -0.32623
 Alpha  occ. eigenvalues --   -0.32356  -0.31899  -0.31780  -0.31408  -0.31287
 Alpha  occ. eigenvalues --   -0.30806  -0.28405  -0.26301  -0.25269
 Alpha virt. eigenvalues --    0.03140   0.04544   0.07390   0.07565   0.08857
 Alpha virt. eigenvalues --    0.09122   0.09538   0.10456   0.11216   0.11681
 Alpha virt. eigenvalues --    0.12983   0.13764   0.14228   0.14574   0.14686

 Mulliken charges:
               1
     1  N   -0.312482
     2  C    0.180554
     3  C    0.044444
     4  N   -0.259868
     5  C    0.134681
     6  H    0.028066
     7  N   -0.281489
     8  C    0.126285
     9  H    0.010971
    10  N   -0.289559
    11  C    0.240115
    12  C    0.117083
    13  N   -0.053930
    14  H    0.107672
    15  H    0.087833
    16  H    0.026624
    17  H    0.033157
    18  H    0.027068
    19  N   -0.301219
    20  C    0.234179
    21  C    0.178100
    22  N   -0.074367
    23  H    0.101298
    24  H    0.116268
    25  N   -0.284809
    26  C    0.198421
    27  N   -0.115876
    28  H    0.119460
    29  C    0.131617
    30  O   -0.318027
    31  C    0.030069
    32  N   -0.221169
    33  C    0.118856
    34  H    0.026377
    35  H    0.030011
    36  H    0.026808
    37  H    0.024081
    38  H    0.060955
    39  H    0.060944
    40  H    0.069660
    41  H    0.030859
    42  C   -0.114758
    43  O   -0.265452
    44  C    0.177831
    45  H    0.134791
    46  N   -0.133972
    47  O   -0.347936
    48  C    0.358587
    49  H    0.047469
    50  C    0.175784
    51  C    0.040717
    52  N   -0.289886
    53  H    0.038314
    54  H    0.016738
    55  H    0.031108
    56  H    0.121911
    57  H    0.116550
    58  N   -0.067692
    59  C    0.109535
    60  C    0.239483
    61  N   -0.288829
    62  H    0.049317
    63  C    0.178561
    64  N   -0.302954
    65  H    0.030784
    66  C    0.123369
    67  N   -0.259041
    68  C    0.011171
    69  C    0.169765
    70  N   -0.310988
 Sum of Mulliken charges =  -0.00000

 Dipole moment (field-independent basis, Debye):
    X=              6.8740    Y=              5.8270    Z=              3.4705  Tot=              9.6567
 Quadrupole moment (field-independent basis, Debye-Ang):
   XX=           -145.8904   YY=           -224.7140   ZZ=           -255.7160
   XY=              6.7765   XZ=              9.3928   YZ=            -11.4005

 Normal termination of Gaussian 16 at Tue Jan 23 02:22:06 2018.
