 Gaussian 16, Revision A.03,
 Gaussian 16:  EM64L-G16RevA.03 25-Dec-2016

 ---------------------------------------
 #p wb97xd/cc-pvdz sp scf=(maxcycles=20)
 ---------------------------------------

 ------------------
 Base pair stacking
 ------------------
 Symbolic Z-matrix:
 Charge =  0 Multiplicity = 1

                         Standard orientation:
 ---------------------------------------------------------------------
 Center     Atomic      Atomic             Coordinates (Angstroms)
 Number     Number       Type             X           Y           Z
 ---------------------------------------------------------------------
      1          7           0       -6.353408   -1.455827    0.665992
      2          6           0       -7.717519   -0.910837    0.523930
      3          6           0       -4.178908   -1.647561    0.934518
      4          7           0       -4.667540   -2.938080    0.791307
      5          6           0       -5.958040   -2.770921    0.635257
      6          1           0       -6.675196   -3.579767    0.492498
      7          7           0       -2.738013    0.195417    1.234885
      8          6           0       -3.827386    0.965003    1.142212
      9          1           0       -3.649272    2.035762    1.231726
     10          7           0       -5.097768    0.612147    0.956439
     11          6           0       -5.206288   -0.723236    0.859458
     12          6           0       -2.880439   -1.144156    1.133277
     13          7           0       -1.794185   -1.914044    1.225521
     14          1           0       -1.852626   -2.910526    1.156064
     15          1           0       -0.885460   -1.521229    1.367136
     16          1           0       -8.300622   -1.274650    1.250428
     17          1           0       -7.687487    0.086109    0.589752
     18          1           0       -8.092669   -1.173344   -0.365093
     19          7           0       -3.241475    2.291677   -1.544778
     20          6           0       -1.893615    2.093965   -1.365201
     21          6           0       -3.958585    3.558994   -1.299111
     22          7           0        1.230143    3.310384   -0.457348
     23          1           0        2.166123    2.965248   -0.393667
     24          1           0        1.080749    4.266277   -0.203034
     25          7           0       -1.005022    3.016793   -0.937602
     26          6           0        0.220052    2.527328   -0.865331
     27          7           0        0.551656    1.233415   -1.186774
     28          1           0        1.514511    0.946015   -1.101407
     29          6           0       -0.346197    0.266836   -1.628853
     30          8           0        0.056411   -0.872964   -1.892523
     31          6           0       -1.666392    0.777833   -1.711566
     32          7           0       -2.847817    0.161668   -2.100753
     33          6           0       -3.752698    1.095615   -1.986080
     34          1           0       -4.811764    0.965119   -2.211097
     35          1           0       -4.660526    3.416998   -0.602035
     36          1           0       -3.310518    4.250137   -0.981941
     37          1           0       -4.388331    3.870310   -2.145997
     38          1           0        6.344531   -0.035606    0.147613
     39          1           0        6.616951    0.178906   -1.579940
     40          1           0        5.340020    1.087068   -0.769969
     41          1           0        4.791977   -4.272242   -1.521828
     42          6           0        4.450707   -3.239657   -1.447428
     43          8           0        2.177095   -3.766932   -1.871425
     44          6           0        3.062018   -2.946323   -1.629993
     45          1           0        1.765013   -1.363265   -1.637959
     46          7           0        2.737095   -1.609716   -1.515267
     47          8           0        3.210181    0.584134   -1.168270
     48          6           0        3.592800   -0.569726   -1.251204
     49          1           0        6.375336   -2.416836   -1.041772
     50          6           0        5.309596   -2.246692   -1.188702
     51          6           0        5.866876    0.145040   -0.803858
     52          7           0        4.915212   -0.932679   -1.087741
     53          1           0        4.149624    3.876414    2.536057
     54          1           0        3.002190    3.806002    1.378237
     55          1           0        4.578242    3.676261    0.974126
     56          1           0        1.632236   -3.073360    1.881144
     57          1           0        3.251212   -2.711180    2.278448
     58          7           0        2.350082   -2.385620    1.990003
     59          6           0        2.117091   -1.091622    1.760981
     60          6           0        2.698793    1.211681    1.626313
     61          7           0        1.478829    1.620131    1.239947
     62          1           0       -0.367423    0.827512    0.835324
     63          6           0        0.648098    0.583941    1.144632
     64          7           0        0.879546   -0.712815    1.373588
     65          1           0        5.814808    1.477526    2.446037
     66          6           0        4.809155    1.124700    2.215568
     67          7           0        4.427957   -0.128012    2.271052
     68          6           0        3.091849   -0.086875    1.899769
     69          6           0        3.892096    3.454104    1.666961
     70          7           0        3.813353    1.989709    1.832331
 ---------------------------------------------------------------------

 SCF Done:  E(RwB97XD) =  -2048.70806114     A.U. after   15 cycles

 The electronic state is 1-A.
 Alpha  occ. eigenvalues --  -19.25840 -19.21886 -19.20504 -14.52356 -14.52186
 Alpha  occ. eigenvalues --  -14.49085 -14.48465 -14.47811 -14.47692 -14.46470
 Alpha  occ. eigenvalues --  -14.45691 -14.45139 -14.43710 -14.42743 -14.42688
 Alpha  occ. eigenvalues --  -14.41902 -14.41720 -14.41362 -14.40577 -14.40527
 Alpha  occ. eigenvalues --  -10.45442 -10.40645 -10.40014 -10.39416 -10.37970
 Alpha  occ. eigenvalues --  -10.37697 -10.37669 -10.36707 -10.35809 -10.35326
 Alpha  occ. eigenvalues --  -10.35110 -10.34407 -10.34380 -10.34086 -10.33697
 Alpha  occ. eigenvalues --  -10.33497 -10.33059 -10.31955 -10.31295 -10.31011
 Alpha  occ. eigenvalues --  -10.30537 -10.28849 -10.27851  -1.19448  -1.14870
 Alpha  occ. eigenvalues --   -1.13143  -1.12924  -1.11664  -1.10398  -1.09247
 Alpha  occ. eigenvalues --   -1.08879  -1.08260  -1.05372  -1.04311  -1.02422
 Alpha  occ. eigenvalues --   -1.00859  -1.00762  -0.99419  -0.98417  -0.97305
 Alpha  occ. eigenvalues --   -0.96431  -0.96197  -0.93050  -0.90955  -0.87398
 Alpha  occ. eigenvalues --   -0.85958  -0.84281  -0.83831  -0.83556  -0.82653
 Alpha  occ. eigenvalues --   -0.82223  -0.78784  -0.76698  -0.74598  -0.74425
 Alpha  occ. eigenvalues --   -0.73412  -0.73276  -0.73264  -0.71459  -0.70171
 Alpha  occ. eigenvalues --   -0.67147  -0.66688  -0.66577  -0.66412  -0.64357
 Alpha  occ. eigenvalues --   -0.64072  -0.63589  -0.63102  -0.62765  -0.61462
 Alpha  occ. eigenvalues --   -0.60721  -0.60580  -0.60245  -0.59454  -0.59283
 Alpha  occ. eigenvalues --   -0.59121  -0.58122  -0.57219  -0.56768  -0.56506
 Alpha  occ. eigenvalues --   -0.55956  -0.55707  -0.55371  -0.55013  -0.54265
 Alpha  occ. eigenvalues --   -0.54096  -0.53457  -0.53151  -0.52787  -0.52701
 Alpha  occ. eigenvalues --   -0.52356  -0.52255  -0.52091  -0.51149  -0.50528
 Alpha  occ. eigenvalues --   -0.49959  -0.49539  -0.49356  -0.48890  -0.48736
 Alpha  occ. eigenvalues --   -0.48600  -0.48264  -0.48015  -0.47599  -0.47269
 Alpha  occ. eigenvalues --   -0.47232  -0.45836  -0.45148  -0.43828  -0.43775
 Alpha  occ. eigenvalues --   -0.41514  -0.40837  -0.39446  -0.37761  -0.37606
 Alpha  occ. eigenvalues --   -0.37421  -0.37109  -0.36560  -0.35901  -0.34490
 Alpha  occ. eigenvalues --   -0.34132  -0.33906  -0.33745  -0.33064  -0.32526
 Alpha  occ. eigenvalues --   -0.32312  -0.31849  -0.31678  -0.31553  -0.31198
 Alpha  occ. eigenvalues --   -0.30752  -0.28984  -0.26138  -0.24840
 Alpha virt. eigenvalues --    0.03157   0.04468   0.07216   0.07667   0.08721
 Alpha virt. eigenvalues --    0.09452   0.09986   0.10594   0.10863   0.11456
 Alpha virt. eigenvalues --    0.12980   0.13921   0.14088   0.14661   0.14887

 Mulliken charges:
               1
     1  N   -0.312867
     2  C    0.180577
     3  C    0.049529
     4  N   -0.260625
     5  C    0.134948
     6  H    0.027449
     7  N   -0.280821
     8  C    0.136244
     9  H    0.008465
    10  N   -0.291586
    11  C    0.241230
    12  C    0.115156
    13  N   -0.054272
    14  H    0.107990
    15  H    0.087129
    16  H    0.026349
    17  H    0.031879
    18  H    0.026923
    19  N   -0.297700
    20  C    0.236136
    21  C    0.177146
    22  N   -0.062569
    23  H    0.106252
    24  H    0.111796
    25  N   -0.294089
    26  C    0.194988
    27  N   -0.131226
    28  H    0.123381
    29  C    0.144868
    30  O   -0.320320
    31  C    0.025504
    32  N   -0.222295
    33  C    0.121736
    34  H    0.021319
    35  H    0.031465
    36  H    0.026513
    37  H    0.023558
    38  H    0.061494
    39  H    0.059419
    40  H    0.067382
    41  H    0.030294
    42  C   -0.114617
    43  O   -0.265297
    44  C    0.176930
    45  H    0.133157
    46  N   -0.129837
    47  O   -0.343933
    48  C    0.351583
    49  H    0.047348
    50  C    0.174694
    51  C    0.042828
    52  N   -0.287573
    53  H    0.038682
    54  H    0.020166
    55  H    0.028602
    56  H    0.122835
    57  H    0.116939
    58  N   -0.065868
    59  C    0.103064
    60  C    0.255665
    61  N   -0.299529
    62  H    0.034502
    63  C    0.183659
    64  N   -0.303283
    65  H    0.032632
    66  C    0.119517
    67  N   -0.257663
    68  C    0.005586
    69  C    0.178251
    70  N   -0.307789
 Sum of Mulliken charges =  -0.00000

 Dipole moment (field-independent basis, Debye):
    X=              7.1051    Y=              5.9727    Z=              3.4097  Tot=              9.8885
 Quadrupole moment (field-independent basis, Debye-Ang):
   XX=           -147.7434   YY=           -224.1513   ZZ=           -256.2622
   XY=              5.6868   XZ=              6.2721   YZ=            -11.4396

 Normal termination of Gaussian 16 at Tue Jan 23 01:35:32 2018.
