 Gaussian 16, Revision A.03,
 Gaussian 16:  EM64L-G16RevA.03 25-Dec-2016

 ---------------------------------------
 #p wb97xd/cc-pvdz sp scf=(maxcycles=20)
 ---------------------------------------

 ------------------
 Base pair stacking
 ------------------
 Symbolic Z-matrix:
 Charge =  0 Multiplicity = 1

                         Standard orientation:
 ---------------------------------------------------------------------
 Center     Atomic      Atomic             Coordinates (Angstroms)
 Number     Number       Type             X           Y           Z
 ---------------------------------------------------------------------
      1          7           0       -6.670203   -1.438997    0.443554
      2          6           0       -8.039086   -0.889176    0.400291
      3          6           0       -4.494235   -1.657522    0.677448
      4          7           0       -4.971142   -2.904441    0.299994
      5          6           0       -6.263003   -2.722885    0.174191
      6          1           0       -6.972763   -3.498331   -0.115403
      7          7           0       -3.070160    0.112186    1.312357
      8          6           0       -4.166358    0.876213    1.359270
      9          1           0       -3.997941    1.914160    1.643103
     10          7           0       -5.433406    0.552107    1.109377
     11          6           0       -5.529846   -0.744035    0.770050
     12          6           0       -3.200467   -1.187532    0.967642
     13          7           0       -2.107384   -1.951798    0.920252
     14          1           0       -2.156807   -2.919332    0.669958
     15          1           0       -1.202311   -1.583509    1.133213
     16          1           0       -8.619326   -1.384569    1.046882
     17          1           0       -8.018056    0.079226    0.647040
     18          1           0       -8.411308   -0.988267   -0.522544
     19          7           0       -2.853488    2.459340   -1.654530
     20          6           0       -1.510511    2.238860   -1.465171
     21          6           0       -3.537878    3.756816   -1.484640
     22          7           0        1.645360    3.428524   -0.636327
     23          1           0        2.572560    3.064354   -0.553237
     24          1           0        1.520716    4.401436   -0.439816
     25          7           0       -0.597828    3.163030   -1.095070
     26          6           0        0.614778    2.648069   -0.995092
     27          7           0        0.912905    1.329208   -1.238510
     28          1           0        1.868477    1.023268   -1.137275
     29          6           0       -0.010172    0.360739   -1.620407
     30          8           0        0.362954   -0.802637   -1.815534
     31          6           0       -1.317363    0.898972   -1.731978
     32          7           0       -2.514975    0.290511   -2.081808
     33          6           0       -3.395813    1.252176   -2.022348
     34          1           0       -4.458451    1.135126   -2.237704
     35          1           0       -4.241165    3.674745   -0.779343
     36          1           0       -2.871769    4.449222   -1.210504
     37          1           0       -3.962073    4.027375   -2.348149
     38          1           0        6.675884   -0.002922    0.162140
     39          1           0        6.948682    0.100357   -1.575550
     40          1           0        5.697255    1.087496   -0.820011
     41          1           0        5.012779   -4.291794   -1.247185
     42          6           0        4.697738   -3.248335   -1.234625
     43          8           0        2.410413   -3.742658   -1.623093
     44          6           0        3.316335   -2.931575   -1.432667
     45          1           0        2.059441   -1.319675   -1.534178
     46          7           0        3.025378   -1.582725   -1.398171
     47          8           0        3.554341    0.615390   -1.184482
     48          6           0        3.907653   -0.550645   -1.198326
     49          1           0        6.643558   -2.451390   -0.881785
     50          6           0        5.581995   -2.263575   -1.037275
     51          6           0        6.200209    0.132159   -0.797833
     52          7           0        5.220997   -0.936343   -1.015064
     53          1           0        3.783279    3.553878    3.278929
     54          1           0        2.637238    3.685963    2.125148
     55          1           0        4.214630    3.645929    1.707665
     56          1           0        1.328940   -3.181333    1.360937
     57          1           0        2.944344   -2.883629    1.821290
     58          7           0        2.040493   -2.518765    1.595100
     59          6           0        1.796005   -1.206788    1.605581
     60          6           0        2.357048    1.087395    1.894862
     61          7           0        1.133686    1.548828    1.586806
     62          1           0       -0.705106    0.827279    1.040188
     63          6           0        0.312361    0.540226    1.302113
     64          7           0        0.555345   -0.774467    1.291060
     65          1           0        5.470041    1.226369    2.756314
     66          6           0        4.467743    0.912756    2.463072
     67          7           0        4.097797   -0.332321    2.288132
     68          6           0        2.761603   -0.235778    1.927596
     69          6           0        3.530089    3.295055    2.346778
     70          7           0        3.464430    1.824445    2.241926
 ---------------------------------------------------------------------

 SCF Done:  E(RwB97XD) =  -2048.74289819     A.U. after   15 cycles

 The electronic state is 1-A.
 Alpha  occ. eigenvalues --  -19.25953 -19.22124 -19.20644 -14.52464 -14.51776
 Alpha  occ. eigenvalues --  -14.49053 -14.48686 -14.47949 -14.47022 -14.46794
 Alpha  occ. eigenvalues --  -14.46742 -14.44800 -14.43236 -14.43037 -14.42397
 Alpha  occ. eigenvalues --  -14.42090 -14.41691 -14.41238 -14.40730 -14.40406
 Alpha  occ. eigenvalues --  -10.45568 -10.41192 -10.40242 -10.38899 -10.38218
 Alpha  occ. eigenvalues --  -10.37869 -10.37357 -10.36298 -10.35658 -10.35352
 Alpha  occ. eigenvalues --  -10.34788 -10.34353 -10.34338 -10.33695 -10.33651
 Alpha  occ. eigenvalues --  -10.33392 -10.33179 -10.31735 -10.31234 -10.31144
 Alpha  occ. eigenvalues --  -10.30718 -10.28807 -10.28098  -1.19511  -1.14444
 Alpha  occ. eigenvalues --   -1.13243  -1.13139  -1.11632  -1.10538  -1.09358
 Alpha  occ. eigenvalues --   -1.08596  -1.08223  -1.05239  -1.03796  -1.02579
 Alpha  occ. eigenvalues --   -1.00684  -1.00284  -0.99808  -0.98539  -0.97228
 Alpha  occ. eigenvalues --   -0.96500  -0.95810  -0.92892  -0.91107  -0.86895
 Alpha  occ. eigenvalues --   -0.85376  -0.84218  -0.84060  -0.83721  -0.82582
 Alpha  occ. eigenvalues --   -0.82407  -0.78928  -0.76190  -0.74614  -0.73919
 Alpha  occ. eigenvalues --   -0.73694  -0.73434  -0.73155  -0.71334  -0.69595
 Alpha  occ. eigenvalues --   -0.67405  -0.66611  -0.66560  -0.65933  -0.64503
 Alpha  occ. eigenvalues --   -0.63769  -0.63464  -0.62936  -0.62716  -0.61769
 Alpha  occ. eigenvalues --   -0.60481  -0.60029  -0.59739  -0.59548  -0.59093
 Alpha  occ. eigenvalues --   -0.58790  -0.58382  -0.56844  -0.56714  -0.56557
 Alpha  occ. eigenvalues --   -0.56036  -0.55629  -0.54977  -0.54591  -0.54414
 Alpha  occ. eigenvalues --   -0.53656  -0.53594  -0.53000  -0.52926  -0.52594
 Alpha  occ. eigenvalues --   -0.52499  -0.52044  -0.52001  -0.51038  -0.50456
 Alpha  occ. eigenvalues --   -0.50148  -0.49513  -0.49430  -0.48928  -0.48799
 Alpha  occ. eigenvalues --   -0.48734  -0.48263  -0.48035  -0.47747  -0.47431
 Alpha  occ. eigenvalues --   -0.47225  -0.45586  -0.45246  -0.44093  -0.43485
 Alpha  occ. eigenvalues --   -0.41457  -0.39983  -0.39518  -0.37469  -0.37357
 Alpha  occ. eigenvalues --   -0.37252  -0.36871  -0.36594  -0.35940  -0.34217
 Alpha  occ. eigenvalues --   -0.33992  -0.33740  -0.33596  -0.33302  -0.33062
 Alpha  occ. eigenvalues --   -0.32688  -0.32322  -0.32040  -0.31817  -0.31198
 Alpha  occ. eigenvalues --   -0.30639  -0.28889  -0.26019  -0.25457
 Alpha virt. eigenvalues --    0.02963   0.04850   0.07559   0.07697   0.08885
 Alpha virt. eigenvalues --    0.09169   0.09544   0.10678   0.11170   0.11569
 Alpha virt. eigenvalues --    0.12816   0.13878   0.14485   0.14703   0.14826

 Mulliken charges:
               1
     1  N   -0.311783
     2  C    0.180605
     3  C    0.042606
     4  N   -0.258593
     5  C    0.133614
     6  H    0.027266
     7  N   -0.286499
     8  C    0.126660
     9  H    0.012029
    10  N   -0.290599
    11  C    0.237667
    12  C    0.118562
    13  N   -0.051734
    14  H    0.108984
    15  H    0.089207
    16  H    0.026331
    17  H    0.033716
    18  H    0.025891
    19  N   -0.308329
    20  C    0.242472
    21  C    0.180261
    22  N   -0.104909
    23  H    0.112110
    24  H    0.115707
    25  N   -0.297661
    26  C    0.223121
    27  N   -0.124034
    28  H    0.116315
    29  C    0.146224
    30  O   -0.319037
    31  C    0.014220
    32  N   -0.223606
    33  C    0.126904
    34  H    0.027365
    35  H    0.030950
    36  H    0.027445
    37  H    0.023770
    38  H    0.060564
    39  H    0.060679
    40  H    0.070622
    41  H    0.030251
    42  C   -0.116230
    43  O   -0.269679
    44  C    0.168621
    45  H    0.136445
    46  N   -0.130504
    47  O   -0.350123
    48  C    0.357017
    49  H    0.048186
    50  C    0.179379
    51  C    0.040617
    52  N   -0.288710
    53  H    0.035436
    54  H    0.036118
    55  H    0.022887
    56  H    0.125479
    57  H    0.115599
    58  N   -0.059832
    59  C    0.105255
    60  C    0.232148
    61  N   -0.265624
    62  H    0.047447
    63  C    0.162644
    64  N   -0.299780
    65  H    0.030386
    66  C    0.129091
    67  N   -0.263290
    68  C    0.014610
    69  C    0.171400
    70  N   -0.310325
 Sum of Mulliken charges =  -0.00000

 Dipole moment (field-independent basis, Debye):
    X=              7.3716    Y=              5.9868    Z=              2.6503  Tot=              9.8593
 Quadrupole moment (field-independent basis, Debye-Ang):
   XX=           -145.6213   YY=           -222.7121   ZZ=           -253.7561
   XY=              6.2383   XZ=             10.5104   YZ=             -8.2243

 Normal termination of Gaussian 16 at Mon Jan 22 18:59:41 2018.
