 Gaussian 16, Revision A.03,
 Gaussian 16:  EM64L-G16RevA.03 25-Dec-2016

 ---------------------------------------
 #p wb97xd/cc-pvdz sp scf=(maxcycles=20)
 ---------------------------------------

 ------------------
 Base pair stacking
 ------------------
 Symbolic Z-matrix:
 Charge =  0 Multiplicity = 1

                         Standard orientation:
 ---------------------------------------------------------------------
 Center     Atomic      Atomic             Coordinates (Angstroms)
 Number     Number       Type             X           Y           Z
 ---------------------------------------------------------------------
      1          7           0        4.891237   -1.745275   -1.611496
      2          6           0        6.276251   -1.266597   -1.786513
      3          6           0        2.698953   -1.843136   -1.464494
      4          7           0        3.161033   -3.131438   -1.237530
      5          6           0        4.463305   -3.020908   -1.335177
      6          1           0        5.166360   -3.845467   -1.213645
      7          7           0        1.291414    0.027580   -1.751156
      8          6           0        2.405127    0.738362   -1.956109
      9          1           0        2.250454    1.797809   -2.155885
     10          7           0        3.675257    0.338805   -1.951364
     11          6           0        3.753839   -0.977745   -1.696492
     12          6           0        1.404019   -1.294493   -1.497175
     13          7           0        0.293438   -2.005703   -1.292318
     14          1           0        0.329401   -2.987188   -1.100996
     15          1           0       -0.611892   -1.581936   -1.323084
     16          1           0        6.704373   -1.752179   -2.548818
     17          1           0        6.268870   -0.285839   -1.979358
     18          1           0        6.797927   -1.436264   -0.950423
     19          7           0        4.774926    2.201293    0.989457
     20          6           0        3.409426    2.059339    1.047187
     21          6           0        5.490125    3.449851    0.657364
     22          7           0        0.228516    3.420683    0.746697
     23          1           0       -0.717688    3.112310    0.840685
     24          1           0        0.370785    4.379152    0.498081
     25          7           0        2.498971    3.028800    0.812120
     26          6           0        1.260876    2.587112    0.944926
     27          7           0        0.937038    1.295225    1.282084
     28          1           0       -0.036992    1.046281    1.361235
     29          6           0        1.857315    0.281197    1.528456
     30          8           0        1.459948   -0.852082    1.825976
     31          6           0        3.191699    0.740566    1.389603
     32          7           0        4.396261    0.068132    1.543736
     33          6           0        5.305186    0.972160    1.297194
     34          1           0        6.380887    0.795170    1.325964
     35          1           0        6.051054    3.307970   -0.157520
     36          1           0        4.825930    4.175177    0.481227
     37          1           0        6.075647    3.714267    1.422906
     38          1           0       -5.048845    0.286902    0.964521
     39          1           0       -5.002094    0.448019    2.718517
     40          1           0       -3.851391    1.338144    1.721056
     41          1           0       -3.405726   -4.061377    2.205142
     42          6           0       -3.039715   -3.039846    2.101557
     43          8           0       -0.751276   -3.664443    2.097918
     44          6           0       -1.629505   -2.803975    2.042290
     45          1           0       -0.285897   -1.270406    1.865613
     46          7           0       -1.273870   -1.476759    1.910911
     47          8           0       -1.707840    0.744015    1.718494
     48          6           0       -2.118117   -0.397444    1.834277
     49          1           0       -4.969274   -2.133426    2.069734
     50          6           0       -3.888126   -2.007571    2.029352
     51          6           0       -4.403233    0.415264    1.820539
     52          7           0       -3.462708   -0.705932    1.898454
     53          1           0       -5.587881    3.907690   -2.301099
     54          1           0       -4.251741    3.917437   -1.364750
     55          1           0       -5.731245    3.931075   -0.675581
     56          1           0       -3.232741   -3.038132   -1.172211
     57          1           0       -4.883645   -2.635814   -1.323074
     58          7           0       -3.934421   -2.329203   -1.244306
     59          6           0       -3.619428   -1.032332   -1.235889
     60          6           0       -4.087645    1.299353   -1.311543
     61          7           0       -2.804441    1.681935   -1.204587
     62          1           0       -0.943609    0.841105   -1.028800
     63          6           0       -2.006214    0.619683   -1.118784
     64          7           0       -2.319783   -0.679995   -1.127040
     65          1           0       -7.289904    1.639692   -1.597640
     66          6           0       -6.271773    1.261111   -1.502667
     67          7           0       -5.950182   -0.008555   -1.455623
     68          6           0       -4.568172    0.001635   -1.334479
     69          6           0       -5.190878    3.584056   -1.442234
     70          7           0       -5.193785    2.108411   -1.420615
 ---------------------------------------------------------------------

 SCF Done:  E(RwB97XD) =  -2048.75097818     A.U. after   15 cycles

 The electronic state is 1-A.
 Alpha  occ. eigenvalues --  -19.25388 -19.21597 -19.20452 -14.52758 -14.52014
 Alpha  occ. eigenvalues --  -14.48777 -14.48679 -14.48283 -14.47348 -14.46661
 Alpha  occ. eigenvalues --  -14.46478 -14.45715 -14.44715 -14.44630 -14.42622
 Alpha  occ. eigenvalues --  -14.41940 -14.41030 -14.40928 -14.40860 -14.40397
 Alpha  occ. eigenvalues --  -10.45011 -10.41108 -10.40398 -10.39710 -10.38273
 Alpha  occ. eigenvalues --  -10.38091 -10.37524 -10.37498 -10.36231 -10.35529
 Alpha  occ. eigenvalues --  -10.34426 -10.34307 -10.34107 -10.33672 -10.33472
 Alpha  occ. eigenvalues --  -10.33093 -10.33006 -10.32945 -10.30921 -10.30746
 Alpha  occ. eigenvalues --  -10.30590 -10.28314 -10.28057  -1.19017  -1.15518
 Alpha  occ. eigenvalues --   -1.13061  -1.12609  -1.10915  -1.10533  -1.09725
 Alpha  occ. eigenvalues --   -1.08894  -1.08418  -1.05213  -1.05053  -1.02007
 Alpha  occ. eigenvalues --   -1.01284  -1.00495  -0.99569  -0.98448  -0.97269
 Alpha  occ. eigenvalues --   -0.96602  -0.96580  -0.92757  -0.90684  -0.87959
 Alpha  occ. eigenvalues --   -0.86180  -0.84090  -0.83636  -0.83115  -0.82473
 Alpha  occ. eigenvalues --   -0.82037  -0.78490  -0.77392  -0.75196  -0.74557
 Alpha  occ. eigenvalues --   -0.73491  -0.72914  -0.72797  -0.70947  -0.70735
 Alpha  occ. eigenvalues --   -0.67273  -0.67163  -0.66202  -0.66131  -0.64589
 Alpha  occ. eigenvalues --   -0.64257  -0.63566  -0.62654  -0.62529  -0.61671
 Alpha  occ. eigenvalues --   -0.60949  -0.60699  -0.60508  -0.59679  -0.59213
 Alpha  occ. eigenvalues --   -0.58983  -0.58197  -0.56761  -0.56464  -0.55845
 Alpha  occ. eigenvalues --   -0.55724  -0.55639  -0.55436  -0.54556  -0.54056
 Alpha  occ. eigenvalues --   -0.53896  -0.53570  -0.53407  -0.53092  -0.52882
 Alpha  occ. eigenvalues --   -0.52651  -0.52002  -0.51528  -0.50429  -0.50328
 Alpha  occ. eigenvalues --   -0.50058  -0.49933  -0.49502  -0.49126  -0.48795
 Alpha  occ. eigenvalues --   -0.48714  -0.48242  -0.48127  -0.47689  -0.47120
 Alpha  occ. eigenvalues --   -0.46762  -0.45759  -0.45273  -0.44484  -0.43198
 Alpha  occ. eigenvalues --   -0.41084  -0.41038  -0.39067  -0.37985  -0.37959
 Alpha  occ. eigenvalues --   -0.37316  -0.37213  -0.36904  -0.35609  -0.35092
 Alpha  occ. eigenvalues --   -0.34697  -0.33989  -0.33352  -0.33229  -0.32827
 Alpha  occ. eigenvalues --   -0.32561  -0.32397  -0.31863  -0.31801  -0.30633
 Alpha  occ. eigenvalues --   -0.30392  -0.30069  -0.25838  -0.25357
 Alpha virt. eigenvalues --    0.03219   0.03856   0.06305   0.08097   0.09093
 Alpha virt. eigenvalues --    0.09409   0.09807   0.10177   0.11022   0.11995
 Alpha virt. eigenvalues --    0.13004   0.14291   0.14451   0.14684   0.14805

 Mulliken charges:
               1
     1  N   -0.309846
     2  C    0.180989
     3  C    0.058327
     4  N   -0.260129
     5  C    0.144553
     6  H    0.026884
     7  N   -0.290715
     8  C    0.128202
     9  H    0.012816
    10  N   -0.281042
    11  C    0.253189
    12  C    0.089201
    13  N   -0.060698
    14  H    0.112810
    15  H    0.082326
    16  H    0.023712
    17  H    0.028495
    18  H    0.028184
    19  N   -0.304937
    20  C    0.258099
    21  C    0.182100
    22  N   -0.119867
    23  H    0.118961
    24  H    0.116733
    25  N   -0.307958
    26  C    0.239320
    27  N   -0.132764
    28  H    0.113468
    29  C    0.183641
    30  O   -0.322221
    31  C   -0.015034
    32  N   -0.227187
    33  C    0.119582
    34  H    0.019245
    35  H    0.027503
    36  H    0.029323
    37  H    0.023451
    38  H    0.065621
    39  H    0.057398
    40  H    0.075445
    41  H    0.025171
    42  C   -0.114228
    43  O   -0.265472
    44  C    0.173104
    45  H    0.131121
    46  N   -0.123980
    47  O   -0.343054
    48  C    0.345568
    49  H    0.043634
    50  C    0.165754
    51  C    0.037678
    52  N   -0.277268
    53  H    0.034976
    54  H    0.039119
    55  H    0.029826
    56  H    0.121023
    57  H    0.117166
    58  N   -0.058702
    59  C    0.096844
    60  C    0.236152
    61  N   -0.270571
    62  H    0.024086
    63  C    0.180486
    64  N   -0.312707
    65  H    0.038901
    66  C    0.131749
    67  N   -0.255044
    68  C    0.003497
    69  C    0.181744
    70  N   -0.303754
 Sum of Mulliken charges =  -0.00000

 Dipole moment (field-independent basis, Debye):
    X=             -7.6839    Y=              6.8215    Z=             -1.8449  Tot=             10.4393
 Quadrupole moment (field-independent basis, Debye-Ang):
   XX=           -156.8181   YY=           -221.7305   ZZ=           -254.4748
   XY=              1.2805   XZ=            -11.3417   YZ=             10.0071

 Normal termination of Gaussian 16 at Tue Jan 23 10:55:49 2018.
