 Gaussian 16, Revision A.03,
 Gaussian 16:  EM64L-G16RevA.03 25-Dec-2016

 ---------------------------------------
 #p wb97xd/cc-pvdz sp scf=(maxcycles=20)
 ---------------------------------------

 ------------------
 Base pair stacking
 ------------------
 Symbolic Z-matrix:
 Charge =  0 Multiplicity = 1

                         Standard orientation:
 ---------------------------------------------------------------------
 Center     Atomic      Atomic             Coordinates (Angstroms)
 Number     Number       Type             X           Y           Z
 ---------------------------------------------------------------------
      1          7           0        4.585054   -1.693941   -1.755441
      2          6           0        5.971217   -1.212942   -1.914208
      3          6           0        2.394559   -1.787224   -1.581321
      4          7           0        2.849075   -3.092824   -1.464909
      5          6           0        4.150577   -2.984368   -1.574472
      6          1           0        4.848361   -3.821076   -1.530180
      7          7           0        0.998761    0.110572   -1.695713
      8          6           0        2.115196    0.827281   -1.861497
      9          1           0        1.966498    1.900367   -1.973947
     10          7           0        3.381791    0.419373   -1.909007
     11          6           0        3.453071   -0.913823   -1.760830
     12          6           0        1.104005   -1.228307   -1.549406
     13          7           0       -0.009303   -1.945446   -1.383806
     14          1           0        0.021233   -2.939288   -1.271658
     15          1           0       -0.911346   -1.513998   -1.366204
     16          1           0        6.383301   -1.639444   -2.719488
     17          1           0        5.969227   -0.219931   -2.028395
     18          1           0        6.504329   -1.452398   -1.102770
     19          7           0        5.070393    2.107666    0.849149
     20          6           0        3.705693    1.971215    0.932962
     21          6           0        5.784048    3.352579    0.500447
     22          7           0        0.524989    3.344294    0.688995
     23          1           0       -0.420465    3.039871    0.801579
     24          1           0        0.666262    4.301579    0.435304
     25          7           0        2.794737    2.943663    0.712617
     26          6           0        1.557664    2.507167    0.869856
     27          7           0        1.235225    1.217405    1.216342
     28          1           0        0.261909    0.972468    1.314461
     29          6           0        2.156049    0.200382    1.447906
     30          8           0        1.759963   -0.930593    1.755742
     31          6           0        3.489342    0.654163    1.282764
     32          7           0        4.693981   -0.022618    1.415889
     33          6           0        5.601598    0.877227    1.149959
     34          1           0        6.676958    0.696090    1.158902
     35          1           0        6.328964    3.206487   -0.324491
     36          1           0        5.119472    4.080067    0.335015
     37          1           0        6.384914    3.616588    1.254150
     38          1           0       -4.759447    0.231810    1.014189
     39          1           0       -4.679006    0.397071    2.766583
     40          1           0       -3.543872    1.280204    1.745357
     41          1           0       -3.110101   -4.119819    2.234698
     42          6           0       -2.742150   -3.099983    2.121625
     43          8           0       -0.456625   -3.733567    2.076463
     44          6           0       -1.332406   -2.869803    2.035208
     45          1           0        0.013570   -1.341969    1.829338
     46          7           0       -0.974173   -1.544320    1.893764
     47          8           0       -1.403068    0.677659    1.703910
     48          6           0       -1.815515   -0.461893    1.830303
     49          1           0       -4.668441   -2.186073    2.123863
     50          6           0       -3.587765   -2.064567    2.062800
     51          6           0       -4.097310    0.359752    1.857565
     52          7           0       -3.159847   -0.764936    1.920600
     53          1           0       -5.854835    4.072130   -1.824578
     54          1           0       -4.504300    3.997615   -0.912102
     55          1           0       -5.972770    3.967142   -0.200243
     56          1           0       -3.541883   -2.958460   -1.289214
     57          1           0       -5.191434   -2.533405   -1.380975
     58          7           0       -4.238528   -2.240959   -1.293428
     59          6           0       -3.912367   -0.951190   -1.187088
     60          6           0       -4.361770    1.382469   -1.069705
     61          7           0       -3.073835    1.745979   -0.953414
     62          1           0       -1.217753    0.880297   -0.875036
     63          6           0       -2.283480    0.674483   -0.965165
     64          7           0       -2.608226   -0.618102   -1.071585
     65          1           0       -7.565059    1.767795   -1.276142
     66          6           0       -6.548846    1.375460   -1.227992
     67          7           0       -6.237418    0.103766   -1.287159
     68          6           0       -4.853664    0.094220   -1.187906
     69          6           0       -5.447343    3.678299   -1.000657
     70          7           0       -5.462511    2.205668   -1.096297
 ---------------------------------------------------------------------

 SCF Done:  E(RwB97XD) =  -2048.74580035     A.U. after   15 cycles

 The electronic state is 1-A.
 Alpha  occ. eigenvalues --  -19.25243 -19.21353 -19.20461 -14.52822 -14.51728
 Alpha  occ. eigenvalues --  -14.48937 -14.48867 -14.48332 -14.47188 -14.46600
 Alpha  occ. eigenvalues --  -14.46524 -14.45738 -14.44986 -14.44820 -14.42951
 Alpha  occ. eigenvalues --  -14.41954 -14.41166 -14.41053 -14.41004 -14.40599
 Alpha  occ. eigenvalues --  -10.44804 -10.41092 -10.40611 -10.39481 -10.38291
 Alpha  occ. eigenvalues --  -10.38080 -10.37632 -10.37288 -10.36401 -10.35748
 Alpha  occ. eigenvalues --  -10.34314 -10.34136 -10.33955 -10.33741 -10.33585
 Alpha  occ. eigenvalues --  -10.33201 -10.33119 -10.33066 -10.31023 -10.30566
 Alpha  occ. eigenvalues --  -10.30456 -10.28475 -10.28079  -1.18848  -1.15610
 Alpha  occ. eigenvalues --   -1.13080  -1.12385  -1.10990  -1.10596  -1.09956
 Alpha  occ. eigenvalues --   -1.08661  -1.08426  -1.05426  -1.05267  -1.01809
 Alpha  occ. eigenvalues --   -1.01351  -1.00738  -0.99589  -0.98469  -0.97488
 Alpha  occ. eigenvalues --   -0.96688  -0.96642  -0.92972  -0.90470  -0.88129
 Alpha  occ. eigenvalues --   -0.86263  -0.84152  -0.83719  -0.82871  -0.82532
 Alpha  occ. eigenvalues --   -0.82053  -0.78276  -0.77538  -0.75366  -0.74593
 Alpha  occ. eigenvalues --   -0.73503  -0.72957  -0.72731  -0.71116  -0.70886
 Alpha  occ. eigenvalues --   -0.67335  -0.67279  -0.66354  -0.65958  -0.64724
 Alpha  occ. eigenvalues --   -0.64239  -0.63461  -0.62819  -0.62510  -0.61706
 Alpha  occ. eigenvalues --   -0.61116  -0.60777  -0.60614  -0.59847  -0.59088
 Alpha  occ. eigenvalues --   -0.58880  -0.58222  -0.56937  -0.56579  -0.55865
 Alpha  occ. eigenvalues --   -0.55777  -0.55633  -0.55549  -0.54851  -0.54108
 Alpha  occ. eigenvalues --   -0.53902  -0.53709  -0.53265  -0.53207  -0.52890
 Alpha  occ. eigenvalues --   -0.51952  -0.51783  -0.51556  -0.50454  -0.50448
 Alpha  occ. eigenvalues --   -0.50083  -0.49979  -0.49699  -0.49040  -0.48925
 Alpha  occ. eigenvalues --   -0.48728  -0.48082  -0.47865  -0.47816  -0.47048
 Alpha  occ. eigenvalues --   -0.46872  -0.45640  -0.45402  -0.44627  -0.43085
 Alpha  occ. eigenvalues --   -0.41343  -0.41144  -0.38990  -0.38188  -0.38102
 Alpha  occ. eigenvalues --   -0.37298  -0.37235  -0.37085  -0.35406  -0.35243
 Alpha  occ. eigenvalues --   -0.34898  -0.34159  -0.33498  -0.33360  -0.32843
 Alpha  occ. eigenvalues --   -0.32443  -0.32430  -0.31813  -0.31269  -0.30658
 Alpha  occ. eigenvalues --   -0.30480  -0.30408  -0.26113  -0.25282
 Alpha virt. eigenvalues --    0.03513   0.03635   0.06274   0.07886   0.08976
 Alpha virt. eigenvalues --    0.09306   0.09819   0.10135   0.10807   0.11953
 Alpha virt. eigenvalues --    0.13270   0.14218   0.14481   0.14594   0.14651

 Mulliken charges:
               1
     1  N   -0.308172
     2  C    0.181345
     3  C    0.062156
     4  N   -0.260763
     5  C    0.147214
     6  H    0.027894
     7  N   -0.287664
     8  C    0.121122
     9  H    0.015284
    10  N   -0.272795
    11  C    0.250089
    12  C    0.082902
    13  N   -0.065287
    14  H    0.112707
    15  H    0.082014
    16  H    0.022894
    17  H    0.028301
    18  H    0.030228
    19  N   -0.306264
    20  C    0.263596
    21  C    0.182795
    22  N   -0.117562
    23  H    0.122162
    24  H    0.117042
    25  N   -0.302624
    26  C    0.219373
    27  N   -0.120477
    28  H    0.115932
    29  C    0.170684
    30  O   -0.320462
    31  C   -0.007294
    32  N   -0.229218
    33  C    0.114953
    34  H    0.020382
    35  H    0.025779
    36  H    0.029995
    37  H    0.023965
    38  H    0.069467
    39  H    0.054658
    40  H    0.076510
    41  H    0.025106
    42  C   -0.115445
    43  O   -0.264737
    44  C    0.174582
    45  H    0.132822
    46  N   -0.126176
    47  O   -0.346065
    48  C    0.348889
    49  H    0.042848
    50  C    0.165830
    51  C    0.038713
    52  N   -0.276634
    53  H    0.034958
    54  H    0.039442
    55  H    0.030586
    56  H    0.119807
    57  H    0.119453
    58  N   -0.062135
    59  C    0.089250
    60  C    0.220954
    61  N   -0.265926
    62  H    0.016872
    63  C    0.184319
    64  N   -0.310496
    65  H    0.040090
    66  C    0.134736
    67  N   -0.252511
    68  C    0.010921
    69  C    0.181539
    70  N   -0.304457
 Sum of Mulliken charges =  -0.00000

 Dipole moment (field-independent basis, Debye):
    X=             -7.6605    Y=              6.9137    Z=             -1.8687  Tot=             10.4869
 Quadrupole moment (field-independent basis, Debye-Ang):
   XX=           -159.1633   YY=           -222.5838   ZZ=           -253.8439
   XY=              3.4377   XZ=            -14.8747   YZ=             11.7547

 Normal termination of Gaussian 16 at Mon Jan 22 23:04:52 2018.
