 Gaussian 16, Revision A.03,
 Gaussian 16:  EM64L-G16RevA.03 25-Dec-2016

 ---------------------------------------
 #p wb97xd/cc-pvdz sp scf=(maxcycles=20)
 ---------------------------------------

 ------------------
 Base pair stacking
 ------------------
 Symbolic Z-matrix:
 Charge =  0 Multiplicity = 1

                         Standard orientation:
 ---------------------------------------------------------------------
 Center     Atomic      Atomic             Coordinates (Angstroms)
 Number     Number       Type             X           Y           Z
 ---------------------------------------------------------------------
      1          7           0        5.200982   -1.618300   -1.425027
      2          6           0        6.587764   -1.114183   -1.451418
      3          6           0        3.005252   -1.745139   -1.426526
      4          7           0        3.469281   -3.049739   -1.340358
      5          6           0        4.773561   -2.921105   -1.342901
      6          1           0        5.478509   -3.751028   -1.286270
      7          7           0        1.593672    0.140086   -1.554324
      8          6           0        2.708513    0.876903   -1.596919
      9          1           0        2.552585    1.952562   -1.666972
     10          7           0        3.981061    0.486313   -1.566116
     11          6           0        4.061023   -0.851794   -1.479478
     12          6           0        1.707713   -1.203228   -1.467191
     13          7           0        0.596008   -1.940432   -1.424564
     14          1           0        0.632954   -2.938278   -1.360050
     15          1           0       -0.311175   -1.520678   -1.455637
     16          1           0        7.067121   -1.494465   -2.242475
     17          1           0        6.579446   -0.116732   -1.515767
     18          1           0        7.060363   -1.388547   -0.613932
     19          7           0        4.475783    2.167440    1.127741
     20          6           0        3.110833    2.010000    1.113990
     21          6           0        5.194849    3.413139    0.793271
     22          7           0       -0.062810    3.319484    0.589609
     23          1           0       -1.009386    3.002340    0.641185
     24          1           0        0.082739    4.270751    0.316452
     25          7           0        2.204507    2.959204    0.795187
     26          6           0        0.965802    2.506394    0.873789
     27          7           0        0.637633    1.222599    1.236646
     28          1           0       -0.336525    0.963987    1.269813
     29          6           0        1.553622    0.229371    1.568816
     30          8           0        1.152550   -0.898213    1.882554
     31          6           0        2.888606    0.700869    1.488949
     32          7           0        4.089863    0.049544    1.733179
     33          6           0        5.001291    0.956326    1.506777
     34          1           0        6.075533    0.794225    1.601644
     35          1           0        5.802250    3.251020    0.016367
     36          1           0        4.533738    4.123515    0.555439
     37          1           0        5.733464    3.710762    1.580753
     38          1           0       -5.309539    0.127371    0.620253
     39          1           0       -5.363276    0.348253    2.367534
     40          1           0       -4.168079    1.218865    1.405814
     41          1           0       -3.691412   -4.155058    2.099785
     42          6           0       -3.331334   -3.132990    1.981656
     43          8           0       -1.039627   -3.727932    2.127343
     44          6           0       -1.922684   -2.881185    1.993151
     45          1           0       -0.588096   -1.337336    1.839038
     46          7           0       -1.574737   -1.554707    1.836170
     47          8           0       -2.021428    0.652550    1.543416
     48          6           0       -2.425079   -0.489519    1.675371
     49          1           0       -5.265839   -2.253007    1.810927
     50          6           0       -4.185569   -2.114721    1.826671
     51          6           0       -4.714541    0.292867    1.506062
     52          7           0       -3.767700   -0.812901    1.674963
     53          1           0       -5.289179    4.025167   -2.017847
     54          1           0       -4.011987    3.919636   -1.008012
     55          1           0       -5.530310    3.836356   -0.414835
     56          1           0       -2.917517   -2.996901   -1.655399
     57          1           0       -4.561377   -2.586443   -1.853781
     58          7           0       -3.622608   -2.288043   -1.677972
     59          6           0       -3.325305   -1.001748   -1.482463
     60          6           0       -3.817914    1.317678   -1.284196
     61          7           0       -2.548453    1.689373   -1.050200
     62          1           0       -0.690948    0.841907   -0.871056
     63          6           0       -1.743314    0.628884   -1.053879
     64          7           0       -2.039165   -0.660221   -1.249502
     65          1           0       -7.001269    1.676690   -1.719506
     66          6           0       -5.985927    1.293947   -1.612136
     67          7           0       -5.651539    0.030522   -1.710221
     68          6           0       -4.279561    0.031617   -1.504336
     69          6           0       -4.940426    3.594581   -1.185405
     70          7           0       -4.925750    2.128642   -1.355197
 ---------------------------------------------------------------------

 SCF Done:  E(RwB97XD) =  -2048.74551298     A.U. after   15 cycles

 The electronic state is 1-A.
 Alpha  occ. eigenvalues --  -19.25264 -19.21528 -19.20376 -14.52948 -14.51973
 Alpha  occ. eigenvalues --  -14.48725 -14.48493 -14.48464 -14.47339 -14.46505
 Alpha  occ. eigenvalues --  -14.46138 -14.45888 -14.44701 -14.44672 -14.42706
 Alpha  occ. eigenvalues --  -14.41766 -14.41162 -14.40883 -14.40758 -14.40338
 Alpha  occ. eigenvalues --  -10.44930 -10.40931 -10.40470 -10.39647 -10.38441
 Alpha  occ. eigenvalues --  -10.37970 -10.37645 -10.37407 -10.36322 -10.35606
 Alpha  occ. eigenvalues --  -10.34326 -10.34313 -10.34064 -10.33876 -10.33237
 Alpha  occ. eigenvalues --  -10.33212 -10.33013 -10.32977 -10.30852 -10.30717
 Alpha  occ. eigenvalues --  -10.30647 -10.28424 -10.27844  -1.19047  -1.15694
 Alpha  occ. eigenvalues --   -1.12919  -1.12558  -1.11105  -1.10308  -1.09755
 Alpha  occ. eigenvalues --   -1.08888  -1.08249  -1.05277  -1.05124  -1.01987
 Alpha  occ. eigenvalues --   -1.01461  -1.00590  -0.99325  -0.98300  -0.97332
 Alpha  occ. eigenvalues --   -0.96800  -0.96345  -0.92822  -0.90637  -0.88097
 Alpha  occ. eigenvalues --   -0.86352  -0.83916  -0.83752  -0.83099  -0.82253
 Alpha  occ. eigenvalues --   -0.82218  -0.78451  -0.77500  -0.75362  -0.74349
 Alpha  occ. eigenvalues --   -0.73299  -0.72933  -0.72880  -0.71067  -0.70863
 Alpha  occ. eigenvalues --   -0.67310  -0.67030  -0.66352  -0.66084  -0.64745
 Alpha  occ. eigenvalues --   -0.64138  -0.63493  -0.62796  -0.62488  -0.61447
 Alpha  occ. eigenvalues --   -0.61093  -0.60896  -0.60655  -0.59819  -0.59211
 Alpha  occ. eigenvalues --   -0.58886  -0.57939  -0.56919  -0.56496  -0.55950
 Alpha  occ. eigenvalues --   -0.55862  -0.55668  -0.55574  -0.54543  -0.54163
 Alpha  occ. eigenvalues --   -0.53855  -0.53633  -0.53288  -0.53132  -0.52938
 Alpha  occ. eigenvalues --   -0.52690  -0.52021  -0.51729  -0.50664  -0.50301
 Alpha  occ. eigenvalues --   -0.50075  -0.49845  -0.49443  -0.49043  -0.48942
 Alpha  occ. eigenvalues --   -0.48524  -0.48246  -0.48042  -0.47407  -0.47048
 Alpha  occ. eigenvalues --   -0.46911  -0.45742  -0.44801  -0.44428  -0.43208
 Alpha  occ. eigenvalues --   -0.41290  -0.40934  -0.39052  -0.38085  -0.38026
 Alpha  occ. eigenvalues --   -0.37575  -0.37081  -0.36693  -0.35667  -0.35150
 Alpha  occ. eigenvalues --   -0.34807  -0.33944  -0.33455  -0.33191  -0.32766
 Alpha  occ. eigenvalues --   -0.32429  -0.32082  -0.31905  -0.31673  -0.30775
 Alpha  occ. eigenvalues --   -0.30465  -0.29923  -0.25891  -0.25151
 Alpha virt. eigenvalues --    0.03140   0.03928   0.06168   0.07951   0.09237
 Alpha virt. eigenvalues --    0.09511   0.09836   0.10001   0.11044   0.12289
 Alpha virt. eigenvalues --    0.12613   0.14182   0.14309   0.14603   0.15063

 Mulliken charges:
               1
     1  N   -0.311317
     2  C    0.180662
     3  C    0.059961
     4  N   -0.262155
     5  C    0.141358
     6  H    0.026663
     7  N   -0.288389
     8  C    0.131517
     9  H    0.014317
    10  N   -0.283696
    11  C    0.255150
    12  C    0.088974
    13  N   -0.055984
    14  H    0.109363
    15  H    0.081453
    16  H    0.024820
    17  H    0.027842
    18  H    0.028355
    19  N   -0.291220
    20  C    0.230222
    21  C    0.182125
    22  N   -0.107920
    23  H    0.112954
    24  H    0.114326
    25  N   -0.299194
    26  C    0.225986
    27  N   -0.129441
    28  H    0.112237
    29  C    0.181962
    30  O   -0.322677
    31  C   -0.012703
    32  N   -0.222414
    33  C    0.120683
    34  H    0.016519
    35  H    0.026897
    36  H    0.027790
    37  H    0.022286
    38  H    0.061514
    39  H    0.055342
    40  H    0.075560
    41  H    0.026956
    42  C   -0.110724
    43  O   -0.264770
    44  C    0.174991
    45  H    0.130647
    46  N   -0.122837
    47  O   -0.335873
    48  C    0.335891
    49  H    0.045072
    50  C    0.164137
    51  C    0.040965
    52  N   -0.278889
    53  H    0.036037
    54  H    0.037112
    55  H    0.030505
    56  H    0.121213
    57  H    0.117791
    58  N   -0.059130
    59  C    0.097198
    60  C    0.227303
    61  N   -0.267987
    62  H    0.029218
    63  C    0.173950
    64  N   -0.306312
    65  H    0.038662
    66  C    0.126960
    67  N   -0.253393
    68  C    0.011712
    69  C    0.182093
    70  N   -0.298224
 Sum of Mulliken charges =  -0.00000

 Dipole moment (field-independent basis, Debye):
    X=             -7.6704    Y=              6.5512    Z=             -2.7390  Tot=             10.4525
 Quadrupole moment (field-independent basis, Debye-Ang):
   XX=           -154.6068   YY=           -223.2962   ZZ=           -256.0706
   XY=             -0.0317   XZ=             -7.9354   YZ=             12.3573

 Normal termination of Gaussian 16 at Tue Jan 23 01:47:36 2018.
