 Gaussian 16, Revision A.03,
 Gaussian 16:  EM64L-G16RevA.03 25-Dec-2016

 ---------------------------------------
 #p wb97xd/cc-pvdz sp scf=(maxcycles=20)
 ---------------------------------------

 ------------------
 Base pair stacking
 ------------------
 Symbolic Z-matrix:
 Charge =  0 Multiplicity = 1

                         Standard orientation:
 ---------------------------------------------------------------------
 Center     Atomic      Atomic             Coordinates (Angstroms)
 Number     Number       Type             X           Y           Z
 ---------------------------------------------------------------------
      1          7           0        4.566704   -1.905647   -1.764705
      2          6           0        5.939959   -1.474164   -2.090275
      3          6           0        2.387796   -1.953016   -1.469003
      4          7           0        2.857407   -3.203927   -1.095617
      5          6           0        4.151312   -3.125323   -1.288714
      6          1           0        4.856843   -3.934671   -1.098615
      7          7           0        0.973565   -0.120816   -1.922788
      8          6           0        2.075253    0.540053   -2.293060
      9          1           0        1.913088    1.563939   -2.627160
     10          7           0        3.341239    0.127980   -2.312500
     11          6           0        3.429782   -1.141945   -1.883687
     12          6           0        1.095971   -1.396799   -1.496214
     13          7           0       -0.002594   -2.058147   -1.126177
     14          1           0        0.040913   -3.004393   -0.803781
     15          1           0       -0.906071   -1.630556   -1.158586
     16          1           0        6.316400   -2.065644   -2.803445
     17          1           0        5.924871   -0.529231   -2.415861
     18          1           0        6.513034   -1.534212   -1.272973
     19          7           0        5.075911    2.227368    0.804623
     20          6           0        3.713623    2.105836    0.936777
     21          6           0        5.792750    3.472365    0.462836
     22          7           0        0.544974    3.525055    0.851881
     23          1           0       -0.399607    3.229562    0.992206
     24          1           0        0.689579    4.487140    0.619060
     25          7           0        2.808315    3.095389    0.777886
     26          6           0        1.572253    2.670316    0.970369
     27          7           0        1.245605    1.375623    1.293772
     28          1           0        0.273451    1.140351    1.422325
     29          6           0        2.160586    0.341080    1.462298
     30          8           0        1.761067   -0.792892    1.754233
     31          6           0        3.492746    0.782445    1.258718
     32          7           0        4.692222    0.087134    1.327295
     33          6           0        5.601304    0.982488    1.051410
     34          1           0        6.673657    0.787658    1.014337
     35          1           0        6.304013    3.342288   -0.385982
     36          1           0        5.132371    4.212453    0.342730
     37          1           0        6.425259    3.707853    1.199917
     38          1           0       -4.765296    0.471519    1.294131
     39          1           0       -4.616339    0.587239    3.046009
     40          1           0       -3.508738    1.483920    2.006515
     41          1           0       -3.130390   -3.932589    2.332145
     42          6           0       -2.753128   -2.914738    2.232828
     43          8           0       -0.479792   -3.575548    2.083191
     44          6           0       -1.344648   -2.700016    2.098892
     45          1           0        0.013266   -1.184126    1.883303
     46          7           0       -0.973993   -1.375745    1.979896
     47          8           0       -1.379457    0.855863    1.866961
     48          6           0       -1.802312   -0.281466    1.978044
     49          1           0       -4.665305   -1.977073    2.333476
     50          6           0       -3.586169   -1.867534    2.234481
     51          6           0       -4.070030    0.567751    2.114754
     52          7           0       -3.146268   -0.569958    2.111363
     53          1           0       -5.908691    3.738537   -2.572650
     54          1           0       -4.515608    3.859065   -1.731881
     55          1           0       -5.948144    3.987143   -0.960180
     56          1           0       -3.518724   -3.016966   -0.644738
     57          1           0       -5.174000   -2.617144   -0.746339
     58          7           0       -4.220285   -2.315351   -0.770086
     59          6           0       -3.899373   -1.033977   -0.960505
     60          6           0       -4.360616    1.271220   -1.328016
     61          7           0       -3.071438    1.647663   -1.355253
     62          1           0       -1.207113    0.814155   -1.181573
     63          6           0       -2.274314    0.596712   -1.173593
     64          7           0       -2.593798   -0.687454   -0.982710
     65          1           0       -7.572983    1.611806   -1.457872
     66          6           0       -6.552640    1.236290   -1.375290
     67          7           0       -6.234609   -0.019044   -1.173548
     68          6           0       -4.847659   -0.010787   -1.141499
     69          6           0       -5.459309    3.530800   -1.703800
     70          7           0       -5.467684    2.072312   -1.478488
 ---------------------------------------------------------------------

 SCF Done:  E(RwB97XD) =  -2048.74959102     A.U. after   15 cycles

 The electronic state is 1-A.
 Alpha  occ. eigenvalues --  -19.25493 -19.21640 -19.20618 -14.52611 -14.52037
 Alpha  occ. eigenvalues --  -14.49050 -14.48694 -14.48040 -14.47372 -14.46873
 Alpha  occ. eigenvalues --  -14.46708 -14.45578 -14.44803 -14.44641 -14.42502
 Alpha  occ. eigenvalues --  -14.42110 -14.41308 -14.40751 -14.40642 -14.40317
 Alpha  occ. eigenvalues --  -10.45069 -10.41308 -10.40390 -10.39761 -10.38277
 Alpha  occ. eigenvalues --  -10.38145 -10.37609 -10.37479 -10.36175 -10.35397
 Alpha  occ. eigenvalues --  -10.34550 -10.34542 -10.33952 -10.33717 -10.33413
 Alpha  occ. eigenvalues --  -10.32970 -10.32914 -10.32910 -10.31153 -10.30751
 Alpha  occ. eigenvalues --  -10.30285 -10.28302 -10.28142  -1.19030  -1.15401
 Alpha  occ. eigenvalues --   -1.13264  -1.12659  -1.10781  -1.10690  -1.09761
 Alpha  occ. eigenvalues --   -1.08908  -1.08609  -1.05218  -1.04932  -1.02036
 Alpha  occ. eigenvalues --   -1.01168  -1.00367  -0.99790  -0.98658  -0.97268
 Alpha  occ. eigenvalues --   -0.96827  -0.96363  -0.92636  -0.90747  -0.87889
 Alpha  occ. eigenvalues --   -0.86060  -0.84331  -0.83427  -0.83165  -0.82701
 Alpha  occ. eigenvalues --   -0.81796  -0.78536  -0.77342  -0.75147  -0.74781
 Alpha  occ. eigenvalues --   -0.73703  -0.72962  -0.72622  -0.70814  -0.70661
 Alpha  occ. eigenvalues --   -0.67487  -0.67132  -0.66191  -0.66023  -0.64514
 Alpha  occ. eigenvalues --   -0.64432  -0.63651  -0.62693  -0.62478  -0.61887
 Alpha  occ. eigenvalues --   -0.60850  -0.60530  -0.60310  -0.59565  -0.59253
 Alpha  occ. eigenvalues --   -0.59068  -0.58422  -0.56871  -0.56318  -0.55800
 Alpha  occ. eigenvalues --   -0.55630  -0.55527  -0.55299  -0.54622  -0.54179
 Alpha  occ. eigenvalues --   -0.53844  -0.53632  -0.53520  -0.53074  -0.53033
 Alpha  occ. eigenvalues --   -0.52582  -0.52012  -0.51295  -0.50379  -0.50247
 Alpha  occ. eigenvalues --   -0.50147  -0.49792  -0.49537  -0.49223  -0.48896
 Alpha  occ. eigenvalues --   -0.48615  -0.48309  -0.48106  -0.47936  -0.47235
 Alpha  occ. eigenvalues --   -0.46594  -0.45712  -0.45552  -0.44579  -0.43243
 Alpha  occ. eigenvalues --   -0.41005  -0.40930  -0.39152  -0.38029  -0.37870
 Alpha  occ. eigenvalues --   -0.37464  -0.37389  -0.36756  -0.35583  -0.35121
 Alpha  occ. eigenvalues --   -0.34684  -0.34096  -0.33233  -0.33180  -0.32919
 Alpha  occ. eigenvalues --   -0.32679  -0.32600  -0.31973  -0.31773  -0.30480
 Alpha  occ. eigenvalues --   -0.30264  -0.30152  -0.25815  -0.25460
 Alpha virt. eigenvalues --    0.03286   0.03737   0.06498   0.08244   0.08898
 Alpha virt. eigenvalues --    0.09139   0.09673   0.10339   0.11185   0.11728
 Alpha virt. eigenvalues --    0.13394   0.14186   0.14454   0.14785   0.14884

 Mulliken charges:
               1
     1  N   -0.308661
     2  C    0.181712
     3  C    0.056944
     4  N   -0.256831
     5  C    0.147683
     6  H    0.026966
     7  N   -0.295199
     8  C    0.128163
     9  H    0.010653
    10  N   -0.282136
    11  C    0.251314
    12  C    0.087867
    13  N   -0.066228
    14  H    0.115775
    15  H    0.083753
    16  H    0.022098
    17  H    0.029023
    18  H    0.028235
    19  N   -0.309892
    20  C    0.261409
    21  C    0.181748
    22  N   -0.124010
    23  H    0.120075
    24  H    0.118138
    25  N   -0.312430
    26  C    0.247667
    27  N   -0.142224
    28  H    0.119287
    29  C    0.189257
    30  O   -0.320586
    31  C   -0.013535
    32  N   -0.230575
    33  C    0.121150
    34  H    0.021573
    35  H    0.027351
    36  H    0.030386
    37  H    0.024668
    38  H    0.068582
    39  H    0.058409
    40  H    0.075244
    41  H    0.023911
    42  C   -0.122775
    43  O   -0.265672
    44  C    0.170955
    45  H    0.132663
    46  N   -0.124652
    47  O   -0.349715
    48  C    0.352525
    49  H    0.041977
    50  C    0.171573
    51  C    0.035297
    52  N   -0.277525
    53  H    0.034433
    54  H    0.041083
    55  H    0.029565
    56  H    0.120746
    57  H    0.117306
    58  N   -0.060746
    59  C    0.092099
    60  C    0.240389
    61  N   -0.269213
    62  H    0.030515
    63  C    0.175288
    64  N   -0.314054
    65  H    0.039670
    66  C    0.136750
    67  N   -0.258060
    68  C    0.009550
    69  C    0.180910
    70  N   -0.307614
 Sum of Mulliken charges =  -0.00000

 Dipole moment (field-independent basis, Debye):
    X=             -7.6673    Y=              7.1764    Z=             -0.9941  Tot=             10.5488
 Quadrupole moment (field-independent basis, Debye-Ang):
   XX=           -158.9879   YY=           -220.8328   ZZ=           -252.3350
   XY=              2.1233   XZ=            -14.1413   YZ=              7.3511

 Normal termination of Gaussian 16 at Tue Jan 23 12:04:46 2018.
