 Gaussian 16, Revision A.03,
 Gaussian 16:  EM64L-G16RevA.03 25-Dec-2016

 ---------------------------------------
 #p wb97xd/cc-pvdz sp scf=(maxcycles=20)
 ---------------------------------------

 ------------------
 Base pair stacking
 ------------------
 Symbolic Z-matrix:
 Charge =  0 Multiplicity = 1

                         Standard orientation:
 ---------------------------------------------------------------------
 Center     Atomic      Atomic             Coordinates (Angstroms)
 Number     Number       Type             X           Y           Z
 ---------------------------------------------------------------------
      1          7           0       -6.156629   -1.674971    0.713844
      2          6           0       -7.539758   -1.198042    0.907499
      3          6           0       -3.963582   -1.840956    0.732011
      4          7           0       -4.433200   -2.974246    0.084059
      5          6           0       -5.735632   -2.828886    0.099046
      6          1           0       -6.443758   -3.539625   -0.327990
      7          7           0       -2.544643   -0.221737    1.695176
      8          6           0       -3.655013    0.452617    2.011263
      9          1           0       -3.494264    1.392673    2.537297
     10          7           0       -4.928154    0.141553    1.776206
     11          6           0       -5.014216   -1.030708    1.125957
     12          6           0       -2.664784   -1.397722    1.041177
     13          7           0       -1.557554   -2.072346    0.724794
     14          1           0       -1.599080   -2.947079    0.240713
     15          1           0       -0.649295   -1.726583    0.960724
     16          1           0       -8.052264   -1.867260    1.445695
     17          1           0       -7.526834   -0.322936    1.390345
     18          1           0       -7.981310   -1.079595    0.018118
     19          7           0       -3.418596    2.682452   -1.427253
     20          6           0       -2.063755    2.466012   -1.352420
     21          6           0       -4.091346    3.974547   -1.185184
     22          7           0        1.145496    3.660375   -0.772785
     23          1           0        2.077738    3.299585   -0.771218
     24          1           0        1.033975    4.630246   -0.554528
     25          7           0       -1.126975    3.389923   -1.047623
     26          6           0        0.091635    2.879482   -1.054741
     27          7           0        0.373444    1.565087   -1.338381
     28          1           0        1.335233    1.262436   -1.320375
     29          6           0       -0.574515    0.596983   -1.654638
     30          8           0       -0.214539   -0.562181   -1.894428
     31          6           0       -1.888425    1.130375   -1.650957
     32          7           0       -3.108641    0.520568   -1.908046
     33          6           0       -3.985067    1.477301   -1.763943
     34          1           0       -5.061441    1.357876   -1.892086
     35          1           0       -4.733524    3.880648   -0.425198
     36          1           0       -3.407382    4.666707   -0.958501
     37          1           0       -4.586570    4.253548   -2.007214
     38          1           0        6.237454    0.243190   -0.436041
     39          1           0        6.365082    0.368781   -2.188916
     40          1           0        5.176863    1.340810   -1.320198
     41          1           0        4.479182   -4.036081   -1.756229
     42          6           0        4.162422   -2.994329   -1.704658
     43          8           0        1.852629   -3.494663   -1.908664
     44          6           0        2.768207   -2.681700   -1.783759
     45          1           0        1.501305   -1.074609   -1.760856
     46          7           0        2.476143   -1.334750   -1.708527
     47          8           0        3.012894    0.863081   -1.511981
     48          6           0        3.368137   -0.301032   -1.569517
     49          1           0        6.127821   -2.192588   -1.504112
     50          6           0        5.056358   -2.007891   -1.568890
     51          6           0        5.683451    0.387645   -1.351614
     52          7           0        4.693550   -0.682734   -1.500369
     53          1           0        4.342458    2.938568    3.989201
     54          1           0        3.104870    3.301562    2.989843
     55          1           0        4.644509    3.443275    2.466875
     56          1           0        1.936679   -3.207395    0.597313
     57          1           0        3.574448   -2.958105    1.004347
     58          7           0        2.645403   -2.591749    0.942054
     59          6           0        2.365124   -1.337808    1.302925
     60          6           0        2.881621    0.834057    2.126327
     61          7           0        1.624932    1.299073    2.031920
     62          1           0       -0.230175    0.651066    1.449463
     63          6           0        0.812711    0.356377    1.558101
     64          7           0        1.091508   -0.900130    1.196084
     65          1           0        6.048080    0.900663    2.775370
     66          6           0        5.034988    0.623297    2.482694
     67          7           0        4.688022   -0.554004    2.023084
     68          6           0        3.325145   -0.433932    1.793118
     69          6           0        4.023345    2.910651    3.041888
     70          7           0        3.991611    1.512251    2.571285
 ---------------------------------------------------------------------

 SCF Done:  E(RwB97XD) =  -2048.74662387     A.U. after   15 cycles

 The electronic state is 1-A.
 Alpha  occ. eigenvalues --  -19.26054 -19.22500 -19.20747 -14.52605 -14.51972
 Alpha  occ. eigenvalues --  -14.48810 -14.48503 -14.47946 -14.47075 -14.47067
 Alpha  occ. eigenvalues --  -14.46835 -14.45091 -14.43649 -14.43577 -14.42139
 Alpha  occ. eigenvalues --  -14.41854 -14.41074 -14.40899 -14.40670 -14.39938
 Alpha  occ. eigenvalues --  -10.45672 -10.41355 -10.40620 -10.39173 -10.38341
 Alpha  occ. eigenvalues --  -10.38067 -10.37587 -10.36614 -10.35193 -10.35131
 Alpha  occ. eigenvalues --  -10.35094 -10.34408 -10.33765 -10.33583 -10.33353
 Alpha  occ. eigenvalues --  -10.33045 -10.32848 -10.32083 -10.31342 -10.30887
 Alpha  occ. eigenvalues --  -10.30862 -10.28183 -10.28171  -1.19622  -1.14686
 Alpha  occ. eigenvalues --   -1.13565  -1.13318  -1.11048  -1.10649  -1.09504
 Alpha  occ. eigenvalues --   -1.08686  -1.08559  -1.04708  -1.04120  -1.02721
 Alpha  occ. eigenvalues --   -1.00474  -1.00113  -0.99891  -0.98648  -0.96686
 Alpha  occ. eigenvalues --   -0.96634  -0.96112  -0.92364  -0.91307  -0.87091
 Alpha  occ. eigenvalues --   -0.85456  -0.84166  -0.83722  -0.83684  -0.82531
 Alpha  occ. eigenvalues --   -0.82077  -0.79102  -0.76425  -0.74706  -0.74183
 Alpha  occ. eigenvalues --   -0.73785  -0.73577  -0.72610  -0.70774  -0.69805
 Alpha  occ. eigenvalues --   -0.67502  -0.66743  -0.66148  -0.66006  -0.64649
 Alpha  occ. eigenvalues --   -0.63900  -0.63613  -0.62787  -0.62416  -0.61858
 Alpha  occ. eigenvalues --   -0.60262  -0.60060  -0.59872  -0.59654  -0.59040
 Alpha  occ. eigenvalues --   -0.58906  -0.58510  -0.56654  -0.56296  -0.56202
 Alpha  occ. eigenvalues --   -0.56146  -0.55160  -0.54828  -0.54607  -0.54495
 Alpha  occ. eigenvalues --   -0.53782  -0.53645  -0.53083  -0.53067  -0.53028
 Alpha  occ. eigenvalues --   -0.52566  -0.52249  -0.51560  -0.50519  -0.50313
 Alpha  occ. eigenvalues --   -0.49981  -0.49675  -0.49390  -0.49172  -0.49080
 Alpha  occ. eigenvalues --   -0.48569  -0.48439  -0.48058  -0.47687  -0.47542
 Alpha  occ. eigenvalues --   -0.46701  -0.45684  -0.44720  -0.44267  -0.43976
 Alpha  occ. eigenvalues --   -0.40846  -0.40191  -0.39610  -0.37371  -0.37349
 Alpha  occ. eigenvalues --   -0.37113  -0.36941  -0.36880  -0.36186  -0.34390
 Alpha  occ. eigenvalues --   -0.34119  -0.33772  -0.33610  -0.33179  -0.33157
 Alpha  occ. eigenvalues --   -0.32715  -0.32500  -0.32311  -0.31940  -0.30654
 Alpha  occ. eigenvalues --   -0.30161  -0.29325  -0.25612  -0.25300
 Alpha virt. eigenvalues --    0.02537   0.04706   0.07259   0.08296   0.08670
 Alpha virt. eigenvalues --    0.09105   0.09680   0.10985   0.11327   0.11955
 Alpha virt. eigenvalues --    0.12903   0.14389   0.14626   0.14740   0.15470

 Mulliken charges:
               1
     1  N   -0.312394
     2  C    0.180605
     3  C    0.053234
     4  N   -0.257668
     5  C    0.133227
     6  H    0.025156
     7  N   -0.294153
     8  C    0.133980
     9  H    0.009718
    10  N   -0.292739
    11  C    0.239286
    12  C    0.111893
    13  N   -0.048871
    14  H    0.112501
    15  H    0.089932
    16  H    0.025364
    17  H    0.032618
    18  H    0.023940
    19  N   -0.311168
    20  C    0.252410
    21  C    0.180363
    22  N   -0.118569
    23  H    0.113380
    24  H    0.116868
    25  N   -0.309804
    26  C    0.243411
    27  N   -0.145682
    28  H    0.119018
    29  C    0.182432
    30  O   -0.323171
    31  C   -0.006323
    32  N   -0.225768
    33  C    0.133001
    34  H    0.023946
    35  H    0.031324
    36  H    0.028398
    37  H    0.023908
    38  H    0.061259
    39  H    0.059227
    40  H    0.071359
    41  H    0.028585
    42  C   -0.116976
    43  O   -0.272522
    44  C    0.144583
    45  H    0.135392
    46  N   -0.110897
    47  O   -0.344231
    48  C    0.341583
    49  H    0.049732
    50  C    0.179969
    51  C    0.040395
    52  N   -0.281950
    53  H    0.033579
    54  H    0.041917
    55  H    0.024494
    56  H    0.128526
    57  H    0.115059
    58  N   -0.053377
    59  C    0.083948
    60  C    0.249826
    61  N   -0.272470
    62  H    0.038148
    63  C    0.164766
    64  N   -0.301925
    65  H    0.033759
    66  C    0.133834
    67  N   -0.265597
    68  C    0.018184
    69  C    0.179486
    70  N   -0.311267
 Sum of Mulliken charges =  -0.00000

 Dipole moment (field-independent basis, Debye):
    X=              7.9411    Y=              6.4602    Z=              1.8608  Tot=             10.4047
 Quadrupole moment (field-independent basis, Debye-Ang):
   XX=           -149.4907   YY=           -221.1743   ZZ=           -252.4371
   XY=              2.7839   XZ=              5.2820   YZ=             -3.1960

 Normal termination of Gaussian 16 at Tue Jan 23 01:12:10 2018.
