 Gaussian 16, Revision A.03,
 Gaussian 16:  EM64L-G16RevA.03 25-Dec-2016

 ---------------------------------------
 #p wb97xd/cc-pvdz sp scf=(maxcycles=20)
 ---------------------------------------

 ------------------
 Base pair stacking
 ------------------
 Symbolic Z-matrix:
 Charge =  0 Multiplicity = 1

                         Standard orientation:
 ---------------------------------------------------------------------
 Center     Atomic      Atomic             Coordinates (Angstroms)
 Number     Number       Type             X           Y           Z
 ---------------------------------------------------------------------
      1          7           0       -6.696832   -1.461781    0.394998
      2          6           0       -8.072639   -0.930028    0.444249
      3          6           0       -4.515348   -1.680373    0.570012
      4          7           0       -4.982634   -2.870378    0.031264
      5          6           0       -6.278199   -2.691054   -0.052622
      6          1           0       -6.982683   -3.429268   -0.436929
      7          7           0       -3.103667    0.005241    1.423735
      8          6           0       -4.208118    0.740556    1.588288
      9          1           0       -4.048099    1.732149    2.009498
     10          7           0       -5.474603    0.436326    1.311949
     11          6           0       -5.560356   -0.802428    0.799551
     12          6           0       -3.223315   -1.236790    0.905911
     13          7           0       -2.121998   -1.972327    0.740895
     14          1           0       -2.163399   -2.897127    0.361089
     15          1           0       -1.218466   -1.624250    0.991150
     16          1           0       -8.637794   -1.517109    1.024001
     17          1           0       -8.059681   -0.004283    0.821001
     18          1           0       -8.456587   -0.907070   -0.478811
     19          7           0       -2.799500    2.591563   -1.656358
     20          6           0       -1.456435    2.356299   -1.486427
     21          6           0       -3.462297    3.902556   -1.505763
     22          7           0        1.730825    3.519855   -0.745306
     23          1           0        2.654229    3.144401   -0.670400
     24          1           0        1.623580    4.498956   -0.570453
     25          7           0       -0.524088    3.275856   -1.155987
     26          6           0        0.682849    2.745945   -1.065776
     27          7           0        0.957802    1.417389   -1.282212
     28          1           0        1.910712    1.100182   -1.191136
     29          6           0        0.014206    0.453416   -1.623178
     30          8           0        0.367236   -0.719636   -1.796551
     31          6           0       -1.287166    1.007674   -1.723805
     32          7           0       -2.499560    0.408328   -2.036475
     33          6           0       -3.365532    1.383822   -1.984410
     34          1           0       -4.433566    1.276996   -2.177204
     35          1           0       -4.153314    3.847828   -0.785819
     36          1           0       -2.781508    4.591681   -1.261007
     37          1           0       -3.898797    4.158206   -2.367695
     38          1           0        6.726787    0.036235    0.044262
     39          1           0        6.968341    0.093367   -1.700174
     40          1           0        5.745296    1.116586   -0.946142
     41          1           0        4.977461   -4.261005   -1.228574
     42          6           0        4.677397   -3.213086   -1.235811
     43          8           0        2.376463   -3.683487   -1.569823
     44          6           0        3.297093   -2.881245   -1.416065
     45          1           0        2.061276   -1.254232   -1.533906
     46          7           0        3.025811   -1.527881   -1.409316
     47          8           0        3.589502    0.666882   -1.259382
     48          6           0        3.926087   -0.504148   -1.251126
     49          1           0        6.640490   -2.436103   -0.938530
     50          6           0        5.578947   -2.236757   -1.078994
     51          6           0        6.235113    0.154873   -0.909812
     52          7           0        5.237086   -0.904279   -1.082695
     53          1           0        3.735266    3.239286    3.758724
     54          1           0        2.571634    3.512211    2.648057
     55          1           0        4.143379    3.551287    2.209687
     56          1           0        1.334569   -3.203332    0.966810
     57          1           0        2.952625   -2.949259    1.443718
     58          7           0        2.041416   -2.569326    1.280744
     59          6           0        1.781494   -1.274593    1.473780
     60          6           0        2.319192    0.965954    2.067572
     61          7           0        1.086226    1.448369    1.840662
     62          1           0       -0.751355    0.783199    1.223019
     63          6           0        0.273046    0.477008    1.430647
     64          7           0        0.531469   -0.820364    1.236690
     65          1           0        5.442108    1.028481    2.901639
     66          6           0        4.439596    0.744216    2.580549
     67          7           0        4.082071   -0.470195    2.241315
     68          6           0        2.739889   -0.343591    1.913837
     69          6           0        3.472104    3.106948    2.803097
     70          7           0        3.422496    1.663731    2.498660
 ---------------------------------------------------------------------

 SCF Done:  E(RwB97XD) =  -2048.74718688     A.U. after   15 cycles

 The electronic state is 1-A.
 Alpha  occ. eigenvalues --  -19.26026 -19.22339 -19.20739 -14.52580 -14.51594
 Alpha  occ. eigenvalues --  -14.48906 -14.48778 -14.48050 -14.47014 -14.46977
 Alpha  occ. eigenvalues --  -14.46595 -14.44657 -14.43065 -14.43005 -14.42166
 Alpha  occ. eigenvalues --  -14.42142 -14.41536 -14.41028 -14.40831 -14.40221
 Alpha  occ. eigenvalues --  -10.45662 -10.41371 -10.40450 -10.38639 -10.38336
 Alpha  occ. eigenvalues --  -10.38039 -10.37201 -10.36133 -10.35451 -10.35417
 Alpha  occ. eigenvalues --  -10.34602 -10.34434 -10.34199 -10.33480 -10.33398
 Alpha  occ. eigenvalues --  -10.33275 -10.33195 -10.31593 -10.31277 -10.31120
 Alpha  occ. eigenvalues --  -10.30819 -10.28627 -10.28194  -1.19594  -1.14264
 Alpha  occ. eigenvalues --   -1.13370  -1.13329  -1.11477  -1.10632  -1.09474
 Alpha  occ. eigenvalues --   -1.08707  -1.07997  -1.05046  -1.03567  -1.02710
 Alpha  occ. eigenvalues --   -1.00470  -1.00068  -0.99952  -0.98638  -0.97062
 Alpha  occ. eigenvalues --   -0.96597  -0.95584  -0.92691  -0.91249  -0.86678
 Alpha  occ. eigenvalues --   -0.85122  -0.84160  -0.84061  -0.83815  -0.82503
 Alpha  occ. eigenvalues --   -0.82429  -0.79065  -0.75961  -0.74699  -0.73820
 Alpha  occ. eigenvalues --   -0.73693  -0.73560  -0.72974  -0.71145  -0.69342
 Alpha  occ. eigenvalues --   -0.67525  -0.66739  -0.66373  -0.65685  -0.64629
 Alpha  occ. eigenvalues --   -0.63877  -0.63185  -0.62796  -0.62727  -0.61885
 Alpha  occ. eigenvalues --   -0.60288  -0.59940  -0.59698  -0.59464  -0.58929
 Alpha  occ. eigenvalues --   -0.58562  -0.58547  -0.56690  -0.56587  -0.56509
 Alpha  occ. eigenvalues --   -0.56134  -0.55432  -0.54692  -0.54565  -0.54383
 Alpha  occ. eigenvalues --   -0.53763  -0.53593  -0.53035  -0.52855  -0.52644
 Alpha  occ. eigenvalues --   -0.52514  -0.51864  -0.51847  -0.50874  -0.50289
 Alpha  occ. eigenvalues --   -0.50276  -0.49639  -0.49283  -0.49112  -0.48983
 Alpha  occ. eigenvalues --   -0.48603  -0.48364  -0.47945  -0.47694  -0.47538
 Alpha  occ. eigenvalues --   -0.47055  -0.45528  -0.45119  -0.44292  -0.43393
 Alpha  occ. eigenvalues --   -0.41259  -0.39768  -0.39598  -0.37391  -0.37325
 Alpha  occ. eigenvalues --   -0.37274  -0.36637  -0.36507  -0.36052  -0.34377
 Alpha  occ. eigenvalues --   -0.33816  -0.33574  -0.33539  -0.33409  -0.33018
 Alpha  occ. eigenvalues --   -0.32791  -0.32421  -0.32223  -0.31899  -0.31039
 Alpha  occ. eigenvalues --   -0.30452  -0.28801  -0.25830  -0.25558
 Alpha virt. eigenvalues --    0.02749   0.05054   0.07637   0.07879   0.08756
 Alpha virt. eigenvalues --    0.09193   0.09558   0.10887   0.11278   0.11733
 Alpha virt. eigenvalues --    0.12734   0.13936   0.14536   0.14684   0.15340

 Mulliken charges:
               1
     1  N   -0.311417
     2  C    0.180670
     3  C    0.040738
     4  N   -0.257711
     5  C    0.132610
     6  H    0.026574
     7  N   -0.289714
     8  C    0.129302
     9  H    0.011093
    10  N   -0.290914
    11  C    0.236366
    12  C    0.118888
    13  N   -0.050141
    14  H    0.109834
    15  H    0.090278
    16  H    0.026106
    17  H    0.033969
    18  H    0.025098
    19  N   -0.310676
    20  C    0.247251
    21  C    0.180568
    22  N   -0.118357
    23  H    0.113106
    24  H    0.116536
    25  N   -0.304142
    26  C    0.238962
    27  N   -0.132094
    28  H    0.115446
    29  C    0.158876
    30  O   -0.320442
    31  C    0.005511
    32  N   -0.224074
    33  C    0.129802
    34  H    0.028051
    35  H    0.031599
    36  H    0.027966
    37  H    0.024025
    38  H    0.060828
    39  H    0.060403
    40  H    0.071650
    41  H    0.030341
    42  C   -0.115184
    43  O   -0.274333
    44  C    0.156572
    45  H    0.137517
    46  N   -0.124989
    47  O   -0.350818
    48  C    0.356880
    49  H    0.049115
    50  C    0.182846
    51  C    0.041062
    52  N   -0.288244
    53  H    0.033235
    54  H    0.040946
    55  H    0.020753
    56  H    0.127623
    57  H    0.114085
    58  N   -0.050907
    59  C    0.099611
    60  C    0.237720
    61  N   -0.266194
    62  H    0.043243
    63  C    0.162632
    64  N   -0.299313
    65  H    0.029779
    66  C    0.130451
    67  N   -0.265789
    68  C    0.013552
    69  C    0.177480
    70  N   -0.312095
 Sum of Mulliken charges =  -0.00000

 Dipole moment (field-independent basis, Debye):
    X=              7.7224    Y=              6.0916    Z=              2.0977  Tot=             10.0570
 Quadrupole moment (field-independent basis, Debye-Ang):
   XX=           -145.4627   YY=           -222.0067   ZZ=           -252.2006
   XY=              5.2841   XZ=             11.0805   YZ=             -5.6807

 Normal termination of Gaussian 16 at Mon Jan 22 22:29:30 2018.
