 Gaussian 16, Revision A.03,
 Gaussian 16:  EM64L-G16RevA.03 25-Dec-2016

 ---------------------------------------
 #p wb97xd/cc-pvdz sp scf=(maxcycles=20)
 ---------------------------------------

 ------------------
 Base pair stacking
 ------------------
 Symbolic Z-matrix:
 Charge =  0 Multiplicity = 1

                         Standard orientation:
 ---------------------------------------------------------------------
 Center     Atomic      Atomic             Coordinates (Angstroms)
 Number     Number       Type             X           Y           Z
 ---------------------------------------------------------------------
      1          7           0        4.890795   -1.971229   -1.560688
      2          6           0        6.265228   -1.556529   -1.902702
      3          6           0        2.707335   -2.016710   -1.300383
      4          7           0        3.183233   -3.219040   -0.797718
      5          6           0        4.479639   -3.143513   -0.974668
      6          1           0        5.190106   -3.921438   -0.693568
      7          7           0        1.282307   -0.255656   -1.956831
      8          6           0        2.383620    0.379513   -2.370650
      9          1           0        2.216788    1.363623   -2.806482
     10          7           0        3.654098   -0.016585   -2.327122
     11          6           0        3.748181   -1.237173   -1.774183
     12          6           0        1.410357   -1.482077   -1.404931
     13          7           0        0.312174   -2.117701   -0.991248
     14          1           0        0.359766   -3.027195   -0.576777
     15          1           0       -0.595064   -1.706713   -1.081459
     16          1           0        6.661374   -2.210279   -2.547583
     17          1           0        6.246135   -0.648319   -2.319710
     18          1           0        6.823418   -1.529029   -1.073440
     19          7           0        4.763844    2.364974    0.906268
     20          6           0        3.400035    2.234267    1.011088
     21          6           0        5.477981    3.610240    0.559815
     22          7           0        0.222765    3.625579    0.835138
     23          1           0       -0.722247    3.324549    0.959911
     24          1           0        0.364711    4.584974    0.589907
     25          7           0        2.490531    3.213596    0.816760
     26          6           0        1.254006    2.781407    0.989515
     27          7           0        0.930761    1.489408    1.326790
     28          1           0       -0.042038    1.248163    1.438221
     29          6           0        1.850090    0.465336    1.531672
     30          8           0        1.453390   -0.667087    1.833311
     31          6           0        3.182787    0.914422    1.349630
     32          7           0        4.385990    0.230294    1.455221
     33          6           0        5.293671    1.128627    1.184443
     34          1           0        6.368092    0.942132    1.173574
     35          1           0        6.008489    3.470813   -0.275600
     36          1           0        4.814475    4.342793    0.413567
     37          1           0        6.092513    3.862756    1.306403
     38          1           0       -5.071357    0.535537    1.212697
     39          1           0       -4.961228    0.680588    2.965257
     40          1           0       -3.838582    1.569639    1.935379
     41          1           0       -3.424281   -3.837622    2.356866
     42          6           0       -3.053066   -2.818391    2.249190
     43          8           0       -0.771838   -3.462620    2.159151
     44          6           0       -1.643778   -2.594160    2.142062
     45          1           0       -0.293626   -1.070709    1.931142
     46          7           0       -1.281191   -1.268936    2.009605
     47          8           0       -1.701855    0.957126    1.851800
     48          6           0       -2.117954   -0.181747    1.972206
     49          1           0       -4.974375   -1.895148    2.293507
     50          6           0       -3.894261   -1.778251    2.215960
     51          6           0       -4.394780    0.650697    2.046386
     52          7           0       -3.462129   -0.479211    2.081293
     53          1           0       -5.627532    3.434862   -3.104193
     54          1           0       -4.251911    3.654650   -2.254799
     55          1           0       -5.700023    3.839744   -1.524869
     56          1           0       -3.201892   -3.068745   -0.480297
     57          1           0       -4.859154   -2.701596   -0.649930
     58          7           0       -3.908460   -2.391645   -0.686312
     59          6           0       -3.597803   -1.131169   -0.995914
     60          6           0       -4.076769    1.120963   -1.596112
     61          7           0       -2.791435    1.509057   -1.637347
     62          1           0       -0.921866    0.720022   -1.349703
     63          6           0       -1.986624    0.491044   -1.339307
     64          7           0       -2.295847   -0.772146   -1.028935
     65          1           0       -7.289593    1.406888   -1.815605
     66          6           0       -6.267011    1.054092   -1.678506
     67          7           0       -5.939369   -0.171343   -1.348887
     68          6           0       -4.553438   -0.142603   -1.293263
     69          6           0       -5.192392    3.318904   -2.211323
     70          7           0       -5.189351    1.889521   -1.844081
 ---------------------------------------------------------------------

 SCF Done:  E(RwB97XD) =  -2048.74721369     A.U. after   15 cycles

 The electronic state is 1-A.
 Alpha  occ. eigenvalues --  -19.25690 -19.21953 -19.20631 -14.52511 -14.52327
 Alpha  occ. eigenvalues --  -14.48981 -14.48381 -14.48022 -14.47576 -14.46929
 Alpha  occ. eigenvalues --  -14.46742 -14.45535 -14.44510 -14.44397 -14.42128
 Alpha  occ. eigenvalues --  -14.42115 -14.41189 -14.40597 -14.40583 -14.40090
 Alpha  occ. eigenvalues --  -10.45295 -10.41333 -10.40149 -10.40038 -10.38290
 Alpha  occ. eigenvalues --  -10.38076 -10.37794 -10.37311 -10.35943 -10.35158
 Alpha  occ. eigenvalues --  -10.34813 -10.34516 -10.33882 -10.33616 -10.33365
 Alpha  occ. eigenvalues --  -10.32809 -10.32798 -10.32771 -10.31086 -10.30909
 Alpha  occ. eigenvalues --  -10.30412 -10.28273 -10.27994  -1.19246  -1.15279
 Alpha  occ. eigenvalues --   -1.13271  -1.12948  -1.10738  -1.10634  -1.09575
 Alpha  occ. eigenvalues --   -1.09115  -1.08632  -1.05003  -1.04721  -1.02272
 Alpha  occ. eigenvalues --   -1.01070  -1.00126  -0.99817  -0.98652  -0.97044
 Alpha  occ. eigenvalues --   -0.96775  -0.96298  -0.92419  -0.90969  -0.87719
 Alpha  occ. eigenvalues --   -0.85948  -0.84287  -0.83394  -0.83361  -0.82660
 Alpha  occ. eigenvalues --   -0.81778  -0.78779  -0.77174  -0.74958  -0.74764
 Alpha  occ. eigenvalues --   -0.73724  -0.73179  -0.72473  -0.70659  -0.70506
 Alpha  occ. eigenvalues --   -0.67493  -0.66970  -0.66391  -0.65871  -0.64486
 Alpha  occ. eigenvalues --   -0.64364  -0.63790  -0.62728  -0.62311  -0.61886
 Alpha  occ. eigenvalues --   -0.60720  -0.60429  -0.60239  -0.59447  -0.59364
 Alpha  occ. eigenvalues --   -0.59158  -0.58449  -0.56795  -0.56195  -0.55919
 Alpha  occ. eigenvalues --   -0.55703  -0.55383  -0.55108  -0.54424  -0.54155
 Alpha  occ. eigenvalues --   -0.53752  -0.53670  -0.53581  -0.53137  -0.53048
 Alpha  occ. eigenvalues --   -0.52872  -0.52231  -0.51272  -0.50333  -0.50216
 Alpha  occ. eigenvalues --   -0.50051  -0.49689  -0.49375  -0.49320  -0.48921
 Alpha  occ. eigenvalues --   -0.48564  -0.48436  -0.48366  -0.47867  -0.47328
 Alpha  occ. eigenvalues --   -0.46500  -0.45801  -0.45499  -0.44407  -0.43273
 Alpha  occ. eigenvalues --   -0.40806  -0.40762  -0.39303  -0.37797  -0.37700
 Alpha  occ. eigenvalues --   -0.37436  -0.37396  -0.36644  -0.35821  -0.34891
 Alpha  occ. eigenvalues --   -0.34451  -0.34069  -0.33244  -0.33047  -0.32838
 Alpha  occ. eigenvalues --   -0.32768  -0.32642  -0.32294  -0.31975  -0.30415
 Alpha  occ. eigenvalues --   -0.30100  -0.29705  -0.25650  -0.25396
 Alpha virt. eigenvalues --    0.02864   0.04034   0.06576   0.08389   0.08975
 Alpha virt. eigenvalues --    0.09117   0.09652   0.10405   0.11370   0.11731
 Alpha virt. eigenvalues --    0.13221   0.14230   0.14566   0.14845   0.14922

 Mulliken charges:
               1
     1  N   -0.310333
     2  C    0.181430
     3  C    0.055632
     4  N   -0.256716
     5  C    0.144578
     6  H    0.025844
     7  N   -0.297358
     8  C    0.131762
     9  H    0.009829
    10  N   -0.286842
    11  C    0.252627
    12  C    0.093287
    13  N   -0.060838
    14  H    0.115715
    15  H    0.084096
    16  H    0.022985
    17  H    0.029711
    18  H    0.026102
    19  N   -0.309707
    20  C    0.258465
    21  C    0.181300
    22  N   -0.123479
    23  H    0.118337
    24  H    0.118057
    25  N   -0.312365
    26  C    0.249534
    27  N   -0.146273
    28  H    0.118511
    29  C    0.193520
    30  O   -0.321316
    31  C   -0.015713
    32  N   -0.227824
    33  C    0.124299
    34  H    0.020849
    35  H    0.028473
    36  H    0.029882
    37  H    0.024381
    38  H    0.066160
    39  H    0.059177
    40  H    0.074505
    41  H    0.024173
    42  C   -0.124972
    43  O   -0.267378
    44  C    0.169589
    45  H    0.131212
    46  N   -0.120903
    47  O   -0.346704
    48  C    0.346179
    49  H    0.043459
    50  C    0.171958
    51  C    0.036264
    52  N   -0.276066
    53  H    0.034306
    54  H    0.041306
    55  H    0.028712
    56  H    0.123815
    57  H    0.114307
    58  N   -0.054771
    59  C    0.095232
    60  C    0.247644
    61  N   -0.272577
    62  H    0.033086
    63  C    0.173990
    64  N   -0.314971
    65  H    0.038532
    66  C    0.134696
    67  N   -0.261556
    68  C    0.008242
    69  C    0.180977
    70  N   -0.308065
 Sum of Mulliken charges =  -0.00000

 Dipole moment (field-independent basis, Debye):
    X=             -7.7314    Y=              7.0908    Z=             -1.1305  Tot=             10.5514
 Quadrupole moment (field-independent basis, Debye-Ang):
   XX=           -156.7245   YY=           -220.3644   ZZ=           -252.7825
   XY=              0.2746   XZ=            -10.4669   YZ=              5.0756

 Normal termination of Gaussian 16 at Mon Jan 22 22:41:09 2018.
