 Gaussian 16, Revision A.03,
 Gaussian 16:  EM64L-G16RevA.03 25-Dec-2016

 ---------------------------------------
 #p wb97xd/cc-pvdz sp scf=(maxcycles=20)
 ---------------------------------------

 ------------------
 Base pair stacking
 ------------------
 Symbolic Z-matrix:
 Charge =  0 Multiplicity = 1

                         Standard orientation:
 ---------------------------------------------------------------------
 Center     Atomic      Atomic             Coordinates (Angstroms)
 Number     Number       Type             X           Y           Z
 ---------------------------------------------------------------------
      1          7           0        4.893731   -1.687198   -1.605069
      2          6           0        6.280930   -1.198202   -1.725781
      3          6           0        2.699562   -1.793937   -1.497621
      4          7           0        3.158889   -3.095168   -1.354362
      5          6           0        4.462410   -2.978784   -1.424829
      6          1           0        5.164003   -3.810194   -1.350800
      7          7           0        1.295464    0.092980   -1.673701
      8          6           0        2.411726    0.815748   -1.812081
      9          1           0        2.259478    1.886635   -1.939650
     10          7           0        3.681847    0.416154   -1.816502
     11          6           0        3.757323   -0.915010   -1.653043
     12          6           0        1.404978   -1.243661   -1.511016
     13          7           0        0.291854   -1.966855   -1.372724
     14          1           0        0.325484   -2.959324   -1.249880
     15          1           0       -0.613138   -1.541485   -1.387186
     16          1           0        6.720493   -1.629599   -2.513732
     17          1           0        6.275909   -0.206368   -1.849770
     18          1           0        6.790304   -1.426101   -0.895966
     19          7           0        4.775693    2.159073    0.992934
     20          6           0        3.409987    2.014011    1.035994
     21          6           0        5.491532    3.405462    0.654122
     22          7           0        0.229329    3.362654    0.680575
     23          1           0       -0.717118    3.052807    0.766970
     24          1           0        0.372040    4.318396    0.421916
     25          7           0        2.499863    2.977968    0.778097
     26          6           0        1.261435    2.534474    0.901442
     27          7           0        0.936976    1.245914    1.250541
     28          1           0       -0.037270    0.995233    1.321038
     29          6           0        1.856917    0.237573    1.520403
     30          8           0        1.458995   -0.893080    1.827051
     31          6           0        3.191644    0.698942    1.391963
     32          7           0        4.396045    0.031817    1.568816
     33          6           0        5.305474    0.935303    1.322118
     34          1           0        6.381220    0.761694    1.365976
     35          1           0        6.062619    3.255171   -0.152149
     36          1           0        4.827589    4.126706    0.461111
     37          1           0        6.067077    3.680891    1.423339
     38          1           0       -5.041944    0.217019    0.873498
     39          1           0       -5.016753    0.399762    2.625811
     40          1           0       -3.856484    1.280805    1.631379
     41          1           0       -3.402353   -4.111109    2.187164
     42          6           0       -3.037835   -3.089892    2.075426
     43          8           0       -0.747868   -3.708074    2.106978
     44          6           0       -1.627645   -2.850824    2.030216
     45          1           0       -0.286082   -1.315784    1.850853
     46          7           0       -1.273983   -1.524327    1.886795
     47          8           0       -1.711494    0.692701    1.661876
     48          6           0       -2.120100   -0.448401    1.786758
     49          1           0       -4.969273   -2.189337    2.009274
     50          6           0       -3.888053   -2.060965    1.980338
     51          6           0       -4.407033    0.357670    1.735566
     52          7           0       -3.464547   -0.759843    1.838563
     53          1           0       -5.576914    4.005647   -2.052841
     54          1           0       -4.254754    3.949288   -1.098488
     55          1           0       -5.744276    3.915555   -0.431945
     56          1           0       -3.235185   -3.003287   -1.377042
     57          1           0       -4.883889   -2.590545   -1.523778
     58          7           0       -3.936103   -2.290684   -1.409802
     59          6           0       -3.621918   -0.997735   -1.306212
     60          6           0       -4.090140    1.333800   -1.225780
     61          7           0       -2.808846    1.707298   -1.073457
     62          1           0       -0.950376    0.855264   -0.929371
     63          6           0       -2.011436    0.641233   -1.050266
     64          7           0       -2.324188   -0.654546   -1.153867
     65          1           0       -7.288001    1.694964   -1.534640
     66          6           0       -6.271187    1.310131   -1.451319
     67          7           0       -5.949690    0.040112   -1.488300
     68          6           0       -4.569624    0.041097   -1.346364
     69          6           0       -5.192468    3.622625   -1.212904
     70          7           0       -5.194952    2.149077   -1.294410
 ---------------------------------------------------------------------

 SCF Done:  E(RwB97XD) =  -2048.74828441     A.U. after   15 cycles

 The electronic state is 1-A.
 Alpha  occ. eigenvalues --  -19.25305 -19.21516 -19.20402 -14.52837 -14.51946
 Alpha  occ. eigenvalues --  -14.48762 -14.48707 -14.48358 -14.47304 -14.46574
 Alpha  occ. eigenvalues --  -14.46408 -14.45774 -14.44772 -14.44679 -14.42757
 Alpha  occ. eigenvalues --  -14.41900 -14.41025 -14.40982 -14.40911 -14.40461
 Alpha  occ. eigenvalues --  -10.44940 -10.41045 -10.40473 -10.39635 -10.38333
 Alpha  occ. eigenvalues --  -10.38032 -10.37581 -10.37424 -10.36333 -10.35627
 Alpha  occ. eigenvalues --  -10.34272 -10.34235 -10.34177 -10.33761 -10.33431
 Alpha  occ. eigenvalues --  -10.33168 -10.33028 -10.32967 -10.30869 -10.30704
 Alpha  occ. eigenvalues --  -10.30643 -10.28401 -10.27986  -1.18985  -1.15597
 Alpha  occ. eigenvalues --   -1.13007  -1.12537  -1.10994  -1.10470  -1.09789
 Alpha  occ. eigenvalues --   -1.08842  -1.08363  -1.05286  -1.05144  -1.01952
 Alpha  occ. eigenvalues --   -1.01356  -1.00596  -0.99503  -0.98396  -0.97343
 Alpha  occ. eigenvalues --   -0.96689  -0.96523  -0.92846  -0.90624  -0.88041
 Alpha  occ. eigenvalues --   -0.86254  -0.84034  -0.83711  -0.83048  -0.82417
 Alpha  occ. eigenvalues --   -0.82111  -0.78429  -0.77465  -0.75282  -0.74499
 Alpha  occ. eigenvalues --   -0.73429  -0.72894  -0.72857  -0.71031  -0.70809
 Alpha  occ. eigenvalues --   -0.67264  -0.67185  -0.66294  -0.66080  -0.64669
 Alpha  occ. eigenvalues --   -0.64203  -0.63529  -0.62749  -0.62493  -0.61613
 Alpha  occ. eigenvalues --   -0.61060  -0.60791  -0.60596  -0.59768  -0.59184
 Alpha  occ. eigenvalues --   -0.58926  -0.58130  -0.56838  -0.56511  -0.55863
 Alpha  occ. eigenvalues --   -0.55794  -0.55638  -0.55523  -0.54645  -0.54080
 Alpha  occ. eigenvalues --   -0.53886  -0.53616  -0.53343  -0.53148  -0.52830
 Alpha  occ. eigenvalues --   -0.52492  -0.51973  -0.51603  -0.50484  -0.50374
 Alpha  occ. eigenvalues --   -0.50039  -0.49950  -0.49562  -0.49080  -0.48884
 Alpha  occ. eigenvalues --   -0.48662  -0.48188  -0.48069  -0.47656  -0.47070
 Alpha  occ. eigenvalues --   -0.46841  -0.45744  -0.45165  -0.44469  -0.43147
 Alpha  occ. eigenvalues --   -0.41161  -0.41116  -0.39026  -0.38046  -0.38041
 Alpha  occ. eigenvalues --   -0.37352  -0.37172  -0.36925  -0.35547  -0.35150
 Alpha  occ. eigenvalues --   -0.34777  -0.34048  -0.33415  -0.33250  -0.32786
 Alpha  occ. eigenvalues --   -0.32500  -0.32303  -0.31760  -0.31726  -0.30665
 Alpha  occ. eigenvalues --   -0.30447  -0.30130  -0.25962  -0.25260
 Alpha virt. eigenvalues --    0.03273   0.03816   0.06228   0.08010   0.09105
 Alpha virt. eigenvalues --    0.09494   0.09834   0.10078   0.10929   0.12069
 Alpha virt. eigenvalues --    0.12962   0.14278   0.14368   0.14649   0.14822

 Mulliken charges:
               1
     1  N   -0.309977
     2  C    0.180914
     3  C    0.059408
     4  N   -0.261212
     5  C    0.144316
     6  H    0.027091
     7  N   -0.287803
     8  C    0.125987
     9  H    0.014491
    10  N   -0.278623
    11  C    0.253528
    12  C    0.087284
    13  N   -0.060804
    14  H    0.111642
    15  H    0.081695
    16  H    0.023998
    17  H    0.028030
    18  H    0.028798
    19  N   -0.302073
    20  C    0.255310
    21  C    0.182431
    22  N   -0.116895
    23  H    0.118509
    24  H    0.116280
    25  N   -0.303855
    26  C    0.230992
    27  N   -0.125392
    28  H    0.112179
    29  C    0.178668
    30  O   -0.322304
    31  C   -0.013723
    32  N   -0.226181
    33  C    0.117274
    34  H    0.018703
    35  H    0.026886
    36  H    0.029082
    37  H    0.023157
    38  H    0.065089
    39  H    0.055875
    40  H    0.076078
    41  H    0.025789
    42  C   -0.112577
    43  O   -0.264906
    44  C    0.174591
    45  H    0.131152
    46  N   -0.124742
    47  O   -0.341645
    48  C    0.344957
    49  H    0.043881
    50  C    0.164479
    51  C    0.040221
    52  N   -0.277623
    53  H    0.035238
    54  H    0.038481
    55  H    0.030241
    56  H    0.120481
    57  H    0.117965
    58  N   -0.059931
    59  C    0.098208
    60  C    0.229168
    61  N   -0.269738
    62  H    0.018587
    63  C    0.185893
    64  N   -0.312340
    65  H    0.038978
    66  C    0.130642
    67  N   -0.252863
    68  C    0.002665
    69  C    0.181987
    70  N   -0.302090
 Sum of Mulliken charges =  -0.00000

 Dipole moment (field-independent basis, Debye):
    X=             -7.6637    Y=              6.7520    Z=             -2.1276  Tot=             10.4330
 Quadrupole moment (field-independent basis, Debye-Ang):
   XX=           -156.8800   YY=           -222.4256   ZZ=           -254.9099
   XY=              1.5938   XZ=            -11.5925   YZ=             11.3832

 Normal termination of Gaussian 16 at Mon Jan 22 22:18:04 2018.
