 Gaussian 16, Revision A.03,
 Gaussian 16:  EM64L-G16RevA.03 25-Dec-2016

 ---------------------------------------
 #p wb97xd/cc-pvdz sp scf=(maxcycles=20)
 ---------------------------------------

 ------------------
 Base pair stacking
 ------------------
 Symbolic Z-matrix:
 Charge =  0 Multiplicity = 1

                         Standard orientation:
 ---------------------------------------------------------------------
 Center     Atomic      Atomic             Coordinates (Angstroms)
 Number     Number       Type             X           Y           Z
 ---------------------------------------------------------------------
      1          7           0        4.294630   -1.631069   -1.852266
      2          6           0        5.682442   -1.148151   -1.989246
      3          6           0        2.105458   -1.723514   -1.661730
      4          7           0        2.551866   -3.037016   -1.649741
      5          6           0        3.852895   -2.928755   -1.765008
      6          1           0        4.545118   -3.770794   -1.791998
      7          7           0        0.722085    0.186248   -1.616450
      8          6           0        1.841799    0.906431   -1.739581
      9          1           0        1.699567    1.985871   -1.768629
     10          7           0        3.104894    0.495331   -1.831781
     11          6           0        3.168229   -0.845680   -1.786017
     12          6           0        0.819321   -1.160522   -1.573359
     13          7           0       -0.297274   -1.881138   -1.450475
     14          1           0       -0.272635   -2.880800   -1.414432
     15          1           0       -1.195988   -1.446592   -1.390294
     16          1           0        6.083053   -1.514824   -2.829037
     17          1           0        5.686322   -0.149339   -2.027689
     18          1           0        6.222289   -1.451914   -1.204197
     19          7           0        5.345375    2.035891    0.707886
     20          6           0        3.981969    1.900206    0.811616
     21          6           0        6.054226    3.278616    0.342021
     22          7           0        0.798329    3.272499    0.604286
     23          1           0       -0.145502    2.968938    0.731870
     24          1           0        0.936154    4.228273    0.343085
     25          7           0        3.068134    2.871546    0.598424
     26          6           0        1.833323    2.436222    0.775506
     27          7           0        1.515614    1.148549    1.133953
     28          1           0        0.543737    0.904397    1.247125
     29          6           0        2.439468    0.132699    1.358488
     30          8           0        2.047602   -0.996386    1.678400
     31          6           0        3.770376    0.585249    1.172047
     32          7           0        4.976678   -0.090998    1.292205
     33          6           0        5.880591    0.807104    1.008367
     34          1           0        6.955939    0.625797    1.003296
     35          1           0        6.587509    3.127633   -0.489619
     36          1           0        5.387492    4.005268    0.181694
     37          1           0        6.665627    3.546866    1.085682
     38          1           0       -4.481417    0.163036    1.021555
     39          1           0       -4.376409    0.338434    2.771655
     40          1           0       -3.255593    1.215405    1.729518
     41          1           0       -2.815673   -4.181772    2.244049
     42          6           0       -2.449217   -3.162686    2.119921
     43          8           0       -0.164626   -3.796997    2.046402
     44          6           0       -1.040791   -2.933309    2.012416
     45          1           0        0.302350   -1.406965    1.778850
     46          7           0       -0.684413   -1.608735    1.858275
     47          8           0       -1.115655    0.612195    1.661567
     48          6           0       -1.526431   -0.526520    1.800341
     49          1           0       -4.375175   -2.248393    2.143845
     50          6           0       -3.295445   -2.127461    2.066939
     51          6           0       -3.807519    0.295731    1.854807
     52          7           0       -2.869398   -0.828770    1.911220
     53          1           0       -6.104124    4.189253   -1.369170
     54          1           0       -4.744699    4.037115   -0.479830
     55          1           0       -6.205839    3.961901    0.243709
     56          1           0       -3.835792   -2.876129   -1.394345
     57          1           0       -5.483136   -2.434948   -1.435499
     58          7           0       -4.527312   -2.155996   -1.336452
     59          6           0       -4.190899   -0.880121   -1.136106
     60          6           0       -4.622432    1.440657   -0.837021
     61          7           0       -3.330798    1.786162   -0.707600
     62          1           0       -1.480199    0.905350   -0.715489
     63          6           0       -2.548258    0.713699   -0.809295
     64          7           0       -2.883285   -0.565004   -1.009952
     65          1           0       -7.824878    1.860735   -0.978510
     66          6           0       -6.811033    1.459475   -0.971413
     67          7           0       -6.509306    0.194018   -1.130335
     68          6           0       -5.124681    0.168242   -1.047266
     69          6           0       -5.690862    3.731410   -0.582032
     70          7           0       -5.717510    2.270423   -0.788988
 ---------------------------------------------------------------------

 SCF Done:  E(RwB97XD) =  -2048.73679523     A.U. after   15 cycles

 The electronic state is 1-A.
 Alpha  occ. eigenvalues --  -19.25048 -19.21084 -19.20505 -14.52877 -14.51366
 Alpha  occ. eigenvalues --  -14.49133 -14.49015 -14.48412 -14.46982 -14.46604
 Alpha  occ. eigenvalues --  -14.46566 -14.45766 -14.45236 -14.44988 -14.43258
 Alpha  occ. eigenvalues --  -14.41964 -14.41332 -14.41247 -14.41112 -14.40768
 Alpha  occ. eigenvalues --  -10.44549 -10.41105 -10.40810 -10.39220 -10.38322
 Alpha  occ. eigenvalues --  -10.38106 -10.37748 -10.37003 -10.36453 -10.35978
 Alpha  occ. eigenvalues --  -10.34364 -10.34159 -10.33828 -10.33708 -10.33352
 Alpha  occ. eigenvalues --  -10.33344 -10.33270 -10.33268 -10.31157 -10.30330
 Alpha  occ. eigenvalues --  -10.30278 -10.28644 -10.28147  -1.18622  -1.15699
 Alpha  occ. eigenvalues --   -1.13151  -1.12130  -1.11095  -1.10707  -1.10197
 Alpha  occ. eigenvalues --   -1.08532  -1.08310  -1.05640  -1.05486  -1.01577
 Alpha  occ. eigenvalues --   -1.01410  -1.00996  -0.99645  -0.98528  -0.97705
 Alpha  occ. eigenvalues --   -0.96810  -0.96719  -0.93193  -0.90189  -0.88297
 Alpha  occ. eigenvalues --   -0.86329  -0.84256  -0.83832  -0.82717  -0.82486
 Alpha  occ. eigenvalues --   -0.82052  -0.78033  -0.77656  -0.75524  -0.74662
 Alpha  occ. eigenvalues --   -0.73571  -0.73127  -0.72508  -0.71322  -0.71052
 Alpha  occ. eigenvalues --   -0.67464  -0.67348  -0.66525  -0.65731  -0.64847
 Alpha  occ. eigenvalues --   -0.64277  -0.63314  -0.63004  -0.62505  -0.61772
 Alpha  occ. eigenvalues --   -0.61218  -0.60885  -0.60651  -0.60027  -0.58966
 Alpha  occ. eigenvalues --   -0.58748  -0.58267  -0.57193  -0.56722  -0.56061
 Alpha  occ. eigenvalues --   -0.55755  -0.55739  -0.55534  -0.55069  -0.54186
 Alpha  occ. eigenvalues --   -0.53938  -0.53925  -0.53333  -0.53065  -0.52874
 Alpha  occ. eigenvalues --   -0.51759  -0.51586  -0.51237  -0.50533  -0.50526
 Alpha  occ. eigenvalues --   -0.50127  -0.50012  -0.49672  -0.49061  -0.48991
 Alpha  occ. eigenvalues --   -0.48732  -0.48002  -0.47909  -0.47388  -0.46983
 Alpha  occ. eigenvalues --   -0.46933  -0.45501  -0.45320  -0.44877  -0.42944
 Alpha  occ. eigenvalues --   -0.41538  -0.41187  -0.38914  -0.38326  -0.38190
 Alpha  occ. eigenvalues --   -0.37719  -0.37235  -0.36927  -0.35517  -0.35177
 Alpha  occ. eigenvalues --   -0.35072  -0.34288  -0.33693  -0.33465  -0.32933
 Alpha  occ. eigenvalues --   -0.32554  -0.32269  -0.31820  -0.30865  -0.30778
 Alpha  occ. eigenvalues --   -0.30622  -0.30492  -0.26293  -0.25331
 Alpha virt. eigenvalues --    0.03174   0.04124   0.06148   0.07659   0.08925
 Alpha virt. eigenvalues --    0.09157   0.09739   0.10050   0.10689   0.11959
 Alpha virt. eigenvalues --    0.13507   0.14084   0.14443   0.14522   0.14645

 Mulliken charges:
               1
     1  N   -0.306849
     2  C    0.182278
     3  C    0.069424
     4  N   -0.261518
     5  C    0.149053
     6  H    0.029082
     7  N   -0.285645
     8  C    0.122573
     9  H    0.013789
    10  N   -0.268394
    11  C    0.243871
    12  C    0.075135
    13  N   -0.067337
    14  H    0.111900
    15  H    0.081875
    16  H    0.021408
    17  H    0.028567
    18  H    0.032336
    19  N   -0.307964
    20  C    0.270473
    21  C    0.183237
    22  N   -0.106697
    23  H    0.124516
    24  H    0.117287
    25  N   -0.293072
    26  C    0.181956
    27  N   -0.109729
    28  H    0.118679
    29  C    0.160099
    30  O   -0.318150
    31  C   -0.000309
    32  N   -0.230164
    33  C    0.110192
    34  H    0.021375
    35  H    0.024377
    36  H    0.030661
    37  H    0.024715
    38  H    0.065927
    39  H    0.051033
    40  H    0.079679
    41  H    0.024871
    42  C   -0.116686
    43  O   -0.264471
    44  C    0.174991
    45  H    0.134654
    46  N   -0.127141
    47  O   -0.347840
    48  C    0.346355
    49  H    0.042382
    50  C    0.166894
    51  C    0.043306
    52  N   -0.275869
    53  H    0.034870
    54  H    0.039973
    55  H    0.031473
    56  H    0.119324
    57  H    0.121113
    58  N   -0.064581
    59  C    0.076645
    60  C    0.211475
    61  N   -0.257382
    62  H    0.022717
    63  C    0.164032
    64  N   -0.301842
    65  H    0.041155
    66  C    0.138660
    67  N   -0.254848
    68  C    0.032324
    69  C    0.180804
    70  N   -0.307025
 Sum of Mulliken charges =  -0.00000

 Dipole moment (field-independent basis, Debye):
    X=             -7.7071    Y=              7.0342    Z=             -1.9685  Tot=             10.6186
 Quadrupole moment (field-independent basis, Debye-Ang):
   XX=           -161.1157   YY=           -223.5686   ZZ=           -253.0336
   XY=              5.8477   XZ=            -17.6117   YZ=             13.2764

 Normal termination of Gaussian 16 at Tue Jan 23 04:06:59 2018.
