 Gaussian 16, Revision A.03,
 Gaussian 16:  EM64L-G16RevA.03 25-Dec-2016

 ---------------------------------------
 #p wb97xd/cc-pvdz sp scf=(maxcycles=20)
 ---------------------------------------

 ------------------
 Base pair stacking
 ------------------
 Symbolic Z-matrix:
 Charge =  0 Multiplicity = 1

                         Standard orientation:
 ---------------------------------------------------------------------
 Center     Atomic      Atomic             Coordinates (Angstroms)
 Number     Number       Type             X           Y           Z
 ---------------------------------------------------------------------
      1          7           0       -5.837833   -1.692152    0.994904
      2          6           0       -7.220790   -1.196512    1.135535
      3          6           0       -3.643799   -1.845300    1.003816
      4          7           0       -4.116134   -3.065523    0.542660
      5          6           0       -5.419052   -2.924424    0.555752
      6          1           0       -6.129128   -3.694359    0.252556
      7          7           0       -2.220518   -0.093400    1.687986
      8          6           0       -3.330125    0.616979    1.915412
      9          1           0       -3.167272    1.626563    2.290202
     10          7           0       -4.604712    0.269106    1.750156
     11          6           0       -4.693340   -0.988567    1.286648
     12          6           0       -2.343250   -1.355451    1.221873
     13          7           0       -1.236783   -2.066140    0.994237
     14          1           0       -1.280206   -3.004356    0.649145
     15          1           0       -0.327230   -1.685211    1.160796
     16          1           0       -7.721192   -1.778211    1.776935
     17          1           0       -7.205991   -0.258223    1.479810
     18          1           0       -7.676213   -1.216043    0.245473
     19          7           0       -3.791758    2.486600   -1.375005
     20          6           0       -2.431797    2.298318   -1.319171
     21          6           0       -4.488700    3.761268   -1.110078
     22          7           0        0.758351    3.554417   -0.765186
     23          1           0        1.697979    3.213616   -0.779095
     24          1           0        0.629009    4.519208   -0.534570
     25          7           0       -1.511117    3.238577   -1.015340
     26          6           0       -0.282129    2.754388   -1.043118
     27          7           0        0.023942    1.449531   -1.345106
     28          1           0        0.992088    1.167311   -1.342276
     29          6           0       -0.907128    0.464984   -1.660752
     30          8           0       -0.525651   -0.683500   -1.918081
     31          6           0       -2.231900    0.970129   -1.634985
     32          7           0       -3.442014    0.337297   -1.884087
     33          6           0       -4.336675    1.273444   -1.718439
     34          1           0       -5.411793    1.132487   -1.834793
     35          1           0       -5.119243    3.645236   -0.343428
     36          1           0       -3.816807    4.465312   -0.883895
     37          1           0       -4.999915    4.038744   -1.922772
     38          1           0        5.925451    0.243204   -0.529446
     39          1           0        6.028568    0.390954   -2.282212
     40          1           0        4.830906    1.327682   -1.388068
     41          1           0        4.242060   -4.057702   -1.876652
     42          6           0        3.903942   -3.023592   -1.809375
     43          8           0        1.602919   -3.570826   -1.990875
     44          6           0        2.502537   -2.739945   -1.867907
     45          1           0        1.202212   -1.160616   -1.811289
     46          7           0        2.182926   -1.400455   -1.773811
     47          8           0        2.675328    0.806020   -1.558853
     48          6           0        3.054440   -0.349530   -1.633952
     49          1           0        5.854237   -2.182343   -1.623724
     50          6           0        4.778377   -2.019865   -1.673326
     51          6           0        5.357158    0.385959   -1.436491
     52          7           0        4.388414   -0.703601   -1.585320
     53          1           0        4.680674    3.404035    3.368378
     54          1           0        3.426210    3.606567    2.344961
     55          1           0        4.957023    3.673001    1.782595
     56          1           0        2.261967   -3.194375    0.985891
     57          1           0        3.904061   -2.880114    1.324796
     58          7           0        2.971998   -2.530920    1.222157
     59          6           0        2.689539   -1.237786    1.392987
     60          6           0        3.205067    1.035783    1.869288
     61          7           0        1.944322    1.476412    1.725070
     62          1           0        0.084715    0.740617    1.276654
     63          6           0        1.130867    0.469706    1.412438
     64          7           0        1.411851   -0.826133    1.240892
     65          1           0        6.380360    1.211891    2.451234
     66          6           0        5.364730    0.889567    2.219858
     67          7           0        5.018092   -0.345137    1.949607
     68          6           0        3.651256   -0.266426    1.725385
     69          6           0        4.347696    3.231499    2.441364
     70          7           0        4.317424    1.777778    2.188858
 ---------------------------------------------------------------------

 SCF Done:  E(RwB97XD) =  -2048.75168253     A.U. after   15 cycles

 The electronic state is 1-A.
 Alpha  occ. eigenvalues --  -19.25822 -19.22149 -19.20565 -14.52356 -14.52343
 Alpha  occ. eigenvalues --  -14.48649 -14.48519 -14.47935 -14.47760 -14.46854
 Alpha  occ. eigenvalues --  -14.46515 -14.45421 -14.44065 -14.44046 -14.42097
 Alpha  occ. eigenvalues --  -14.41933 -14.41092 -14.40804 -14.40781 -14.40104
 Alpha  occ. eigenvalues --  -10.45408 -10.41126 -10.40209 -10.39715 -10.38158
 Alpha  occ. eigenvalues --  -10.37920 -10.37732 -10.37013 -10.35519 -10.35244
 Alpha  occ. eigenvalues --  -10.34882 -10.34214 -10.33900 -10.33793 -10.33244
 Alpha  occ. eigenvalues --  -10.33103 -10.32956 -10.32499 -10.31091 -10.30894
 Alpha  occ. eigenvalues --  -10.30754 -10.28250 -10.27988  -1.19383  -1.15063
 Alpha  occ. eigenvalues --   -1.13143  -1.13118  -1.11070  -1.10485  -1.09245
 Alpha  occ. eigenvalues --   -1.09053  -1.08468  -1.04846  -1.04590  -1.02444
 Alpha  occ. eigenvalues --   -1.00872  -1.00264  -0.99618  -0.98465  -0.96790
 Alpha  occ. eigenvalues --   -0.96524  -0.96479  -0.92518  -0.91003  -0.87481
 Alpha  occ. eigenvalues --   -0.85820  -0.83991  -0.83730  -0.83457  -0.82375
 Alpha  occ. eigenvalues --   -0.82138  -0.78813  -0.76857  -0.74660  -0.74489
 Alpha  occ. eigenvalues --   -0.73554  -0.73301  -0.72710  -0.70872  -0.70237
 Alpha  occ. eigenvalues --   -0.67275  -0.66622  -0.66458  -0.66113  -0.64400
 Alpha  occ. eigenvalues --   -0.64085  -0.63671  -0.62604  -0.62540  -0.61645
 Alpha  occ. eigenvalues --   -0.60478  -0.60291  -0.60215  -0.59411  -0.59296
 Alpha  occ. eigenvalues --   -0.59065  -0.58240  -0.56593  -0.56395  -0.56168
 Alpha  occ. eigenvalues --   -0.55918  -0.55376  -0.55118  -0.54384  -0.54210
 Alpha  occ. eigenvalues --   -0.53740  -0.53572  -0.53380  -0.53170  -0.52875
 Alpha  occ. eigenvalues --   -0.52619  -0.52303  -0.51630  -0.50581  -0.50104
 Alpha  occ. eigenvalues --   -0.50087  -0.49687  -0.49398  -0.48808  -0.48763
 Alpha  occ. eigenvalues --   -0.48639  -0.48508  -0.48263  -0.47524  -0.47322
 Alpha  occ. eigenvalues --   -0.46774  -0.45672  -0.44780  -0.44669  -0.43774
 Alpha  occ. eigenvalues --   -0.40923  -0.40593  -0.39391  -0.37589  -0.37407
 Alpha  occ. eigenvalues --   -0.37208  -0.37141  -0.36961  -0.36050  -0.34600
 Alpha  occ. eigenvalues --   -0.34199  -0.33855  -0.33293  -0.33280  -0.33157
 Alpha  occ. eigenvalues --   -0.32613  -0.32376  -0.32158  -0.31818  -0.30733
 Alpha  occ. eigenvalues --   -0.30302  -0.29599  -0.25655  -0.25134
 Alpha virt. eigenvalues --    0.03025   0.04114   0.07288   0.08051   0.08511
 Alpha virt. eigenvalues --    0.09344   0.09880   0.10596   0.11249   0.11913
 Alpha virt. eigenvalues --    0.12801   0.14447   0.14527   0.14684   0.15111

 Mulliken charges:
               1
     1  N   -0.313217
     2  C    0.180560
     3  C    0.059420
     4  N   -0.258850
     5  C    0.135981
     6  H    0.025658
     7  N   -0.293302
     8  C    0.134744
     9  H    0.010123
    10  N   -0.291493
    11  C    0.245962
    12  C    0.107387
    13  N   -0.052106
    14  H    0.111804
    15  H    0.084985
    16  H    0.025265
    17  H    0.031268
    18  H    0.024926
    19  N   -0.307503
    20  C    0.250841
    21  C    0.180407
    22  N   -0.112274
    23  H    0.112671
    24  H    0.115438
    25  N   -0.308607
    26  C    0.235381
    27  N   -0.146862
    28  H    0.124249
    29  C    0.182253
    30  O   -0.323217
    31  C   -0.008837
    32  N   -0.225442
    33  C    0.132153
    34  H    0.020227
    35  H    0.030791
    36  H    0.027991
    37  H    0.023135
    38  H    0.061981
    39  H    0.058858
    40  H    0.070223
    41  H    0.026770
    42  C   -0.111645
    43  O   -0.268310
    44  C    0.158098
    45  H    0.132826
    46  N   -0.114929
    47  O   -0.340312
    48  C    0.334146
    49  H    0.047922
    50  C    0.169684
    51  C    0.036737
    52  N   -0.279378
    53  H    0.034661
    54  H    0.039815
    55  H    0.026430
    56  H    0.128512
    57  H    0.115963
    58  N   -0.054647
    59  C    0.079891
    60  C    0.252152
    61  N   -0.274034
    62  H    0.041061
    63  C    0.157028
    64  N   -0.300865
    65  H    0.036213
    66  C    0.132997
    67  N   -0.264382
    68  C    0.024267
    69  C    0.179771
    70  N   -0.309415
 Sum of Mulliken charges =  -0.00000

 Dipole moment (field-independent basis, Debye):
    X=              7.7323    Y=              6.4343    Z=              2.2055  Tot=             10.2982
 Quadrupole moment (field-independent basis, Debye-Ang):
   XX=           -151.1127   YY=           -221.1145   ZZ=           -254.5088
   XY=              2.6801   XZ=              1.0916   YZ=             -6.2988

 Normal termination of Gaussian 16 at Tue Jan 23 08:58:46 2018.
