 Gaussian 16, Revision A.03,
 Gaussian 16:  EM64L-G16RevA.03 25-Dec-2016

 ---------------------------------------
 #p wb97xd/cc-pvdz sp scf=(maxcycles=20)
 ---------------------------------------

 ------------------
 Base pair stacking
 ------------------
 Symbolic Z-matrix:
 Charge =  0 Multiplicity = 1

                         Standard orientation:
 ---------------------------------------------------------------------
 Center     Atomic      Atomic             Coordinates (Angstroms)
 Number     Number       Type             X           Y           Z
 ---------------------------------------------------------------------
      1          7           0       -5.547420   -1.902656    1.106161
      2          6           0       -6.928535   -1.478364    1.407010
      3          6           0       -3.354126   -1.994468    0.970660
      4          7           0       -3.830626   -3.125256    0.323347
      5          6           0       -5.132925   -3.024677    0.430886
      6          1           0       -5.845592   -3.747339    0.032367
      7          7           0       -1.924958   -0.354432    1.882069
      8          6           0       -3.031999    0.273084    2.292257
      9          1           0       -2.865675    1.203593    2.833317
     10          7           0       -4.307663   -0.074629    2.135162
     11          6           0       -4.400622   -1.231258    1.458400
     12          6           0       -2.052019   -1.515829    1.203769
     13          7           0       -0.948111   -2.143708    0.793490
     14          1           0       -0.994765   -3.006032    0.288082
     15          1           0       -0.037330   -1.773749    0.977221
     16          1           0       -7.381107   -2.178823    1.959018
     17          1           0       -6.910505   -0.616611    1.913139
     18          1           0       -7.433774   -1.351146    0.553462
     19          7           0       -4.094418    2.603074   -1.139335
     20          6           0       -2.731396    2.430856   -1.162916
     21          6           0       -4.790005    3.864601   -0.814668
     22          7           0        0.470175    3.717561   -0.767823
     23          1           0        1.411394    3.388734   -0.840020
     24          1           0        0.342891    4.676873   -0.514371
     25          7           0       -1.805977    3.377541   -0.895619
     26          6           0       -0.575004    2.909170   -1.000245
     27          7           0       -0.271377    1.613198   -1.340504
     28          1           0        0.698580    1.343022   -1.396610
     29          6           0       -1.207315    0.622289   -1.619757
     30          8           0       -0.827706   -0.517118   -1.917061
     31          6           0       -2.534285    1.110445   -1.511427
     32          7           0       -3.749115    0.466659   -1.702781
     33          6           0       -4.643775    1.388851   -1.471758
     34          1           0       -5.722038    1.236406   -1.529991
     35          1           0       -5.375064    3.728561   -0.015911
     36          1           0       -4.114612    4.573261   -0.614857
     37          1           0       -5.349275    4.148591   -1.592724
     38          1           0        5.680162    0.467529   -0.876942
     39          1           0        5.682840    0.644403   -2.630045
     40          1           0        4.526636    1.551830   -1.654787
     41          1           0        3.973357   -3.832011   -2.198816
     42          6           0        3.627659   -2.803383   -2.095567
     43          8           0        1.326533   -3.376240   -2.156885
     44          6           0        2.221999   -2.536289   -2.070771
     45          1           0        0.908804   -0.974360   -1.915193
     46          7           0        1.892771   -1.202544   -1.936707
     47          8           0        2.371031    1.006182   -1.713140
     48          6           0        2.758613   -0.143225   -1.828510
     49          1           0        5.575480   -1.941009   -2.005581
     50          6           0        4.496729   -1.791146   -1.992112
     51          6           0        5.060161    0.617612   -1.748225
     52          7           0        4.097198   -0.481397   -1.860586
     53          1           0        4.998742    2.975288    3.794571
     54          1           0        3.684361    3.322732    2.892482
     55          1           0        5.179054    3.530661    2.270610
     56          1           0        2.563670   -3.155559    0.396248
     57          1           0        4.216718   -2.861793    0.698315
     58          7           0        3.274320   -2.525670    0.709878
     59          6           0        2.979464   -1.292110    1.125294
     60          6           0        3.481476    0.873145    1.974635
     61          7           0        2.207010    1.297567    1.979283
     62          1           0        0.337955    0.602788    1.505412
     63          6           0        1.394758    0.340880    1.534419
     64          7           0        1.688141   -0.895242    1.117895
     65          1           0        6.681307    1.029834    2.409018
     66          6           0        5.659894    0.726179    2.177799
     67          7           0        5.320069   -0.449472    1.708709
     68          6           0        3.941456   -0.369639    1.575331
     69          6           0        4.616299    2.961993    2.870691
     70          7           0        4.597109    1.576467    2.362807
 ---------------------------------------------------------------------

 SCF Done:  E(RwB97XD) =  -2048.74443856     A.U. after   15 cycles

 The electronic state is 1-A.
 Alpha  occ. eigenvalues --  -19.25959 -19.22542 -19.20708 -14.52541 -14.52260
 Alpha  occ. eigenvalues --  -14.48865 -14.48198 -14.47947 -14.47899 -14.47033
 Alpha  occ. eigenvalues --  -14.46778 -14.45382 -14.44032 -14.43990 -14.42115
 Alpha  occ. eigenvalues --  -14.41764 -14.41002 -14.40744 -14.40511 -14.39877
 Alpha  occ. eigenvalues --  -10.45551 -10.41348 -10.40489 -10.39693 -10.38324
 Alpha  occ. eigenvalues --  -10.37863 -10.37785 -10.36955 -10.35486 -10.34968
 Alpha  occ. eigenvalues --  -10.34956 -10.34432 -10.33726 -10.33477 -10.33445
 Alpha  occ. eigenvalues --  -10.32814 -10.32696 -10.32478 -10.31248 -10.30969
 Alpha  occ. eigenvalues --  -10.30646 -10.28201 -10.27953  -1.19519  -1.15002
 Alpha  occ. eigenvalues --   -1.13483  -1.13297  -1.10752  -1.10677  -1.09448
 Alpha  occ. eigenvalues --   -1.09044  -1.08666  -1.04632  -1.04555  -1.02649
 Alpha  occ. eigenvalues --   -1.00826  -0.99961  -0.99849  -0.98646  -0.96685
 Alpha  occ. eigenvalues --   -0.96659  -0.96344  -0.92247  -0.91191  -0.87417
 Alpha  occ. eigenvalues --   -0.85716  -0.84204  -0.83590  -0.83442  -0.82580
 Alpha  occ. eigenvalues --   -0.81858  -0.79016  -0.76836  -0.74732  -0.74586
 Alpha  occ. eigenvalues --   -0.73757  -0.73496  -0.72422  -0.70589  -0.70219
 Alpha  occ. eigenvalues --   -0.67494  -0.66751  -0.66514  -0.65815  -0.64628
 Alpha  occ. eigenvalues --   -0.64108  -0.63822  -0.62762  -0.62242  -0.61864
 Alpha  occ. eigenvalues --   -0.60490  -0.60245  -0.60068  -0.59550  -0.59197
 Alpha  occ. eigenvalues --   -0.59132  -0.58474  -0.56693  -0.56149  -0.56083
 Alpha  occ. eigenvalues --   -0.55932  -0.55176  -0.54921  -0.54498  -0.54134
 Alpha  occ. eigenvalues --   -0.53775  -0.53635  -0.53495  -0.53303  -0.53084
 Alpha  occ. eigenvalues --   -0.52598  -0.52447  -0.51359  -0.50339  -0.50279
 Alpha  occ. eigenvalues --   -0.49883  -0.49595  -0.49572  -0.49051  -0.48929
 Alpha  occ. eigenvalues --   -0.48650  -0.48492  -0.48340  -0.47747  -0.47487
 Alpha  occ. eigenvalues --   -0.46506  -0.45841  -0.45115  -0.44423  -0.43621
 Alpha  occ. eigenvalues --   -0.40634  -0.40518  -0.39522  -0.37572  -0.37397
 Alpha  occ. eigenvalues --   -0.37366  -0.37335  -0.36661  -0.36202  -0.34541
 Alpha  occ. eigenvalues --   -0.34210  -0.33969  -0.33620  -0.33006  -0.32960
 Alpha  occ. eigenvalues --   -0.32765  -0.32646  -0.32435  -0.31990  -0.30442
 Alpha  occ. eigenvalues --   -0.30028  -0.29261  -0.25665  -0.25098
 Alpha virt. eigenvalues --    0.02791   0.04190   0.07331   0.08171   0.08387
 Alpha virt. eigenvalues --    0.09266   0.09691   0.10656   0.11494   0.12138
 Alpha virt. eigenvalues --    0.12982   0.14355   0.14733   0.14850   0.15002

 Mulliken charges:
               1
     1  N   -0.312691
     2  C    0.180801
     3  C    0.058690
     4  N   -0.257182
     5  C    0.137811
     6  H    0.024781
     7  N   -0.297951
     8  C    0.134149
     9  H    0.009369
    10  N   -0.292011
    11  C    0.247722
    12  C    0.103023
    13  N   -0.051040
    14  H    0.114401
    15  H    0.083344
    16  H    0.024421
    17  H    0.031261
    18  H    0.023888
    19  N   -0.310215
    20  C    0.253818
    21  C    0.180668
    22  N   -0.120934
    23  H    0.115301
    24  H    0.117620
    25  N   -0.311002
    26  C    0.245755
    27  N   -0.150332
    28  H    0.122010
    29  C    0.193609
    30  O   -0.322709
    31  C   -0.014592
    32  N   -0.224953
    33  C    0.131160
    34  H    0.020912
    35  H    0.030210
    36  H    0.029014
    37  H    0.023995
    38  H    0.062380
    39  H    0.059139
    40  H    0.072085
    41  H    0.025622
    42  C   -0.116395
    43  O   -0.267919
    44  C    0.150275
    45  H    0.131494
    46  N   -0.107909
    47  O   -0.341830
    48  C    0.333555
    49  H    0.047577
    50  C    0.169854
    51  C    0.037523
    52  N   -0.275709
    53  H    0.033932
    54  H    0.041708
    55  H    0.026855
    56  H    0.127255
    57  H    0.113819
    58  N   -0.045336
    59  C    0.077619
    60  C    0.249911
    61  N   -0.274993
    62  H    0.036886
    63  C    0.167211
    64  N   -0.306312
    65  H    0.036351
    66  C    0.135142
    67  N   -0.266626
    68  C    0.024417
    69  C    0.180497
    70  N   -0.310202
 Sum of Mulliken charges =  -0.00000

 Dipole moment (field-independent basis, Debye):
    X=              7.8617    Y=              6.7365    Z=              1.5779  Tot=             10.4727
 Quadrupole moment (field-independent basis, Debye-Ang):
   XX=           -153.1222   YY=           -220.3476   ZZ=           -252.9331
   XY=              1.4234   XZ=             -2.1338   YZ=             -2.5596

 Normal termination of Gaussian 16 at Tue Jan 23 01:23:21 2018.
