 Gaussian 16, Revision A.03,
 Gaussian 16:  EM64L-G16RevA.03 25-Dec-2016

 ---------------------------------------
 #p wb97xd/cc-pvdz sp scf=(maxcycles=20)
 ---------------------------------------

 ------------------
 Base pair stacking
 ------------------
 Symbolic Z-matrix:
 Charge =  0 Multiplicity = 1

                         Standard orientation:
 ---------------------------------------------------------------------
 Center     Atomic      Atomic             Coordinates (Angstroms)
 Number     Number       Type             X           Y           Z
 ---------------------------------------------------------------------
      1          7           0       -7.103901   -1.332540    0.193118
      2          6           0       -8.442494   -0.775737   -0.082826
      3          6           0       -4.957152   -1.541977    0.623131
      4          7           0       -5.465022   -2.830706    0.545909
      5          6           0       -6.738032   -2.652953    0.289935
      6          1           0       -7.462697   -3.457393    0.160801
      7          7           0       -3.497023    0.292490    0.879407
      8          6           0       -4.559627    1.072052    0.654169
      9          1           0       -4.363041    2.143146    0.673585
     10          7           0       -5.822683    0.728784    0.409719
     11          6           0       -5.955506   -0.607915    0.407822
     12          6           0       -3.663452   -1.048140    0.870915
     13          7           0       -2.603939   -1.827982    1.095534
     14          1           0       -2.680760   -2.825640    1.098559
     15          1           0       -1.697776   -1.441801    1.268356
     16          1           0       -9.080975   -1.071381    0.627897
     17          1           0       -8.393756    0.222606   -0.091435
     18          1           0       -8.763621   -1.099778   -0.972697
     19          7           0       -2.399908    2.256350   -1.620067
     20          6           0       -1.069265    2.045577   -1.349860
     21          6           0       -3.120676    3.529411   -1.418769
     22          7           0        1.996148    3.229985   -0.226411
     23          1           0        2.922472    2.875988   -0.100484
     24          1           0        1.838374    4.186339    0.020962
     25          7           0       -0.203632    2.958697   -0.859016
     26          6           0        1.009221    2.457679   -0.705400
     27          7           0        1.350316    1.161848   -1.008663
     28          1           0        2.302477    0.865260   -0.859043
     29          6           0        0.476023    0.205104   -1.514759
     30          8           0        0.885397   -0.937459   -1.754942
     31          6           0       -0.830812    0.728581   -1.685197
     32          7           0       -1.988453    0.124686   -2.156441
     33          6           0       -2.890606    1.066567   -2.099956
     34          1           0       -3.932989    0.946637   -2.397137
     35          1           0       -3.869751    3.391562   -0.771711
     36          1           0       -2.489546    4.213450   -1.055420
     37          1           0       -3.488863    3.847551   -2.291723
     38          1           0        7.027085   -0.165192    0.712251
     39          1           0        7.418565    0.052612   -0.991855
     40          1           0        6.097607    0.969807   -0.267148
     41          1           0        5.553895   -4.381628   -1.076036
     42          6           0        5.217660   -3.346191   -1.020934
     43          8           0        2.973584   -3.850986   -1.600967
     44          6           0        3.847340   -3.039401   -1.296516
     45          1           0        2.568195   -1.444410   -1.386501
     46          7           0        3.527393   -1.700248   -1.198856
     47          8           0        3.995443    0.487953   -0.811652
     48          6           0        4.372422   -0.669114   -0.872934
     49          1           0        7.117481   -2.542580   -0.481778
     50          6           0        6.065801   -2.362090   -0.700310
     51          6           0        6.617048    0.023064   -0.268818
     52          7           0        5.677293   -1.044839   -0.621204
     53          1           0        3.372369    3.938732    2.362201
     54          1           0        2.303251    3.799197    1.137613
     55          1           0        3.899274    3.610022    0.852981
     56          1           0        0.743358   -2.994403    2.069850
     57          1           0        2.340262   -2.631681    2.547786
     58          7           0        1.468157   -2.313331    2.174562
     59          6           0        1.281059   -1.037071    1.832037
     60          6           0        1.923813    1.237916    1.561825
     61          7           0        0.742103    1.637016    1.063120
     62          1           0       -1.091036    0.848753    0.595289
     63          6           0       -0.104305    0.611700    0.990814
     64          7           0        0.081192   -0.667291    1.333368
     65          1           0        4.983664    1.510479    2.569388
     66          6           0        3.987657    1.158984    2.298510
     67          7           0        3.574606   -0.078539    2.423388
     68          6           0        2.267496   -0.042319    1.959813
     69          6           0        3.163539    3.454829    1.512360
     70          7           0        3.039951    2.009386    1.783337
 ---------------------------------------------------------------------

 SCF Done:  E(RwB97XD) =  -2048.54157595     A.U. after   16 cycles

 The electronic state is 1-A.
 Alpha  occ. eigenvalues --  -19.25963 -19.21910 -19.20235 -14.52477 -14.52166
 Alpha  occ. eigenvalues --  -14.49636 -14.48413 -14.47875 -14.47431 -14.45857
 Alpha  occ. eigenvalues --  -14.45342 -14.44940 -14.43570 -14.43128 -14.42906
 Alpha  occ. eigenvalues --  -14.42328 -14.41944 -14.41110 -14.41027 -14.40495
 Alpha  occ. eigenvalues --  -10.45567 -10.41553 -10.40042 -10.39187 -10.37806
 Alpha  occ. eigenvalues --  -10.37759 -10.37552 -10.36437 -10.36374 -10.35559
 Alpha  occ. eigenvalues --  -10.34978 -10.34555 -10.34325 -10.34119 -10.34115
 Alpha  occ. eigenvalues --  -10.33012 -10.32512 -10.32082 -10.31621 -10.31063
 Alpha  occ. eigenvalues --  -10.30561 -10.29519 -10.27796  -1.19525  -1.15709
 Alpha  occ. eigenvalues --   -1.13292  -1.12954  -1.12256  -1.10369  -1.09588
 Alpha  occ. eigenvalues --   -1.09361  -1.08673  -1.05958  -1.04268  -1.03150
 Alpha  occ. eigenvalues --   -1.02480  -1.01399  -0.99462  -0.98258  -0.97839
 Alpha  occ. eigenvalues --   -0.96536  -0.96157  -0.93615  -0.91052  -0.88162
 Alpha  occ. eigenvalues --   -0.86525  -0.84835  -0.83829  -0.83604  -0.83146
 Alpha  occ. eigenvalues --   -0.82314  -0.78885  -0.76885  -0.75138  -0.74691
 Alpha  occ. eigenvalues --   -0.73933  -0.73786  -0.73370  -0.72057  -0.70123
 Alpha  occ. eigenvalues --   -0.68541  -0.67222  -0.67048  -0.66519  -0.64998
 Alpha  occ. eigenvalues --   -0.64416  -0.63865  -0.63660  -0.63171  -0.62804
 Alpha  occ. eigenvalues --   -0.61242  -0.61114  -0.60377  -0.59927  -0.59503
 Alpha  occ. eigenvalues --   -0.59364  -0.58969  -0.57480  -0.57151  -0.56874
 Alpha  occ. eigenvalues --   -0.56340  -0.55691  -0.55619  -0.54409  -0.54321
 Alpha  occ. eigenvalues --   -0.53756  -0.53418  -0.52925  -0.52743  -0.52657
 Alpha  occ. eigenvalues --   -0.52511  -0.52347  -0.51733  -0.51606  -0.50987
 Alpha  occ. eigenvalues --   -0.49997  -0.49913  -0.49624  -0.49412  -0.48743
 Alpha  occ. eigenvalues --   -0.48460  -0.48076  -0.48039  -0.47737  -0.47531
 Alpha  occ. eigenvalues --   -0.47165  -0.45911  -0.45425  -0.44002  -0.42486
 Alpha  occ. eigenvalues --   -0.42155  -0.39554  -0.39147  -0.38136  -0.37455
 Alpha  occ. eigenvalues --   -0.37008  -0.36909  -0.36288  -0.35857  -0.35307
 Alpha  occ. eigenvalues --   -0.34452  -0.34362  -0.33085  -0.32718  -0.32584
 Alpha  occ. eigenvalues --   -0.32050  -0.31969  -0.31930  -0.31551  -0.31498
 Alpha  occ. eigenvalues --   -0.31282  -0.28304  -0.26755  -0.24366
 Alpha virt. eigenvalues --    0.03168   0.03688   0.06925   0.07197   0.08198
 Alpha virt. eigenvalues --    0.09249   0.09689   0.09960   0.11206   0.12596
 Alpha virt. eigenvalues --    0.12702   0.13472   0.13959   0.14187   0.15168

 Mulliken charges:
               1
     1  N   -0.312412
     2  C    0.180655
     3  C    0.036101
     4  N   -0.259510
     5  C    0.135602
     6  H    0.029660
     7  N   -0.279543
     8  C    0.110927
     9  H    0.019697
    10  N   -0.283871
    11  C    0.243281
    12  C    0.118727
    13  N   -0.055338
    14  H    0.107175
    15  H    0.088108
    16  H    0.027164
    17  H    0.035319
    18  H    0.027900
    19  N   -0.300773
    20  C    0.205624
    21  C    0.187472
    22  N   -0.060791
    23  H    0.108480
    24  H    0.097944
    25  N   -0.255973
    26  C    0.164147
    27  N   -0.101036
    28  H    0.123644
    29  C    0.129804
    30  O   -0.321491
    31  C    0.003344
    32  N   -0.218497
    33  C    0.125004
    34  H    0.029338
    35  H    0.014049
    36  H    0.026929
    37  H    0.024345
    38  H    0.060802
    39  H    0.061938
    40  H    0.068535
    41  H    0.031749
    42  C   -0.111040
    43  O   -0.264637
    44  C    0.180372
    45  H    0.134465
    46  N   -0.138420
    47  O   -0.351553
    48  C    0.366681
    49  H    0.047381
    50  C    0.173131
    51  C    0.040485
    52  N   -0.295321
    53  H    0.009428
    54  H    0.026855
    55  H   -0.008213
    56  H    0.120631
    57  H    0.118132
    58  N   -0.067867
    59  C    0.125747
    60  C    0.229905
    61  N   -0.262411
    62  H    0.082667
    63  C    0.151924
    64  N   -0.299437
    65  H    0.029540
    66  C    0.136990
    67  N   -0.261745
    68  C    0.021253
    69  C    0.217275
    70  N   -0.326448
 Sum of Mulliken charges =  -0.00000

 Dipole moment (field-independent basis, Debye):
    X=              6.3293    Y=              5.3133    Z=              4.2026  Tot=              9.2711
 Quadrupole moment (field-independent basis, Debye-Ang):
   XX=           -142.0382   YY=           -227.1145   ZZ=           -255.3728
   XY=              9.1872   XZ=             13.9887   YZ=            -12.9102

 Normal termination of Gaussian 16 at Tue Jan 23 08:01:41 2018.
