 Gaussian 16, Revision A.03,
 Gaussian 16:  EM64L-G16RevA.03 25-Dec-2016

 ---------------------------------------
 #p wb97xd/cc-pvdz sp scf=(maxcycles=20)
 ---------------------------------------

 ------------------
 Base pair stacking
 ------------------
 Symbolic Z-matrix:
 Charge =  0 Multiplicity = 1

                         Standard orientation:
 ---------------------------------------------------------------------
 Center     Atomic      Atomic             Coordinates (Angstroms)
 Number     Number       Type             X           Y           Z
 ---------------------------------------------------------------------
      1          7           0       -7.148458   -1.333181    0.165114
      2          6           0       -8.497765   -0.767031   -0.026858
      3          6           0       -4.993262   -1.560873    0.540087
      4          7           0       -5.486032   -2.838940    0.319967
      5          6           0       -6.764738   -2.650604    0.102866
      6          1           0       -7.481076   -3.444740   -0.109646
      7          7           0       -3.552646    0.251807    0.989259
      8          6           0       -4.628060    1.037188    0.870013
      9          1           0       -4.444628    2.101436    1.011415
     10          7           0       -5.890128    0.706872    0.603584
     11          6           0       -6.006224   -0.622295    0.447859
     12          6           0       -3.702393   -1.080980    0.826953
     13          7           0       -2.630078   -1.866612    0.945597
     14          1           0       -2.694359   -2.858839    0.833477
     15          1           0       -1.726409   -1.490383    1.150478
     16          1           0       -9.122153   -1.152231    0.652800
     17          1           0       -8.461649    0.226135    0.080153
     18          1           0       -8.827641   -0.989960   -0.944179
     19          7           0       -2.328295    2.340786   -1.672877
     20          6           0       -0.996616    2.121239   -1.415041
     21          6           0       -3.026286    3.632793   -1.517210
     22          7           0        2.104816    3.305887   -0.395494
     23          1           0        3.027686    2.943249   -0.268813
     24          1           0        1.965671    4.274697   -0.188715
     25          7           0       -0.109155    3.041518   -0.979668
     26          6           0        1.098416    2.528716   -0.823372
     27          7           0        1.414774    1.215424   -1.073745
     28          1           0        2.364743    0.910777   -0.926385
     29          6           0        0.517746    0.251032   -1.522259
     30          8           0        0.905734   -0.907434   -1.717576
     31          6           0       -0.783731    0.786998   -1.694825
     32          7           0       -1.958131    0.181096   -2.119769
     33          6           0       -2.844893    1.138714   -2.090962
     34          1           0       -3.893835    1.022152   -2.365586
     35          1           0       -3.766342    3.535772   -0.852591
     36          1           0       -2.378879    4.322272   -1.195113
     37          1           0       -3.404297    3.917502   -2.397461
     38          1           0        7.099090   -0.123252    0.612924
     39          1           0        7.465026    0.012190   -1.105334
     40          1           0        6.170454    0.981549   -0.401194
     41          1           0        5.532543   -4.391349   -0.960568
     42          6           0        5.212930   -3.349287   -0.946498
     43          8           0        2.952044   -3.843861   -1.466973
     44          6           0        3.842943   -3.033452   -1.213361
     45          1           0        2.586663   -1.424018   -1.354044
     46          7           0        3.544924   -1.686380   -1.170647
     47          8           0        4.052381    0.509221   -0.889508
     48          6           0        4.410780   -0.655245   -0.904965
     49          1           0        7.133479   -2.552606   -0.474675
     50          6           0        6.081105   -2.365420   -0.684045
     51          6           0        6.675458    0.027578   -0.368841
     52          7           0        5.713900   -1.039970   -0.657776
     53          1           0        3.291313    3.797581    2.797576
     54          1           0        2.206441    3.786226    1.578966
     55          1           0        3.800411    3.653932    1.253679
     56          1           0        0.745291   -3.091015    1.734262
     57          1           0        2.344275   -2.763784    2.230518
     58          7           0        1.462941   -2.416567    1.908167
     59          6           0        1.254963   -1.111919    1.718940
     60          6           0        1.865230    1.187901    1.707068
     61          7           0        0.671541    1.625535    1.273497
     62          1           0       -1.158168    0.871195    0.740796
     63          6           0       -0.162931    0.603727    1.093264
     64          7           0        0.043484   -0.703657    1.282237
     65          1           0        4.935684    1.384673    2.699944
     66          6           0        3.940342    1.053019    2.402874
     67          7           0        3.544650   -0.196333    2.388189
     68          6           0        2.230626   -0.124943    1.948890
     69          6           0        3.076284    3.412805    1.899964
     70          7           0        2.974727    1.944071    2.002441
 ---------------------------------------------------------------------

 SCF Done:  E(RwB97XD) =  -2048.69202931     A.U. after   15 cycles

 The electronic state is 1-A.
 Alpha  occ. eigenvalues --  -19.25942 -19.21972 -19.20504 -14.52461 -14.51737
 Alpha  occ. eigenvalues --  -14.49490 -14.48655 -14.47888 -14.46891 -14.46783
 Alpha  occ. eigenvalues --  -14.46269 -14.44555 -14.43001 -14.42858 -14.42486
 Alpha  occ. eigenvalues --  -14.42176 -14.41729 -14.41694 -14.40915 -14.40690
 Alpha  occ. eigenvalues --  -10.45553 -10.41321 -10.40096 -10.38699 -10.38118
 Alpha  occ. eigenvalues --  -10.37771 -10.37175 -10.36160 -10.35993 -10.35518
 Alpha  occ. eigenvalues --  -10.34828 -10.34287 -10.34280 -10.34154 -10.33916
 Alpha  occ. eigenvalues --  -10.33388 -10.33226 -10.31587 -10.31516 -10.31069
 Alpha  occ. eigenvalues --  -10.30702 -10.29340 -10.28096  -1.19487  -1.14516
 Alpha  occ. eigenvalues --   -1.13199  -1.13003  -1.12102  -1.10524  -1.09350
 Alpha  occ. eigenvalues --   -1.08855  -1.08021  -1.05753  -1.03598  -1.02513
 Alpha  occ. eigenvalues --   -1.01175  -1.01025  -0.99561  -0.98413  -0.97673
 Alpha  occ. eigenvalues --   -0.96487  -0.95658  -0.93398  -0.91052  -0.86969
 Alpha  occ. eigenvalues --   -0.85504  -0.84667  -0.84028  -0.83793  -0.82996
 Alpha  occ. eigenvalues --   -0.82436  -0.78885  -0.76056  -0.74720  -0.74030
 Alpha  occ. eigenvalues --   -0.73689  -0.73625  -0.73378  -0.71839  -0.69482
 Alpha  occ. eigenvalues --   -0.67755  -0.67023  -0.66592  -0.65879  -0.64488
 Alpha  occ. eigenvalues --   -0.63829  -0.63587  -0.63333  -0.62840  -0.62282
 Alpha  occ. eigenvalues --   -0.60896  -0.60177  -0.59808  -0.59561  -0.59497
 Alpha  occ. eigenvalues --   -0.58708  -0.58514  -0.57224  -0.57032  -0.56875
 Alpha  occ. eigenvalues --   -0.56101  -0.55911  -0.55433  -0.54582  -0.54346
 Alpha  occ. eigenvalues --   -0.53660  -0.53445  -0.53093  -0.52796  -0.52608
 Alpha  occ. eigenvalues --   -0.52369  -0.52203  -0.51922  -0.51460  -0.50873
 Alpha  occ. eigenvalues --   -0.50079  -0.49781  -0.49453  -0.49088  -0.48752
 Alpha  occ. eigenvalues --   -0.48587  -0.48227  -0.47980  -0.47739  -0.47507
 Alpha  occ. eigenvalues --   -0.47348  -0.45767  -0.45356  -0.44013  -0.42630
 Alpha  occ. eigenvalues --   -0.41957  -0.39569  -0.39396  -0.37955  -0.37359
 Alpha  occ. eigenvalues --   -0.37137  -0.36530  -0.36467  -0.35874  -0.35016
 Alpha  occ. eigenvalues --   -0.34276  -0.34187  -0.33171  -0.33058  -0.32767
 Alpha  occ. eigenvalues --   -0.32481  -0.32041  -0.31940  -0.31774  -0.31650
 Alpha  occ. eigenvalues --   -0.31103  -0.28604  -0.26547  -0.25090
 Alpha virt. eigenvalues --    0.03150   0.04664   0.07139   0.07725   0.08321
 Alpha virt. eigenvalues --    0.09567   0.09645   0.10146   0.11126   0.12415
 Alpha virt. eigenvalues --    0.12722   0.13450   0.14309   0.14614   0.14774

 Mulliken charges:
               1
     1  N   -0.311675
     2  C    0.180716
     3  C    0.034327
     4  N   -0.258886
     5  C    0.134868
     6  H    0.029076
     7  N   -0.282165
     8  C    0.115826
     9  H    0.017587
    10  N   -0.286248
    11  C    0.241009
    12  C    0.118423
    13  N   -0.052923
    14  H    0.107459
    15  H    0.088401
    16  H    0.026999
    17  H    0.035290
    18  H    0.027167
    19  N   -0.303394
    20  C    0.218751
    21  C    0.184783
    22  N   -0.101865
    23  H    0.118770
    24  H    0.113203
    25  N   -0.267977
    26  C    0.186236
    27  N   -0.103076
    28  H    0.120777
    29  C    0.139941
    30  O   -0.320627
    31  C    0.000920
    32  N   -0.220025
    33  C    0.129281
    34  H    0.030309
    35  H    0.022293
    36  H    0.027450
    37  H    0.024413
    38  H    0.060243
    39  H    0.061418
    40  H    0.069636
    41  H    0.031445
    42  C   -0.111851
    43  O   -0.267001
    44  C    0.178151
    45  H    0.135062
    46  N   -0.137849
    47  O   -0.352259
    48  C    0.366479
    49  H    0.047555
    50  C    0.174995
    51  C    0.041129
    52  N   -0.295188
    53  H    0.025599
    54  H    0.040908
    55  H   -0.000594
    56  H    0.120966
    57  H    0.117100
    58  N   -0.064209
    59  C    0.121968
    60  C    0.221943
    61  N   -0.260032
    62  H    0.063668
    63  C    0.146707
    64  N   -0.299005
    65  H    0.027212
    66  C    0.131635
    67  N   -0.263166
    68  C    0.022986
    69  C    0.190652
    70  N   -0.311717
 Sum of Mulliken charges =  -0.00000

 Dipole moment (field-independent basis, Debye):
    X=              6.6959    Y=              5.6501    Z=              3.4031  Tot=              9.3989
 Quadrupole moment (field-independent basis, Debye-Ang):
   XX=           -141.5059   YY=           -224.8174   ZZ=           -253.8467
   XY=              9.6299   XZ=             15.1135   YZ=            -10.5887

 Normal termination of Gaussian 16 at Mon Jan 22 23:39:08 2018.
