 Gaussian 16, Revision A.03,
 Gaussian 16:  EM64L-G16RevA.03 25-Dec-2016

 ---------------------------------------
 #p wb97xd/cc-pvdz sp scf=(maxcycles=20)
 ---------------------------------------

 ------------------
 Base pair stacking
 ------------------
 Symbolic Z-matrix:
 Charge =  0 Multiplicity = 1

                         Standard orientation:
 ---------------------------------------------------------------------
 Center     Atomic      Atomic             Coordinates (Angstroms)
 Number     Number       Type             X           Y           Z
 ---------------------------------------------------------------------
      1          7           0       -5.827028   -1.651093    1.019517
      2          6           0       -7.209292   -1.141803    1.108773
      3          6           0       -3.633801   -1.810209    1.061545
      4          7           0       -4.106530   -3.060212    0.689040
      5          6           0       -5.408944   -2.914316    0.678634
      6          1           0       -6.119129   -3.702643    0.427360
      7          7           0       -2.210214   -0.016313    1.625691
      8          6           0       -3.319126    0.712767    1.788000
      9          1           0       -3.155864    1.747214    2.087208
     10          7           0       -4.593441    0.357536    1.636897
     11          6           0       -4.682611   -0.931214    1.268657
     12          6           0       -2.333475   -1.309510    1.254849
     13          7           0       -1.227700   -2.038910    1.092322
     14          1           0       -1.271531   -3.000328    0.818520
     15          1           0       -0.318277   -1.649438    1.238634
     16          1           0       -7.718111   -1.671865    1.787235
     17          1           0       -7.194076   -0.180282    1.381475
     18          1           0       -7.656250   -1.226932    0.218276
     19          7           0       -3.809387    2.416483   -1.389531
     20          6           0       -2.449544    2.231521   -1.321311
     21          6           0       -4.512433    3.687643   -1.123820
     22          7           0        0.731490    3.492773   -0.728015
     23          1           0        1.672140    3.154582   -0.734658
     24          1           0        0.597215    4.455786   -0.492863
     25          7           0       -1.534507    3.172366   -1.002646
     26          6           0       -0.303975    2.691655   -1.021134
     27          7           0        0.008654    1.389497   -1.327969
     28          1           0        0.977495    1.109858   -1.317217
     29          6           0       -0.916534    0.404388   -1.658820
     30          8           0       -0.529380   -0.741475   -1.919305
     31          6           0       -2.242890    0.905813   -1.643170
     32          7           0       -3.448719    0.271263   -1.908131
     33          6           0       -4.347552    1.203977   -1.745714
     34          1           0       -5.421061    1.060857   -1.873601
     35          1           0       -5.150230    3.565256   -0.364196
     36          1           0       -3.844747    4.392089   -0.886709
     37          1           0       -5.016311    3.968683   -1.939857
     38          1           0        5.905051    0.194062   -0.460986
     39          1           0        6.025168    0.352752   -2.211712
     40          1           0        4.816113    1.280801   -1.323864
     41          1           0        4.246936   -4.103073   -1.850909
     42          6           0        3.905324   -3.070303   -1.780734
     43          8           0        1.607726   -3.622593   -1.988422
     44          6           0        2.503799   -2.790062   -1.851488
     45          1           0        1.198646   -1.214601   -1.798222
     46          7           0        2.179589   -1.452024   -1.752445
     47          8           0        2.663786    0.754414   -1.519233
     48          6           0        3.046792   -0.399647   -1.597569
     49          1           0        5.851367   -2.224964   -1.570604
     50          6           0        4.775609   -2.065075   -1.629912
     51          6           0        5.345402    0.340807   -1.372753
     52          7           0        4.381180   -0.750419   -1.537812
     53          1           0        4.688366    3.575615    3.105529
     54          1           0        3.444559    3.704442    2.057471
     55          1           0        4.980938    3.723333    1.506784
     56          1           0        2.266477   -3.175836    1.203476
     57          1           0        3.906485   -2.842219    1.533878
     58          7           0        2.976828   -2.498746    1.396040
     59          6           0        2.697870   -1.195505    1.466130
     60          6           0        3.217816    1.105828    1.774760
     61          7           0        1.960261    1.538387    1.585334
     62          1           0        0.102139    0.776879    1.175374
     63          6           0        1.145862    0.513610    1.341483
     64          7           0        1.423341   -0.792380    1.270868
     65          1           0        6.388064    1.315082    2.372993
     66          6           0        5.373423    0.979494    2.156587
     67          7           0        5.024511   -0.270948    1.976767
     68          6           0        3.660202   -0.204952    1.733810
     69          6           0        4.363605    3.334736    2.190928
     70          7           0        4.329986    1.866206    2.048428
 ---------------------------------------------------------------------

 SCF Done:  E(RwB97XD) =  -2048.75219514     A.U. after   15 cycles

 The electronic state is 1-A.
 Alpha  occ. eigenvalues --  -19.25734 -19.21989 -19.20497 -14.52446 -14.52276
 Alpha  occ. eigenvalues --  -14.48605 -14.48554 -14.48077 -14.47681 -14.46751
 Alpha  occ. eigenvalues --  -14.46344 -14.45493 -14.44149 -14.44142 -14.42244
 Alpha  occ. eigenvalues --  -14.41843 -14.41189 -14.40920 -14.40700 -14.40202
 Alpha  occ. eigenvalues --  -10.45320 -10.41012 -10.40071 -10.39826 -10.38077
 Alpha  occ. eigenvalues --  -10.37997 -10.37663 -10.37108 -10.35594 -10.35359
 Alpha  occ. eigenvalues --  -10.34802 -10.34116 -10.34022 -10.33884 -10.33199
 Alpha  occ. eigenvalues --  -10.33168 -10.33051 -10.32583 -10.31006 -10.30962
 Alpha  occ. eigenvalues --  -10.30666 -10.28349 -10.27896  -1.19307  -1.15158
 Alpha  occ. eigenvalues --   -1.13044  -1.12985  -1.11160  -1.10401  -1.09162
 Alpha  occ. eigenvalues --   -1.09150  -1.08369  -1.04953  -1.04686  -1.02347
 Alpha  occ. eigenvalues --   -1.00969  -1.00384  -0.99487  -0.98382  -0.96886
 Alpha  occ. eigenvalues --   -0.96621  -0.96393  -0.92630  -0.90915  -0.87581
 Alpha  occ. eigenvalues --   -0.85928  -0.83901  -0.83814  -0.83386  -0.82287
 Alpha  occ. eigenvalues --   -0.82226  -0.78727  -0.76954  -0.74760  -0.74406
 Alpha  occ. eigenvalues --   -0.73451  -0.73207  -0.72812  -0.70974  -0.70338
 Alpha  occ. eigenvalues --   -0.67167  -0.66722  -0.66374  -0.66217  -0.64314
 Alpha  occ. eigenvalues --   -0.64186  -0.63590  -0.62652  -0.62536  -0.61535
 Alpha  occ. eigenvalues --   -0.60567  -0.60386  -0.60317  -0.59408  -0.59334
 Alpha  occ. eigenvalues --   -0.59033  -0.58111  -0.56636  -0.56456  -0.56186
 Alpha  occ. eigenvalues --   -0.55839  -0.55493  -0.55232  -0.54364  -0.54142
 Alpha  occ. eigenvalues --   -0.53846  -0.53488  -0.53412  -0.53158  -0.52784
 Alpha  occ. eigenvalues --   -0.52666  -0.52229  -0.51716  -0.50672  -0.50168
 Alpha  occ. eigenvalues --   -0.50014  -0.49757  -0.49311  -0.48862  -0.48695
 Alpha  occ. eigenvalues --   -0.48636  -0.48470  -0.48173  -0.47426  -0.47239
 Alpha  occ. eigenvalues --   -0.46860  -0.45637  -0.44824  -0.44708  -0.43700
 Alpha  occ. eigenvalues --   -0.41015  -0.40707  -0.39324  -0.37668  -0.37526
 Alpha  occ. eigenvalues --   -0.37151  -0.37110  -0.36992  -0.35984  -0.34641
 Alpha  occ. eigenvalues --   -0.34307  -0.33752  -0.33384  -0.33201  -0.33141
 Alpha  occ. eigenvalues --   -0.32545  -0.32309  -0.32068  -0.31748  -0.30824
 Alpha  occ. eigenvalues --   -0.30408  -0.29685  -0.25724  -0.25052
 Alpha virt. eigenvalues --    0.03153   0.03987   0.07218   0.07923   0.08587
 Alpha virt. eigenvalues --    0.09398   0.09958   0.10478   0.11177   0.11826
 Alpha virt. eigenvalues --    0.12778   0.14329   0.14398   0.14753   0.15124

 Mulliken charges:
               1
     1  N   -0.313422
     2  C    0.180549
     3  C    0.059679
     4  N   -0.259471
     5  C    0.136367
     6  H    0.026034
     7  N   -0.292056
     8  C    0.135379
     9  H    0.010555
    10  N   -0.290566
    11  C    0.247403
    12  C    0.106994
    13  N   -0.053129
    14  H    0.111005
    15  H    0.084595
    16  H    0.025418
    17  H    0.030890
    18  H    0.025537
    19  N   -0.304427
    20  C    0.247116
    21  C    0.180367
    22  N   -0.107056
    23  H    0.112190
    24  H    0.114331
    25  N   -0.307092
    26  C    0.228496
    27  N   -0.146088
    28  H    0.125481
    29  C    0.179323
    30  O   -0.323241
    31  C   -0.006924
    32  N   -0.225284
    33  C    0.131768
    34  H    0.019214
    35  H    0.030483
    36  H    0.027571
    37  H    0.022802
    38  H    0.062583
    39  H    0.058710
    40  H    0.069592
    41  H    0.027093
    42  C   -0.111284
    43  O   -0.267692
    44  C    0.163089
    45  H    0.132437
    46  N   -0.117602
    47  O   -0.339564
    48  C    0.334435
    49  H    0.047512
    50  C    0.168748
    51  C    0.035790
    52  N   -0.279964
    53  H    0.035149
    54  H    0.038463
    55  H    0.026885
    56  H    0.127584
    57  H    0.116375
    58  N   -0.056796
    59  C    0.082825
    60  C    0.252107
    61  N   -0.275073
    62  H    0.043433
    63  C    0.154240
    64  N   -0.299958
    65  H    0.036551
    66  C    0.131358
    67  N   -0.263119
    68  C    0.023569
    69  C    0.179823
    70  N   -0.308093
 Sum of Mulliken charges =  -0.00000

 Dipole moment (field-independent basis, Debye):
    X=              7.6513    Y=              6.3636    Z=              2.4766  Tot=             10.2553
 Quadrupole moment (field-independent basis, Debye-Ang):
   XX=           -150.9817   YY=           -221.5782   ZZ=           -255.1758
   XY=              2.9311   XZ=              0.7067   YZ=             -7.8450

 Normal termination of Gaussian 16 at Mon Jan 22 18:01:06 2018.
