 Gaussian 16, Revision A.03,
 Gaussian 16:  EM64L-G16RevA.03 25-Dec-2016

 ---------------------------------------
 #p wb97xd/cc-pvdz sp scf=(maxcycles=20)
 ---------------------------------------

 ------------------
 Base pair stacking
 ------------------
 Symbolic Z-matrix:
 Charge =  0 Multiplicity = 1

                         Standard orientation:
 ---------------------------------------------------------------------
 Center     Atomic      Atomic             Coordinates (Angstroms)
 Number     Number       Type             X           Y           Z
 ---------------------------------------------------------------------
      1          7           0        4.268071   -1.749744   -1.898570
      2          6           0        5.647034   -1.285880   -2.146154
      3          6           0        2.087409   -1.821300   -1.621238
      4          7           0        2.542941   -3.120803   -1.452424
      5          6           0        3.838479   -3.025682   -1.626261
      6          1           0        4.535114   -3.862389   -1.566585
      7          7           0        0.693378    0.074695   -1.778909
      8          6           0        1.803260    0.774967   -2.034575
      9          1           0        1.652728    1.840885   -2.200162
     10          7           0        3.065222    0.358182   -2.116029
     11          6           0        3.139264   -0.965020   -1.896770
     12          6           0        0.801239   -1.254489   -1.562724
     13          7           0       -0.305516   -1.955226   -1.307353
     14          1           0       -0.272824   -2.941407   -1.141209
     15          1           0       -1.204593   -1.518585   -1.273429
     16          1           0        6.021089   -1.758885   -2.943986
     17          1           0        5.642769   -0.300793   -2.315574
     18          1           0        6.215566   -1.482549   -1.347351
     19          7           0        5.361672    2.088510    0.701188
     20          6           0        4.000168    1.963779    0.838302
     21          6           0        6.074216    3.334806    0.355187
     22          7           0        0.827723    3.375016    0.762603
     23          1           0       -0.115625    3.077375    0.906648
     24          1           0        0.969113    4.337129    0.527953
     25          7           0        3.091855    2.950868    0.681237
     26          6           0        1.857524    2.522989    0.878647
     27          7           0        1.535239    1.227941    1.204981
     28          1           0        0.564134    0.990430    1.337278
     29          6           0        2.453387    0.195910    1.371702
     30          8           0        2.057715   -0.938649    1.666592
     31          6           0        3.783717    0.640291    1.162831
     32          7           0        4.985148   -0.051946    1.228143
     33          6           0        5.891027    0.845288    0.947835
     34          1           0        6.963729    0.653061    0.907264
     35          1           0        6.582815    3.204831   -0.495252
     36          1           0        5.411572    4.073091    0.236381
     37          1           0        6.708715    3.572884    1.089712
     38          1           0       -4.473352    0.308927    1.227718
     39          1           0       -4.318537    0.427434    2.978900
     40          1           0       -3.216821    1.325423    1.934277
     41          1           0       -2.823867   -4.089678    2.266016
     42          6           0       -2.449477   -3.071031    2.163981
     43          8           0       -0.175050   -3.726400    2.007251
     44          6           0       -1.042029   -2.853003    2.024789
     45          1           0        0.311348   -1.334049    1.802345
     46          7           0       -0.675085   -1.527969    1.902682
     47          8           0       -1.086489    0.702460    1.788106
     48          6           0       -1.506129   -0.435767    1.902236
     49          1           0       -4.363625   -2.137976    2.270059
     50          6           0       -3.285119   -2.025888    2.167122
     51          6           0       -3.775451    0.408014    2.045754
     52          7           0       -2.848876   -0.727407    2.040682
     53          1           0       -6.147545    4.059944   -1.821358
     54          1           0       -4.757403    4.029170   -0.967748
     55          1           0       -6.192306    4.046434   -0.190030
     56          1           0       -3.833138   -2.942224   -0.997531
     57          1           0       -5.483910   -2.514021   -1.038732
     58          7           0       -4.527184   -2.222310   -1.010618
     59          6           0       -4.192829   -0.930408   -0.991445
     60          6           0       -4.629706    1.408574   -0.984877
     61          7           0       -3.336791    1.771021   -0.947122
     62          1           0       -1.481567    0.901018   -0.903871
     63          6           0       -2.550875    0.696274   -0.934342
     64          7           0       -2.883837   -0.598468   -0.953493
     65          1           0       -7.837924    1.799121   -1.068422
     66          6           0       -6.821716    1.404579   -1.044091
     67          7           0       -6.516964    0.129899   -1.045872
     68          6           0       -5.130168    0.118415   -1.008512
     69          6           0       -5.704405    3.710518   -0.995815
     70          7           0       -5.728135    2.234957   -1.008040
 ---------------------------------------------------------------------

 SCF Done:  E(RwB97XD) =  -2048.74875547     A.U. after   15 cycles

 The electronic state is 1-A.
 Alpha  occ. eigenvalues --  -19.25193 -19.21269 -19.20584 -14.52732 -14.51592
 Alpha  occ. eigenvalues --  -14.49098 -14.48990 -14.48228 -14.47099 -14.46745
 Alpha  occ. eigenvalues --  -14.46641 -14.45647 -14.45098 -14.44915 -14.43028
 Alpha  occ. eigenvalues --  -14.42050 -14.41409 -14.41106 -14.40882 -14.40670
 Alpha  occ. eigenvalues --  -10.44718 -10.41223 -10.40655 -10.39395 -10.38223
 Alpha  occ. eigenvalues --  -10.38222 -10.37655 -10.37220 -10.36392 -10.35786
 Alpha  occ. eigenvalues --  -10.34504 -10.34043 -10.33971 -10.33783 -10.33635
 Alpha  occ. eigenvalues --  -10.33203 -10.33179 -10.33177 -10.31206 -10.30506
 Alpha  occ. eigenvalues --  -10.30189 -10.28464 -10.28278  -1.18721  -1.15547
 Alpha  occ. eigenvalues --   -1.13221  -1.12297  -1.10916  -1.10795  -1.10020
 Alpha  occ. eigenvalues --   -1.08611  -1.08473  -1.05476  -1.05300  -1.01720
 Alpha  occ. eigenvalues --   -1.01286  -1.00779  -0.99715  -0.98620  -0.97537
 Alpha  occ. eigenvalues --   -0.96846  -0.96577  -0.93007  -0.90390  -0.88107
 Alpha  occ. eigenvalues --   -0.86192  -0.84337  -0.83650  -0.82846  -0.82657
 Alpha  occ. eigenvalues --   -0.81906  -0.78192  -0.77530  -0.75369  -0.74753
 Alpha  occ. eigenvalues --   -0.73636  -0.72936  -0.72643  -0.71113  -0.70887
 Alpha  occ. eigenvalues --   -0.67434  -0.67324  -0.66325  -0.65883  -0.64700
 Alpha  occ. eigenvalues --   -0.64376  -0.63398  -0.62803  -0.62600  -0.61839
 Alpha  occ. eigenvalues --   -0.61029  -0.60720  -0.60434  -0.59828  -0.59015
 Alpha  occ. eigenvalues --   -0.58882  -0.58341  -0.56992  -0.56581  -0.55840
 Alpha  occ. eigenvalues --   -0.55663  -0.55619  -0.55521  -0.54953  -0.54124
 Alpha  occ. eigenvalues --   -0.53969  -0.53693  -0.53259  -0.53188  -0.52984
 Alpha  occ. eigenvalues --   -0.51970  -0.51587  -0.51435  -0.50480  -0.50363
 Alpha  occ. eigenvalues --   -0.50189  -0.49989  -0.49629  -0.49078  -0.48871
 Alpha  occ. eigenvalues --   -0.48789  -0.48063  -0.47992  -0.47613  -0.47078
 Alpha  occ. eigenvalues --   -0.46825  -0.45703  -0.45494  -0.44904  -0.43132
 Alpha  occ. eigenvalues --   -0.41387  -0.41084  -0.38951  -0.38232  -0.38056
 Alpha  occ. eigenvalues --   -0.37491  -0.37323  -0.37001  -0.35434  -0.35212
 Alpha  occ. eigenvalues --   -0.34941  -0.34111  -0.33487  -0.33446  -0.33004
 Alpha  occ. eigenvalues --   -0.32600  -0.32405  -0.31918  -0.31111  -0.30685
 Alpha  occ. eigenvalues --   -0.30599  -0.30507  -0.26107  -0.25477
 Alpha virt. eigenvalues --    0.03334   0.03926   0.06356   0.07886   0.08874
 Alpha virt. eigenvalues --    0.09118   0.09734   0.10205   0.10818   0.11832
 Alpha virt. eigenvalues --    0.13551   0.14128   0.14328   0.14673   0.14732

 Mulliken charges:
               1
     1  N   -0.306655
     2  C    0.181642
     3  C    0.064790
     4  N   -0.258788
     5  C    0.150157
     6  H    0.028806
     7  N   -0.290906
     8  C    0.121939
     9  H    0.012855
    10  N   -0.274531
    11  C    0.245531
    12  C    0.079029
    13  N   -0.067799
    14  H    0.114482
    15  H    0.082078
    16  H    0.021243
    17  H    0.028833
    18  H    0.031207
    19  N   -0.309876
    20  C    0.266195
    21  C    0.182454
    22  N   -0.119265
    23  H    0.122765
    24  H    0.117782
    25  N   -0.306900
    26  C    0.227620
    27  N   -0.129649
    28  H    0.118799
    29  C    0.176934
    30  O   -0.319072
    31  C   -0.009055
    32  N   -0.231857
    33  C    0.116741
    34  H    0.022186
    35  H    0.025766
    36  H    0.030857
    37  H    0.024951
    38  H    0.067220
    39  H    0.055678
    40  H    0.076269
    41  H    0.024268
    42  C   -0.118628
    43  O   -0.263557
    44  C    0.171212
    45  H    0.134754
    46  N   -0.125424
    47  O   -0.349851
    48  C    0.349365
    49  H    0.042006
    50  C    0.168269
    51  C    0.039695
    52  N   -0.276771
    53  H    0.034569
    54  H    0.040592
    55  H    0.030721
    56  H    0.119016
    57  H    0.120093
    58  N   -0.063988
    59  C    0.079054
    60  C    0.222884
    61  N   -0.260314
    62  H    0.026741
    63  C    0.167710
    64  N   -0.306487
    65  H    0.040650
    66  C    0.139533
    67  N   -0.256662
    68  C    0.027173
    69  C    0.180630
    70  N   -0.307709
 Sum of Mulliken charges =  -0.00000

 Dipole moment (field-independent basis, Debye):
    X=             -7.6670    Y=              7.1315    Z=             -1.2752  Tot=             10.5483
 Quadrupole moment (field-independent basis, Debye-Ang):
   XX=           -161.2356   YY=           -222.1009   ZZ=           -252.0771
   XY=              5.0005   XZ=            -17.3759   YZ=             10.7306

 Normal termination of Gaussian 16 at Tue Jan 23 12:27:42 2018.
