 Gaussian 16, Revision A.03,
 Gaussian 16:  EM64L-G16RevA.03 25-Dec-2016

 ---------------------------------------
 #p wb97xd/cc-pvdz sp scf=(maxcycles=20)
 ---------------------------------------

 ------------------
 Base pair stacking
 ------------------
 Symbolic Z-matrix:
 Charge =  0 Multiplicity = 1

                         Standard orientation:
 ---------------------------------------------------------------------
 Center     Atomic      Atomic             Coordinates (Angstroms)
 Number     Number       Type             X           Y           Z
 ---------------------------------------------------------------------
      1          7           0       -6.637413   -1.419411    0.475947
      2          6           0       -7.998519   -0.864753    0.342759
      3          6           0       -4.467714   -1.629976    0.768210
      4          7           0       -4.955244   -2.909538    0.545081
      5          6           0       -6.242889   -2.731469    0.377937
      6          1           0       -6.958441   -3.529695    0.178582
      7          7           0       -3.030051    0.190560    1.194466
      8          6           0       -4.117029    0.966180    1.127569
      9          1           0       -3.939339    2.029909    1.279788
     10          7           0       -5.384602    0.626681    0.901942
     11          6           0       -5.492851   -0.700968    0.728563
     12          6           0       -3.172135   -1.140952    1.015671
     13          7           0       -2.088269   -1.916833    1.082081
     14          1           0       -2.146555   -2.907751    0.955974
     15          1           0       -1.181561   -1.534286    1.260059
     16          1           0       -8.593628   -1.267584    1.038279
     17          1           0       -7.968572    0.126873    0.464813
     18          1           0       -8.359523   -1.076351   -0.565479
     19          7           0       -2.910781    2.349616   -1.621876
     20          6           0       -1.568386    2.140242   -1.416481
     21          6           0       -3.615663    3.631364   -1.419466
     22          7           0        1.556167    3.341484   -0.491318
     23          1           0        2.486685    2.986773   -0.404427
     24          1           0        1.414879    4.305272   -0.263582
     25          7           0       -0.674938    3.062836   -0.998605
     26          6           0        0.542690    2.560573   -0.894996
     27          7           0        0.862958    1.254977   -1.178461
     28          1           0        1.820727    0.958206   -1.070946
     29          6           0       -0.040089    0.288397   -1.609849
     30          8           0        0.352205   -0.862533   -1.838367
     31          6           0       -1.352389    0.813062   -1.725909
     32          7           0       -2.535366    0.201540   -2.117684
     33          6           0       -3.430152    1.148981   -2.040684
     34          1           0       -4.487217    1.025631   -2.278733
     35          1           0       -4.329831    3.515659   -0.729980
     36          1           0       -2.963907    4.322456   -1.109835
     37          1           0       -4.028562    3.926200   -2.280500
     38          1           0        6.618565   -0.049675    0.277240
     39          1           0        6.919871    0.117475   -1.450746
     40          1           0        5.642227    1.061346   -0.683875
     41          1           0        5.038760   -4.308341   -1.308499
     42          6           0        4.709326   -3.270136   -1.265520
     43          8           0        2.436010   -3.780480   -1.711259
     44          6           0        3.327343   -2.964758   -1.476942
     45          1           0        2.050494   -1.366842   -1.545022
     46          7           0        3.017444   -1.621832   -1.401078
     47          8           0        3.512566    0.574253   -1.102327
     48          6           0        3.881959   -0.585887   -1.150140
     49          1           0        6.637704   -2.460610   -0.850970
     50          6           0        5.576517   -2.281376   -1.018667
     51          6           0        6.157727    0.112455   -0.685777
     52          7           0        5.197090   -0.960548   -0.957072
     53          1           0        3.839295    3.779920    2.810290
     54          1           0        2.710630    3.776634    1.632058
     55          1           0        4.292870    3.666753    1.246676
     56          1           0        1.325987   -3.117512    1.726664
     57          1           0        2.938696   -2.781205    2.169587
     58          7           0        2.042654   -2.438297    1.885409
     59          6           0        1.814657   -1.133067    1.725531
     60          6           0        2.400728    1.173058    1.729482
     61          7           0        1.187557    1.604809    1.347057
     62          1           0       -0.652695    0.839573    0.869068
     63          6           0        0.357449    0.577148    1.180513
     64          7           0        0.583906   -0.730827    1.340141
     65          1           0        5.503370    1.386712    2.612757
     66          6           0        4.501215    1.049244    2.346759
     67          7           0        4.117939   -0.203888    2.325845
     68          6           0        2.788038   -0.139515    1.936026
     69          6           0        3.595415    3.407432    1.914864
     70          7           0        3.512569    1.936227    1.996649
 ---------------------------------------------------------------------

 SCF Done:  E(RwB97XD) =  -2048.71840870     A.U. after   15 cycles

 The electronic state is 1-A.
 Alpha  occ. eigenvalues --  -19.25921 -19.21978 -19.20597 -14.52411 -14.51930
 Alpha  occ. eigenvalues --  -14.49193 -14.48620 -14.47903 -14.47281 -14.46569
 Alpha  occ. eigenvalues --  -14.46233 -14.44908 -14.43398 -14.42640 -14.42631
 Alpha  occ. eigenvalues --  -14.42090 -14.41840 -14.41438 -14.40665 -14.40567
 Alpha  occ. eigenvalues --  -10.45522 -10.40997 -10.40106 -10.39056 -10.38132
 Alpha  occ. eigenvalues --  -10.37767 -10.37475 -10.36407 -10.35855 -10.35318
 Alpha  occ. eigenvalues --  -10.34934 -10.34499 -10.34274 -10.34030 -10.33816
 Alpha  occ. eigenvalues --  -10.33587 -10.33111 -10.31777 -10.31342 -10.31064
 Alpha  occ. eigenvalues --  -10.30653 -10.28975 -10.28038  -1.19488  -1.14619
 Alpha  occ. eigenvalues --   -1.13248  -1.13010  -1.11780  -1.10494  -1.09304
 Alpha  occ. eigenvalues --   -1.08696  -1.08264  -1.05423  -1.03963  -1.02509
 Alpha  occ. eigenvalues --   -1.00891  -1.00529  -0.99664  -0.98516  -0.97385
 Alpha  occ. eigenvalues --   -0.96471  -0.95962  -0.93083  -0.91027  -0.87114
 Alpha  occ. eigenvalues --   -0.85667  -0.84371  -0.83995  -0.83676  -0.82728
 Alpha  occ. eigenvalues --   -0.82358  -0.78856  -0.76401  -0.74632  -0.74154
 Alpha  occ. eigenvalues --   -0.73595  -0.73370  -0.73329  -0.71523  -0.69843
 Alpha  occ. eigenvalues --   -0.67345  -0.66742  -0.66557  -0.66181  -0.64438
 Alpha  occ. eigenvalues --   -0.63746  -0.63700  -0.63131  -0.62758  -0.61738
 Alpha  occ. eigenvalues --   -0.60676  -0.60285  -0.59939  -0.59495  -0.59245
 Alpha  occ. eigenvalues --   -0.59012  -0.58146  -0.57156  -0.56834  -0.56660
 Alpha  occ. eigenvalues --   -0.55993  -0.55767  -0.55439  -0.54810  -0.54343
 Alpha  occ. eigenvalues --   -0.53813  -0.53570  -0.53066  -0.52862  -0.52588
 Alpha  occ. eigenvalues --   -0.52458  -0.52165  -0.52089  -0.51199  -0.50607
 Alpha  occ. eigenvalues --   -0.50067  -0.49585  -0.49420  -0.48984  -0.48707
 Alpha  occ. eigenvalues --   -0.48625  -0.48234  -0.48120  -0.47863  -0.47386
 Alpha  occ. eigenvalues --   -0.47353  -0.45788  -0.45353  -0.43935  -0.43336
 Alpha  occ. eigenvalues --   -0.41643  -0.40242  -0.39499  -0.37657  -0.37507
 Alpha  occ. eigenvalues --   -0.37229  -0.37092  -0.36460  -0.35875  -0.34309
 Alpha  occ. eigenvalues --   -0.34148  -0.33899  -0.33741  -0.33163  -0.32628
 Alpha  occ. eigenvalues --   -0.32434  -0.32101  -0.31932  -0.31775  -0.31345
 Alpha  occ. eigenvalues --   -0.30806  -0.28666  -0.26214  -0.25344
 Alpha virt. eigenvalues --    0.03096   0.04651   0.07457   0.07586   0.08956
 Alpha virt. eigenvalues --    0.09119   0.09516   0.10509   0.11168   0.11593
 Alpha virt. eigenvalues --    0.12924   0.13807   0.14351   0.14575   0.14696

 Mulliken charges:
               1
     1  N   -0.312255
     2  C    0.180568
     3  C    0.044025
     4  N   -0.259460
     5  C    0.134426
     6  H    0.027846
     7  N   -0.283008
     8  C    0.124865
     9  H    0.012341
    10  N   -0.289780
    11  C    0.239164
    12  C    0.117970
    13  N   -0.053259
    14  H    0.108106
    15  H    0.088314
    16  H    0.026537
    17  H    0.033380
    18  H    0.026694
    19  N   -0.303717
    20  C    0.236517
    21  C    0.179330
    22  N   -0.083886
    23  H    0.107101
    24  H    0.116511
    25  N   -0.289433
    26  C    0.202053
    27  N   -0.116631
    28  H    0.117988
    29  C    0.135599
    30  O   -0.318213
    31  C    0.024783
    32  N   -0.222375
    33  C    0.121962
    34  H    0.026709
    35  H    0.029582
    36  H    0.026952
    37  H    0.023899
    38  H    0.060722
    39  H    0.060965
    40  H    0.069856
    41  H    0.030609
    42  C   -0.115481
    43  O   -0.266583
    44  C    0.175355
    45  H    0.135417
    46  N   -0.133152
    47  O   -0.348695
    48  C    0.357834
    49  H    0.047639
    50  C    0.176834
    51  C    0.040512
    52  N   -0.289445
    53  H    0.037711
    54  H    0.025658
    55  H    0.028293
    56  H    0.123157
    57  H    0.116287
    58  N   -0.065562
    59  C    0.108566
    60  C    0.232394
    61  N   -0.275048
    62  H    0.049958
    63  C    0.169735
    64  N   -0.301280
    65  H    0.030690
    66  C    0.125710
    67  N   -0.260551
    68  C    0.013669
    69  C    0.166318
    70  N   -0.309300
 Sum of Mulliken charges =  -0.00000

 Dipole moment (field-independent basis, Debye):
    X=              7.0387    Y=              5.8792    Z=              3.2093  Tot=              9.7163
 Quadrupole moment (field-independent basis, Debye-Ang):
   XX=           -145.7749   YY=           -223.9115   ZZ=           -255.1154
   XY=              6.7323   XZ=              9.7952   YZ=            -10.4126

 Normal termination of Gaussian 16 at Mon Jan 22 22:06:10 2018.
