 Gaussian 16, Revision A.03,
 Gaussian 16:  EM64L-G16RevA.03 25-Dec-2016

 ---------------------------------------
 #p wb97xd/cc-pvdz sp scf=(maxcycles=20)
 ---------------------------------------

 ------------------
 Base pair stacking
 ------------------
 Symbolic Z-matrix:
 Charge =  0 Multiplicity = 1

                         Standard orientation:
 ---------------------------------------------------------------------
 Center     Atomic      Atomic             Coordinates (Angstroms)
 Number     Number       Type             X           Y           Z
 ---------------------------------------------------------------------
      1          7           0        5.783708   -1.520082   -1.048962
      2          6           0        7.159210   -0.996429   -0.940376
      3          6           0        3.596930   -1.676509   -1.224563
      4          7           0        4.076750   -2.977482   -1.180143
      5          6           0        5.375004   -2.831168   -1.076132
      6          1           0        6.088643   -3.653299   -1.014977
      7          7           0        2.164978    0.193573   -1.348246
      8          6           0        3.266346    0.946737   -1.262775
      9          1           0        3.096656    2.022438   -1.281203
     10          7           0        4.539882    0.572387   -1.158452
     11          6           0        4.637340   -0.767293   -1.144691
     12          6           0        2.296487   -1.150867   -1.331717
     13          7           0        1.198248   -1.904388   -1.416936
     14          1           0        1.248324   -2.903714   -1.408498
     15          1           0        0.288490   -1.495939   -1.492079
     16          1           0        7.703318   -1.322072   -1.713739
     17          1           0        7.137681    0.002889   -0.946516
     18          1           0        7.572588   -1.313992   -0.086995
     19          7           0        3.874028    2.200622    1.354694
     20          6           0        2.516051    2.022688    1.243853
     21          6           0        4.599418    3.449289    1.045898
     22          7           0       -0.627013    3.273215    0.457012
     23          1           0       -1.570540    2.943269    0.445814
     24          1           0       -0.474179    4.220374    0.173725
     25          7           0        1.623394    2.951179    0.837493
     26          6           0        0.388349    2.481858    0.834772
     27          7           0        0.051155    1.201523    1.201599
     28          1           0       -0.919287    0.929276    1.168673
     29          6           0        0.953026    0.229462    1.622996
     30          8           0        0.544720   -0.896858    1.931903
     31          6           0        2.283924    0.718870    1.631128
     32          7           0        3.472262    0.090910    1.978121
     33          6           0        4.385933    1.005964    1.798976
     34          1           0        5.452234    0.861923    1.976532
     35          1           0        5.264799    3.279327    0.319819
     36          1           0        3.948433    4.144429    0.743794
     37          1           0        5.074216    3.771936    1.863983
     38          1           0       -5.819035    0.005037    0.173165
     39          1           0       -6.005004    0.263048    1.906220
     40          1           0       -4.753412    1.130171    1.015723
     41          1           0       -4.258652   -4.219719    1.865280
     42          6           0       -3.904316   -3.195232    1.750783
     43          8           0       -1.622064   -3.752793    2.078696
     44          6           0       -2.503837   -2.922363    1.860443
     45          1           0       -1.181969   -1.362604    1.770085
     46          7           0       -2.162742   -1.594592    1.699371
     47          8           0       -2.615580    0.598896    1.324224
     48          6           0       -3.012800   -0.545895    1.452034
     49          1           0       -5.832291   -2.347967    1.417757
     50          6           0       -4.758075   -2.193365    1.510010
     51          6           0       -5.293534    0.198566    1.096457
     52          7           0       -4.347315   -0.889095    1.359919
     53          1           0       -4.733002    4.005258   -2.103999
     54          1           0       -3.533403    3.856848   -1.008078
     55          1           0       -5.090145    3.717493   -0.537769
     56          1           0       -2.268370   -2.992926   -1.975398
     57          1           0       -3.899899   -2.593769   -2.273537
     58          7           0       -2.982514   -2.293672   -2.009776
     59          6           0       -2.724054   -1.017461   -1.717104
     60          6           0       -3.272072    1.278995   -1.420995
     61          7           0       -2.030669    1.653268   -1.069904
     62          1           0       -0.176770    0.821996   -0.800342
     63          6           0       -1.208430    0.605981   -1.074696
     64          7           0       -1.465386   -0.673001   -1.367544
     65          1           0       -6.419826    1.620013   -2.074840
     66          6           0       -5.408618    1.245395   -1.913365
     67          7           0       -5.044983   -0.005210   -2.059779
     68          6           0       -3.692538    0.002259   -1.750642
     69          6           0       -4.439891    3.530376   -1.274195
     70          7           0       -4.385971    2.077583   -1.528150
 ---------------------------------------------------------------------

 SCF Done:  E(RwB97XD) =  -2048.72293443     A.U. after   15 cycles

 The electronic state is 1-A.
 Alpha  occ. eigenvalues --  -19.25413 -19.21562 -19.20336 -14.52919 -14.52022
 Alpha  occ. eigenvalues --  -14.48856 -14.48569 -14.48044 -14.47435 -14.46340
 Alpha  occ. eigenvalues --  -14.45819 -14.45138 -14.44541 -14.44263 -14.42706
 Alpha  occ. eigenvalues --  -14.41484 -14.41464 -14.41213 -14.40403 -14.40389
 Alpha  occ. eigenvalues --  -10.45014 -10.40544 -10.40296 -10.39693 -10.38327
 Alpha  occ. eigenvalues --  -10.37821 -10.37502 -10.37427 -10.35746 -10.35675
 Alpha  occ. eigenvalues --  -10.34623 -10.34466 -10.34140 -10.33676 -10.33476
 Alpha  occ. eigenvalues --  -10.33221 -10.32934 -10.32840 -10.31174 -10.30733
 Alpha  occ. eigenvalues --  -10.30289 -10.28612 -10.27528  -1.19163  -1.15610
 Alpha  occ. eigenvalues --   -1.12835  -1.12611  -1.11425  -1.10118  -1.09610
 Alpha  occ. eigenvalues --   -1.08928  -1.08031  -1.05271  -1.05132  -1.02079
 Alpha  occ. eigenvalues --   -1.01432  -1.00761  -0.98940  -0.98160  -0.97226
 Alpha  occ. eigenvalues --   -0.96994  -0.96077  -0.92972  -0.90663  -0.88077
 Alpha  occ. eigenvalues --   -0.86444  -0.84105  -0.83529  -0.83196  -0.82487
 Alpha  occ. eigenvalues --   -0.81948  -0.78492  -0.77399  -0.75391  -0.74094
 Alpha  occ. eigenvalues --   -0.73129  -0.73097  -0.72932  -0.71305  -0.70826
 Alpha  occ. eigenvalues --   -0.67273  -0.66753  -0.66563  -0.66114  -0.64731
 Alpha  occ. eigenvalues --   -0.64086  -0.63355  -0.63003  -0.62539  -0.61151
 Alpha  occ. eigenvalues --   -0.60960  -0.60920  -0.60715  -0.59859  -0.59222
 Alpha  occ. eigenvalues --   -0.58879  -0.57795  -0.57180  -0.56629  -0.56242
 Alpha  occ. eigenvalues --   -0.55901  -0.55726  -0.55572  -0.54715  -0.54346
 Alpha  occ. eigenvalues --   -0.53804  -0.53641  -0.53438  -0.53150  -0.52772
 Alpha  occ. eigenvalues --   -0.52431  -0.52044  -0.51979  -0.51089  -0.50356
 Alpha  occ. eigenvalues --   -0.49817  -0.49616  -0.49297  -0.49129  -0.48802
 Alpha  occ. eigenvalues --   -0.48330  -0.48200  -0.47870  -0.47178  -0.46993
 Alpha  occ. eigenvalues --   -0.46888  -0.45529  -0.44691  -0.44578  -0.43425
 Alpha  occ. eigenvalues --   -0.41388  -0.40916  -0.39315  -0.38107  -0.37943
 Alpha  occ. eigenvalues --   -0.37684  -0.36844  -0.36663  -0.35970  -0.34649
 Alpha  occ. eigenvalues --   -0.34595  -0.33732  -0.33690  -0.32767  -0.32572
 Alpha  occ. eigenvalues --   -0.32304  -0.32227  -0.31897  -0.31499  -0.30970
 Alpha  occ. eigenvalues --   -0.30642  -0.29841  -0.25940  -0.24465
 Alpha virt. eigenvalues --    0.03378   0.03544   0.06786   0.07436   0.08877
 Alpha virt. eigenvalues --    0.09420   0.09647   0.10504   0.11337   0.11917
 Alpha virt. eigenvalues --    0.12739   0.13925   0.14232   0.14837   0.15140

 Mulliken charges:
               1
     1  N   -0.314869
     2  C    0.180502
     3  C    0.059436
     4  N   -0.261721
     5  C    0.136513
     6  H    0.026719
     7  N   -0.286253
     8  C    0.148858
     9  H    0.008107
    10  N   -0.286833
    11  C    0.254180
    12  C    0.101719
    13  N   -0.057371
    14  H    0.107600
    15  H    0.083637
    16  H    0.025868
    17  H    0.029201
    18  H    0.027873
    19  N   -0.277738
    20  C    0.193024
    21  C    0.180261
    22  N   -0.079037
    23  H    0.113130
    24  H    0.106999
    25  N   -0.294783
    26  C    0.194139
    27  N   -0.149706
    28  H    0.127088
    29  C    0.172946
    30  O   -0.323484
    31  C    0.012016
    32  N   -0.221061
    33  C    0.129027
    34  H    0.014236
    35  H    0.026272
    36  H    0.026214
    37  H    0.022794
    38  H    0.066262
    39  H    0.056343
    40  H    0.065537
    41  H    0.028396
    42  C   -0.112542
    43  O   -0.265185
    44  C    0.175118
    45  H    0.130972
    46  N   -0.124310
    47  O   -0.334402
    48  C    0.335862
    49  H    0.046175
    50  C    0.168309
    51  C    0.036212
    52  N   -0.283171
    53  H    0.037502
    54  H    0.033057
    55  H    0.029945
    56  H    0.123038
    57  H    0.118673
    58  N   -0.062230
    59  C    0.092272
    60  C    0.257378
    61  N   -0.291611
    62  H    0.063835
    63  C    0.143906
    64  N   -0.296321
    65  H    0.037132
    66  C    0.120137
    67  N   -0.255671
    68  C    0.020272
    69  C    0.182178
    70  N   -0.298572
 Sum of Mulliken charges =  -0.00000

 Dipole moment (field-independent basis, Debye):
    X=             -7.5271    Y=              6.1814    Z=             -3.7034  Tot=             10.4203
 Quadrupole moment (field-independent basis, Debye-Ang):
   XX=           -150.7526   YY=           -224.8077   ZZ=           -257.0339
   XY=             -3.7324   XZ=             -0.5437   YZ=             12.9704

 Normal termination of Gaussian 16 at Tue Jan 23 04:41:26 2018.
