 Gaussian 16, Revision A.03,
 Gaussian 16:  EM64L-G16RevA.03 25-Dec-2016

 ---------------------------------------
 #p wb97xd/cc-pvdz sp scf=(maxcycles=20)
 ---------------------------------------

 ------------------
 Base pair stacking
 ------------------
 Symbolic Z-matrix:
 Charge =  0 Multiplicity = 1

                         Standard orientation:
 ---------------------------------------------------------------------
 Center     Atomic      Atomic             Coordinates (Angstroms)
 Number     Number       Type             X           Y           Z
 ---------------------------------------------------------------------
      1          7           0       -6.449370   -1.593061    0.480004
      2          6           0       -7.832885   -1.117187    0.673453
      3          6           0       -4.258596   -1.779430    0.535644
      4          7           0       -4.722011   -2.864675   -0.193888
      5          6           0       -6.023317   -2.708964   -0.198215
      6          1           0       -6.726961   -3.384559   -0.685452
      7          7           0       -2.849584   -0.237923    1.631712
      8          6           0       -3.961695    0.424694    1.965963
      9          1           0       -3.805770    1.327678    2.554669
     10          7           0       -5.231524    0.140689    1.683522
     11          6           0       -5.311724   -0.986722    0.957618
     12          6           0       -2.963790   -1.368497    0.901076
     13          7           0       -1.854816   -2.031336    0.566426
     14          1           0       -1.891993   -2.872882    0.026393
     15          1           0       -0.949521   -1.709507    0.843963
     16          1           0       -8.362382   -1.814891    1.156185
     17          1           0       -7.824283   -0.274937    1.211659
     18          1           0       -8.253431   -0.938110   -0.215970
     19          7           0       -3.066464    2.780390   -1.492997
     20          6           0       -1.717762    2.538998   -1.389061
     21          6           0       -3.717981    4.089187   -1.285001
     22          7           0        1.503102    3.680477   -0.768767
     23          1           0        2.427859    3.301747   -0.743678
     24          1           0        1.406696    4.655872   -0.568682
     25          7           0       -0.768769    3.449565   -1.081925
     26          6           0        0.439468    2.915536   -1.057636
     27          7           0        0.700510    1.591325   -1.314193
     28          1           0        1.655658    1.270422   -1.273071
     29          6           0       -0.260313    0.636598   -1.632260
     30          8           0        0.081119   -0.533208   -1.846068
     31          6           0       -1.563302    1.195365   -1.662173
     32          7           0       -2.790326    0.605103   -1.932142
     33          6           0       -3.650240    1.580949   -1.820392
     34          1           0       -4.726201    1.480281   -1.966823
     35          1           0       -4.375864    4.020587   -0.535813
     36          1           0       -3.024828    4.771670   -1.056901
     37          1           0       -4.192288    4.363850   -2.120713
     38          1           0        6.519606    0.171312   -0.279721
     39          1           0        6.682140    0.264828   -2.031719
     40          1           0        5.497429    1.274238   -1.201720
     41          1           0        4.702087   -4.094693   -1.562088
     42          6           0        4.405025   -3.046267   -1.533687
     43          8           0        2.089991   -3.505068   -1.772955
     44          6           0        3.018948   -2.708030   -1.644223
     45          1           0        1.783764   -1.076507   -1.671730
     46          7           0        2.752146   -1.354588   -1.596730
     47          8           0        3.328386    0.835417   -1.426376
     48          6           0        3.661613   -0.336176   -1.457999
     49          1           0        6.381790   -2.279542   -1.309360
     50          6           0        5.315564   -2.075217   -1.397375
     51          6           0        5.985616    0.311032   -1.207846
     52          7           0        4.977741   -0.742303   -1.357571
     53          1           0        4.007689    2.707478    4.274600
     54          1           0        2.795635    3.144734    3.273673
     55          1           0        4.347672    3.305891    2.794816
     56          1           0        1.632799   -3.187022    0.443118
     57          1           0        3.262821   -2.978926    0.901189
     58          7           0        2.338181   -2.601064    0.842148
     59          6           0        2.059269   -1.370339    1.276539
     60          6           0        2.573378    0.739660    2.248828
     61          7           0        1.322647    1.220966    2.156893
     62          1           0       -0.523693    0.628145    1.493434
     63          6           0        0.514239    0.317813    1.605802
     64          7           0        0.791692   -0.915372    1.170074
     65          1           0        5.724854    0.736321    2.970194
     66          6           0        4.716552    0.487320    2.638136
     67          7           0        4.371190   -0.655009    2.096375
     68          6           0        3.014767   -0.508305    1.844717
     69          6           0        3.709753    2.743110    3.320677
     70          7           0        3.678119    1.378049    2.760668
 ---------------------------------------------------------------------

 SCF Done:  E(RwB97XD) =  -2048.74044843     A.U. after   15 cycles

 The electronic state is 1-A.
 Alpha  occ. eigenvalues --  -19.26152 -19.22606 -19.20861 -14.52770 -14.51641
 Alpha  occ. eigenvalues --  -14.48884 -14.48592 -14.48101 -14.47198 -14.47012
 Alpha  occ. eigenvalues --  -14.46254 -14.44762 -14.43231 -14.43096 -14.42254
 Alpha  occ. eigenvalues --  -14.41789 -14.41185 -14.40953 -14.40688 -14.39916
 Alpha  occ. eigenvalues --  -10.45805 -10.41488 -10.40833 -10.38630 -10.38450
 Alpha  occ. eigenvalues --  -10.38324 -10.37265 -10.36225 -10.35417 -10.35103
 Alpha  occ. eigenvalues --  -10.34719 -10.34517 -10.33861 -10.33393 -10.33319
 Alpha  occ. eigenvalues --  -10.33127 -10.32869 -10.31680 -10.31485 -10.30942
 Alpha  occ. eigenvalues --  -10.30904 -10.28278 -10.28260  -1.19750  -1.14337
 Alpha  occ. eigenvalues --   -1.13822  -1.13432  -1.11143  -1.10737  -1.09667
 Alpha  occ. eigenvalues --   -1.08814  -1.08064  -1.04718  -1.03663  -1.02884
 Alpha  occ. eigenvalues --   -1.00128  -1.00095  -1.00041  -0.98751  -0.96741
 Alpha  occ. eigenvalues --   -0.96708  -0.95666  -0.92360  -0.91498  -0.86726
 Alpha  occ. eigenvalues --   -0.85124  -0.84258  -0.83912  -0.83751  -0.82609
 Alpha  occ. eigenvalues --   -0.82131  -0.79302  -0.76025  -0.74804  -0.73925
 Alpha  occ. eigenvalues --   -0.73771  -0.73738  -0.72645  -0.70811  -0.69406
 Alpha  occ. eigenvalues --   -0.67629  -0.66946  -0.66040  -0.65715  -0.64810
 Alpha  occ. eigenvalues --   -0.64002  -0.63214  -0.62896  -0.62426  -0.61974
 Alpha  occ. eigenvalues --   -0.60167  -0.60001  -0.59852  -0.59480  -0.58882
 Alpha  occ. eigenvalues --   -0.58654  -0.58542  -0.56714  -0.56305  -0.56283
 Alpha  occ. eigenvalues --   -0.56262  -0.55119  -0.54812  -0.54733  -0.54396
 Alpha  occ. eigenvalues --   -0.53895  -0.53691  -0.53162  -0.52848  -0.52774
 Alpha  occ. eigenvalues --   -0.52665  -0.51897  -0.51594  -0.50569  -0.50439
 Alpha  occ. eigenvalues --   -0.49998  -0.49842  -0.49437  -0.49245  -0.49158
 Alpha  occ. eigenvalues --   -0.48503  -0.48474  -0.47940  -0.47705  -0.47591
 Alpha  occ. eigenvalues --   -0.46742  -0.45645  -0.44817  -0.44500  -0.43360
 Alpha  occ. eigenvalues --   -0.40899  -0.39826  -0.39730  -0.37468  -0.37430
 Alpha  occ. eigenvalues --   -0.36941  -0.36708  -0.36571  -0.36086  -0.34441
 Alpha  occ. eigenvalues --   -0.33915  -0.33890  -0.33336  -0.33240  -0.33060
 Alpha  occ. eigenvalues --   -0.32841  -0.32575  -0.32451  -0.31991  -0.30710
 Alpha  occ. eigenvalues --   -0.30155  -0.28876  -0.25660  -0.25438
 Alpha virt. eigenvalues --    0.02321   0.05072   0.07306   0.08253   0.08861
 Alpha virt. eigenvalues --    0.08991   0.09561   0.11213   0.11362   0.11987
 Alpha virt. eigenvalues --    0.12872   0.14158   0.14667   0.14678   0.15626

 Mulliken charges:
               1
     1  N   -0.311575
     2  C    0.180669
     3  C    0.046506
     4  N   -0.256961
     5  C    0.131739
     6  H    0.025264
     7  N   -0.293541
     8  C    0.132142
     9  H    0.010237
    10  N   -0.292084
    11  C    0.235754
    12  C    0.114986
    13  N   -0.047912
    14  H    0.111853
    15  H    0.092953
    16  H    0.025572
    17  H    0.033497
    18  H    0.023888
    19  N   -0.311976
    20  C    0.252218
    21  C    0.180562
    22  N   -0.122125
    23  H    0.113484
    24  H    0.117565
    25  N   -0.309345
    26  C    0.246503
    27  N   -0.143097
    28  H    0.115878
    29  C    0.178726
    30  O   -0.323063
    31  C   -0.003193
    32  N   -0.225244
    33  C    0.132210
    34  H    0.026803
    35  H    0.031437
    36  H    0.028477
    37  H    0.024325
    38  H    0.061773
    39  H    0.059840
    40  H    0.072504
    41  H    0.030738
    42  C   -0.114440
    43  O   -0.279683
    44  C    0.130313
    45  H    0.137800
    46  N   -0.109667
    47  O   -0.348208
    48  C    0.351489
    49  H    0.050823
    50  C    0.187470
    51  C    0.041395
    52  N   -0.285047
    53  H    0.032600
    54  H    0.042634
    55  H    0.022887
    56  H    0.130531
    57  H    0.110208
    58  N   -0.045370
    59  C    0.090715
    60  C    0.245883
    61  N   -0.271708
    62  H    0.037159
    63  C    0.167884
    64  N   -0.300287
    65  H    0.031164
    66  C    0.132317
    67  N   -0.266503
    68  C    0.011947
    69  C    0.179765
    70  N   -0.312057
 Sum of Mulliken charges =  -0.00000

 Dipole moment (field-independent basis, Debye):
    X=              8.1038    Y=              6.3746    Z=              1.6656  Tot=             10.4442
 Quadrupole moment (field-independent basis, Debye-Ang):
   XX=           -147.3291   YY=           -221.6272   ZZ=           -250.9421
   XY=              2.8687   XZ=              8.5560   YZ=             -2.1409

 Normal termination of Gaussian 16 at Tue Jan 23 06:15:26 2018.
