 Gaussian 16, Revision A.03,
 Gaussian 16:  EM64L-G16RevA.03 25-Dec-2016

 ---------------------------------------
 #p wb97xd/cc-pvdz sp scf=(maxcycles=20)
 ---------------------------------------

 ------------------
 Base pair stacking
 ------------------
 Symbolic Z-matrix:
 Charge =  0 Multiplicity = 1

                         Standard orientation:
 ---------------------------------------------------------------------
 Center     Atomic      Atomic             Coordinates (Angstroms)
 Number     Number       Type             X           Y           Z
 ---------------------------------------------------------------------
      1          7           0       -6.684269   -1.449894    0.421960
      2          6           0       -8.056709   -0.907281    0.424421
      3          6           0       -4.505453   -1.669420    0.626572
      4          7           0       -4.977440   -2.891442    0.169806
      5          6           0       -6.271212   -2.710268    0.064821
      6          1           0       -6.978271   -3.469241   -0.271289
      7          7           0       -3.087727    0.063152    1.368978
      8          6           0       -4.188162    0.815226    1.473926
      9          1           0       -4.024046    1.832986    1.825342
     10          7           0       -5.454930    0.500314    1.211198
     11          6           0       -5.545892   -0.770893    0.786712
     12          6           0       -3.212567   -1.211473    0.939079
     13          7           0       -2.115256   -1.963782    0.833659
     14          1           0       -2.160565   -2.912754    0.519628
     15          1           0       -1.210969   -1.604657    1.064840
     16          1           0       -8.629465   -1.448474    1.040249
     17          1           0       -8.039817    0.042603    0.735145
     18          1           0       -8.434717   -0.946972   -0.500531
     19          7           0       -2.826068    2.521878   -1.660612
     20          6           0       -1.482986    2.294484   -1.480371
     21          6           0       -3.499788    3.826414   -1.502565
     22          7           0        1.688566    3.472996   -0.696729
     23          1           0        2.613926    3.103416   -0.616986
     24          1           0        1.572532    4.449399   -0.512618
     25          7           0       -0.560522    3.217162   -1.131421
     26          6           0        0.649323    2.695018   -1.035286
     27          7           0        0.935982    1.370830   -1.263063
     28          1           0        1.890279    1.059532   -1.166251
     29          6           0        0.002701    0.403766   -1.623115
     30          8           0        0.365887   -0.764818   -1.805441
     31          6           0       -1.301663    0.949697   -1.730305
     32          7           0       -2.506648    0.344997   -2.060798
     33          6           0       -3.380153    1.313638   -2.006720
     34          1           0       -4.445518    1.201191   -2.210797
     35          1           0       -4.197155    3.759098   -0.789849
     36          1           0       -2.826376    4.517782   -1.244101
     37          1           0       -3.929975    4.088032   -2.365876
     38          1           0        6.702084    0.017197    0.103715
     39          1           0        6.959691    0.094519   -1.637629
     40          1           0        5.722157    1.100887   -0.884574
     41          1           0        4.996208   -4.278789   -1.230838
     42          6           0        4.688604   -3.233039   -1.229914
     43          8           0        2.394422   -3.716393   -1.590764
     44          6           0        3.307691   -2.909227   -1.419813
     45          1           0        2.061217   -1.289972   -1.532311
     46          7           0        3.026501   -1.557993   -1.401408
     47          8           0        3.572749    0.639050   -1.223048
     48          6           0        3.917757   -0.529552   -1.223901
     49          1           0        6.643087   -2.445161   -0.905793
     50          6           0        5.581490   -2.251972   -1.054253
     51          6           0        6.218602    0.142390   -0.853689
     52          7           0        5.229994   -0.922018   -1.047207
     53          1           0        3.758292    3.410265    3.516352
     54          1           0        2.603501    3.611637    2.381450
     55          1           0        4.178179    3.609780    1.951965
     56          1           0        1.331388   -3.197683    1.168870
     57          1           0        2.948119   -2.920905    1.637562
     58          7           0        2.040545   -2.547634    1.442131
     59          6           0        1.788220   -1.240886    1.541792
     60          6           0        2.337411    1.032465    1.979978
     61          7           0        1.109186    1.505494    1.711387
     62          1           0       -0.728967    0.810127    1.129778
     63          6           0        0.292013    0.512834    1.365323
     64          7           0        0.542822   -0.796583    1.264917
     65          1           0        5.455403    1.133805    2.828510
     66          6           0        4.453003    0.833978    2.521505
     67          7           0        4.089373   -0.399015    2.266224
     68          6           0        2.750155   -0.287290    1.921640
     69          6           0        3.500218    3.212603    2.570673
     70          7           0        3.442703    1.751876    2.368263
 ---------------------------------------------------------------------

 SCF Done:  E(RwB97XD) =  -2048.74653271     A.U. after   15 cycles

 The electronic state is 1-A.
 Alpha  occ. eigenvalues --  -19.25981 -19.22221 -19.20685 -14.52512 -14.51689
 Alpha  occ. eigenvalues --  -14.48980 -14.48728 -14.47990 -14.46907 -14.46883
 Alpha  occ. eigenvalues --  -14.46833 -14.44734 -14.43131 -14.43086 -14.42272
 Alpha  occ. eigenvalues --  -14.42121 -14.41614 -14.41134 -14.40777 -14.40316
 Alpha  occ. eigenvalues --  -10.45606 -10.41284 -10.40334 -10.38783 -10.38274
 Alpha  occ. eigenvalues --  -10.37943 -10.37285 -10.36225 -10.35556 -10.35380
 Alpha  occ. eigenvalues --  -10.34702 -10.34382 -10.34277 -10.33566 -10.33540
 Alpha  occ. eigenvalues --  -10.33294 -10.33224 -10.31678 -10.31201 -10.31178
 Alpha  occ. eigenvalues --  -10.30766 -10.28717 -10.28142  -1.19543  -1.14358
 Alpha  occ. eigenvalues --   -1.13281  -1.13235  -1.11555  -1.10580  -1.09406
 Alpha  occ. eigenvalues --   -1.08642  -1.08124  -1.05144  -1.03689  -1.02635
 Alpha  occ. eigenvalues --   -1.00577  -1.00175  -0.99884  -0.98582  -0.97146
 Alpha  occ. eigenvalues --   -0.96544  -0.95706  -0.92793  -0.91168  -0.86789
 Alpha  occ. eigenvalues --   -0.85248  -0.84140  -0.84106  -0.83760  -0.82507
 Alpha  occ. eigenvalues --   -0.82451  -0.78986  -0.76080  -0.74649  -0.73814
 Alpha  occ. eigenvalues --   -0.73750  -0.73488  -0.73066  -0.71240  -0.69472
 Alpha  occ. eigenvalues --   -0.67462  -0.66664  -0.66467  -0.65811  -0.64558
 Alpha  occ. eigenvalues --   -0.63818  -0.63327  -0.62839  -0.62740  -0.61824
 Alpha  occ. eigenvalues --   -0.60385  -0.59959  -0.59661  -0.59563  -0.59013
 Alpha  occ. eigenvalues --   -0.58674  -0.58478  -0.56743  -0.56656  -0.56535
 Alpha  occ. eigenvalues --   -0.56078  -0.55536  -0.54805  -0.54526  -0.54443
 Alpha  occ. eigenvalues --   -0.53702  -0.53576  -0.52981  -0.52930  -0.52606
 Alpha  occ. eigenvalues --   -0.52520  -0.51958  -0.51931  -0.50957  -0.50374
 Alpha  occ. eigenvalues --   -0.50206  -0.49563  -0.49363  -0.49001  -0.48881
 Alpha  occ. eigenvalues --   -0.48684  -0.48308  -0.47991  -0.47711  -0.47480
 Alpha  occ. eigenvalues --   -0.47142  -0.45547  -0.45185  -0.44191  -0.43466
 Alpha  occ. eigenvalues --   -0.41359  -0.39874  -0.39550  -0.37383  -0.37345
 Alpha  occ. eigenvalues --   -0.37281  -0.36756  -0.36581  -0.35990  -0.34281
 Alpha  occ. eigenvalues --   -0.33909  -0.33657  -0.33516  -0.33397  -0.33093
 Alpha  occ. eigenvalues --   -0.32735  -0.32368  -0.32121  -0.31854  -0.31120
 Alpha  occ. eigenvalues --   -0.30547  -0.28879  -0.25923  -0.25509
 Alpha virt. eigenvalues --    0.02869   0.04948   0.07601   0.07784   0.08818
 Alpha virt. eigenvalues --    0.09187   0.09555   0.10780   0.11214   0.11625
 Alpha virt. eigenvalues --    0.12769   0.13908   0.14507   0.14703   0.15057

 Mulliken charges:
               1
     1  N   -0.311557
     2  C    0.180630
     3  C    0.041665
     4  N   -0.258164
     5  C    0.133124
     6  H    0.026930
     7  N   -0.288253
     8  C    0.128059
     9  H    0.011454
    10  N   -0.290777
    11  C    0.237012
    12  C    0.118864
    13  N   -0.050960
    14  H    0.109423
    15  H    0.089678
    16  H    0.026219
    17  H    0.033849
    18  H    0.025494
    19  N   -0.309828
    20  C    0.245097
    21  C    0.180422
    22  N   -0.112708
    23  H    0.112872
    24  H    0.116006
    25  N   -0.301223
    26  C    0.231838
    27  N   -0.128001
    28  H    0.115856
    29  C    0.152125
    30  O   -0.319624
    31  C    0.009709
    32  N   -0.223994
    33  C    0.128691
    34  H    0.027700
    35  H    0.031403
    36  H    0.027715
    37  H    0.023861
    38  H    0.060631
    39  H    0.060508
    40  H    0.071098
    41  H    0.030213
    42  C   -0.115983
    43  O   -0.271777
    44  C    0.163533
    45  H    0.137001
    46  N   -0.128268
    47  O   -0.350649
    48  C    0.357033
    49  H    0.048590
    50  C    0.180955
    51  C    0.040840
    52  N   -0.288460
    53  H    0.034258
    54  H    0.038961
    55  H    0.021397
    56  H    0.126533
    57  H    0.114995
    58  N   -0.055969
    59  C    0.102878
    60  C    0.234844
    61  N   -0.265066
    62  H    0.045549
    63  C    0.162255
    64  N   -0.299458
    65  H    0.030124
    66  C    0.129951
    67  N   -0.264509
    68  C    0.013824
    69  C    0.174931
    70  N   -0.311369
 Sum of Mulliken charges =  -0.00000

 Dipole moment (field-independent basis, Debye):
    X=              7.5437    Y=              6.0404    Z=              2.3718  Tot=              9.9508
 Quadrupole moment (field-independent basis, Debye-Ang):
   XX=           -145.5515   YY=           -222.2977   ZZ=           -253.0088
   XY=              5.8257   XZ=             10.8201   YZ=             -6.9987

 Normal termination of Gaussian 16 at Tue Jan 23 11:07:22 2018.
