 Gaussian 16, Revision A.03,
 Gaussian 16:  EM64L-G16RevA.03 25-Dec-2016

 ---------------------------------------
 #p wb97xd/cc-pvdz sp scf=(maxcycles=20)
 ---------------------------------------

 ------------------
 Base pair stacking
 ------------------
 Symbolic Z-matrix:
 Charge =  0 Multiplicity = 1

                         Standard orientation:
 ---------------------------------------------------------------------
 Center     Atomic      Atomic             Coordinates (Angstroms)
 Number     Number       Type             X           Y           Z
 ---------------------------------------------------------------------
      1          7           0       -5.530271   -1.772867    1.200391
      2          6           0       -6.913942   -1.296482    1.391488
      3          6           0       -3.335426   -1.896532    1.132152
      4          7           0       -3.807305   -3.120989    0.681862
      5          6           0       -5.110733   -2.997478    0.740996
      6          1           0       -5.820664   -3.775567    0.459017
      7          7           0       -1.912536   -0.128651    1.774751
      8          6           0       -3.022872    0.565750    2.044102
      9          1           0       -2.860459    1.575801    2.417843
     10          7           0       -4.297714    0.201494    1.921658
     11          6           0       -4.385743   -1.055233    1.455484
     12          6           0       -2.034683   -1.390192    1.307122
     13          7           0       -0.927483   -2.084954    1.037678
     14          1           0       -0.970452   -3.022160    0.689789
     15          1           0       -0.017814   -1.692556    1.174276
     16          1           0       -7.383892   -1.887629    2.047123
     17          1           0       -6.899607   -0.359583    1.739547
     18          1           0       -7.399848   -1.318261    0.517755
     19          7           0       -4.122908    2.439364   -1.241323
     20          6           0       -2.759445    2.269143   -1.233797
     21          6           0       -4.827055    3.703383   -0.946155
     22          7           0        0.431128    3.565608   -0.785227
     23          1           0        1.374144    3.237534   -0.833494
     24          1           0        0.297097    4.527556   -0.545609
     25          7           0       -1.841293    3.220359   -0.957701
     26          6           0       -0.607698    2.752863   -1.030596
     27          7           0       -0.295038    1.453577   -1.349334
     28          1           0        0.676272    1.184384   -1.381584
     29          6           0       -1.223396    0.457967   -1.637092
     30          8           0       -0.835910   -0.684147   -1.913072
     31          6           0       -2.553061    0.945146   -1.562768
     32          7           0       -3.762615    0.297189   -1.772610
     33          6           0       -4.663305    1.220485   -1.571401
     34          1           0       -5.739857    1.065606   -1.650913
     35          1           0       -5.428867    3.575554   -0.158574
     36          1           0       -4.157092    4.415408   -0.740127
     37          1           0       -5.369956    3.977488   -1.739205
     38          1           0        5.646835    0.323169   -0.745532
     39          1           0        5.686765    0.479896   -2.500097
     40          1           0        4.508686    1.396553   -1.560284
     41          1           0        3.974766   -3.994092   -2.053961
     42          6           0        3.625483   -2.964928   -1.969974
     43          8           0        1.327002   -3.542258   -2.073849
     44          6           0        2.219239   -2.699889   -1.978303
     45          1           0        0.900819   -1.138456   -1.868823
     46          7           0        1.885338   -1.365239   -1.866681
     47          8           0        2.355583    0.846702   -1.658393
     48          6           0        2.747162   -0.303309   -1.752209
     49          1           0        5.569715   -2.098340   -1.848320
     50          6           0        4.490715   -1.950127   -1.859638
     51          6           0        5.045393    0.462210   -1.631537
     52          7           0        4.086607   -0.639620   -1.751772
     53          1           0        4.996010    3.453925    3.230555
     54          1           0        3.704017    3.644024    2.252439
     55          1           0        5.213258    3.733477    1.637411
     56          1           0        2.583526   -3.165998    0.902047
     57          1           0        4.232125   -2.831162    1.185059
     58          7           0        3.292490   -2.494089    1.116627
     59          6           0        2.999004   -1.205615    1.303411
     60          6           0        3.500591    1.072581    1.772397
     61          7           0        2.229847    1.496847    1.674289
     62          1           0        0.365666    0.738071    1.287382
     63          6           0        1.419417    0.480657    1.385341
     64          7           0        1.711436   -0.810529    1.197881
     65          1           0        6.691635    1.288838    2.244223
     66          6           0        5.672922    0.953895    2.046814
     67          7           0        5.333509   -0.284167    1.782865
     68          6           0        3.958743   -0.222865    1.606769
     69          6           0        4.633221    3.280961    2.314881
     70          7           0        4.613465    1.828069    2.056593
 ---------------------------------------------------------------------

 SCF Done:  E(RwB97XD) =  -2048.75120934     A.U. after   15 cycles

 The electronic state is 1-A.
 Alpha  occ. eigenvalues --  -19.25735 -19.22080 -19.20556 -14.52478 -14.52314
 Alpha  occ. eigenvalues --  -14.48697 -14.48372 -14.48190 -14.47695 -14.46845
 Alpha  occ. eigenvalues --  -14.46531 -14.45547 -14.44244 -14.44231 -14.42090
 Alpha  occ. eigenvalues --  -14.41942 -14.40945 -14.40859 -14.40738 -14.40087
 Alpha  occ. eigenvalues --  -10.45322 -10.41157 -10.40124 -10.39928 -10.38168
 Alpha  occ. eigenvalues --  -10.38047 -10.37656 -10.37175 -10.35699 -10.35206
 Alpha  occ. eigenvalues --  -10.34778 -10.34262 -10.33943 -10.33669 -10.33308
 Alpha  occ. eigenvalues --  -10.33013 -10.32893 -10.32673 -10.31022 -10.30816
 Alpha  occ. eigenvalues --  -10.30780 -10.28162 -10.28036  -1.19306  -1.15210
 Alpha  occ. eigenvalues --   -1.13128  -1.13056  -1.10935  -1.10513  -1.09301
 Alpha  occ. eigenvalues --   -1.09152  -1.08479  -1.04825  -1.04760  -1.02368
 Alpha  occ. eigenvalues --   -1.01018  -1.00211  -0.99629  -0.98479  -0.96851
 Alpha  occ. eigenvalues --   -0.96546  -0.96521  -0.92480  -0.90945  -0.87622
 Alpha  occ. eigenvalues --   -0.85922  -0.84035  -0.83622  -0.83390  -0.82419
 Alpha  occ. eigenvalues --   -0.82040  -0.78766  -0.77026  -0.74815  -0.74538
 Alpha  occ. eigenvalues --   -0.73558  -0.73233  -0.72635  -0.70795  -0.70401
 Alpha  occ. eigenvalues --   -0.67294  -0.66810  -0.66395  -0.66036  -0.64384
 Alpha  occ. eigenvalues --   -0.64247  -0.63678  -0.62597  -0.62471  -0.61674
 Alpha  occ. eigenvalues --   -0.60593  -0.60408  -0.60262  -0.59406  -0.59356
 Alpha  occ. eigenvalues --   -0.59088  -0.58251  -0.56604  -0.56343  -0.56043
 Alpha  occ. eigenvalues --   -0.55873  -0.55401  -0.55157  -0.54322  -0.54031
 Alpha  occ. eigenvalues --   -0.53761  -0.53578  -0.53538  -0.53257  -0.52898
 Alpha  occ. eigenvalues --   -0.52772  -0.52242  -0.51537  -0.50476  -0.50118
 Alpha  occ. eigenvalues --   -0.50061  -0.49775  -0.49349  -0.48895  -0.48784
 Alpha  occ. eigenvalues --   -0.48595  -0.48548  -0.48295  -0.47557  -0.47293
 Alpha  occ. eigenvalues --   -0.46689  -0.45759  -0.45080  -0.44522  -0.43569
 Alpha  occ. eigenvalues --   -0.40843  -0.40723  -0.39325  -0.37691  -0.37563
 Alpha  occ. eigenvalues --   -0.37237  -0.37206  -0.36856  -0.36010  -0.34693
 Alpha  occ. eigenvalues --   -0.34335  -0.33891  -0.33233  -0.33206  -0.33082
 Alpha  occ. eigenvalues --   -0.32644  -0.32447  -0.32262  -0.31844  -0.30638
 Alpha  occ. eigenvalues --   -0.30249  -0.29568  -0.25612  -0.25202
 Alpha virt. eigenvalues --    0.03074   0.03966   0.07061   0.08090   0.08609
 Alpha virt. eigenvalues --    0.09360   0.09852   0.10436   0.11300   0.12144
 Alpha virt. eigenvalues --    0.12709   0.14388   0.14507   0.14767   0.15028

 Mulliken charges:
               1
     1  N   -0.312677
     2  C    0.180689
     3  C    0.060205
     4  N   -0.258697
     5  C    0.138695
     6  H    0.025626
     7  N   -0.295954
     8  C    0.134191
     9  H    0.010412
    10  N   -0.290566
    11  C    0.250167
    12  C    0.101597
    13  N   -0.052346
    14  H    0.112526
    15  H    0.083061
    16  H    0.024723
    17  H    0.030494
    18  H    0.025197
    19  N   -0.306926
    20  C    0.252186
    21  C    0.180821
    22  N   -0.115686
    23  H    0.114002
    24  H    0.116244
    25  N   -0.309710
    26  C    0.238639
    27  N   -0.147158
    28  H    0.122048
    29  C    0.188837
    30  O   -0.322938
    31  C   -0.014562
    32  N   -0.224744
    33  C    0.129907
    34  H    0.019293
    35  H    0.030125
    36  H    0.028432
    37  H    0.023235
    38  H    0.062594
    39  H    0.058922
    40  H    0.071690
    41  H    0.025693
    42  C   -0.110805
    43  O   -0.267676
    44  C    0.159294
    45  H    0.131302
    46  N   -0.113779
    47  O   -0.340224
    48  C    0.332893
    49  H    0.046688
    50  C    0.166498
    51  C    0.035196
    52  N   -0.276889
    53  H    0.034639
    54  H    0.039983
    55  H    0.027623
    56  H    0.127117
    57  H    0.115172
    58  N   -0.051599
    59  C    0.081073
    60  C    0.249536
    61  N   -0.273871
    62  H    0.038363
    63  C    0.162724
    64  N   -0.303888
    65  H    0.037230
    66  C    0.133092
    67  N   -0.263611
    68  C    0.023258
    69  C    0.180623
    70  N   -0.308249
 Sum of Mulliken charges =  -0.00000

 Dipole moment (field-independent basis, Debye):
    X=              7.7535    Y=              6.5932    Z=              1.9891  Tot=             10.3703
 Quadrupole moment (field-independent basis, Debye-Ang):
   XX=           -152.7945   YY=           -220.8103   ZZ=           -254.5705
   XY=              1.6781   XZ=             -2.8161   YZ=             -6.3053

 Normal termination of Gaussian 16 at Tue Jan 23 09:45:38 2018.
