 Gaussian 16, Revision A.03,
 Gaussian 16:  EM64L-G16RevA.03 25-Dec-2016

 ---------------------------------------
 #p wb97xd/cc-pvdz sp scf=(maxcycles=20)
 ---------------------------------------

 ------------------
 Base pair stacking
 ------------------
 Symbolic Z-matrix:
 Charge =  0 Multiplicity = 1

                         Standard orientation:
 ---------------------------------------------------------------------
 Center     Atomic      Atomic             Coordinates (Angstroms)
 Number     Number       Type             X           Y           Z
 ---------------------------------------------------------------------
      1          7           0       -6.707774   -1.474778    0.361184
      2          6           0       -8.086724   -0.957952    0.458132
      3          6           0       -4.523798   -1.690336    0.506496
      4          7           0       -4.986635   -2.840117   -0.116814
      5          6           0       -6.283874   -2.664231   -0.179413
      6          1           0       -6.985908   -3.376688   -0.613585
      7          7           0       -3.117870   -0.063159    1.475305
      8          6           0       -4.226095    0.649993    1.700821
      9          1           0       -4.069953    1.608498    2.193919
     10          7           0       -5.492280    0.358250    1.410033
     11          6           0       -5.573111   -0.839393    0.807103
     12          6           0       -3.232613   -1.263902    0.866930
     13          7           0       -2.127517   -1.977256    0.640958
     14          1           0       -2.165228   -2.871404    0.193426
     15          1           0       -1.224730   -1.642411    0.911151
     16          1           0       -8.644238   -1.590640    0.995760
     17          1           0       -8.077479   -0.062822    0.902849
     18          1           0       -8.476735   -0.868913   -0.458359
     19          7           0       -2.773961    2.669580   -1.638102
     20          6           0       -1.431035    2.425480   -1.479962
     21          6           0       -3.425648    3.986315   -1.489056
     22          7           0        1.771819    3.570033   -0.777467
     23          1           0        2.693144    3.188255   -0.709356
     24          1           0        1.673451    4.550944   -0.607587
     25          7           0       -0.488767    3.340147   -1.164391
     26          6           0        0.715088    2.801919   -1.082818
     27          7           0        0.978189    1.470086   -1.293783
     28          1           0        1.929614    1.146426   -1.210148
     29          6           0        0.024253    0.511031   -1.619486
     30          8           0        0.366977   -0.665622   -1.789101
     31          6           0       -1.273966    1.074227   -1.710693
     32          7           0       -2.493741    0.481924   -2.007716
     33          6           0       -3.352016    1.464069   -1.953114
     34          1           0       -4.422649    1.363939   -2.134715
     35          1           0       -4.109883    3.941051   -0.762015
     36          1           0       -2.737451    4.671888   -1.255264
     37          1           0       -3.868775    4.239929   -2.348196
     38          1           0        6.749782    0.054604   -0.015741
     39          1           0        6.974460    0.099339   -1.762791
     40          1           0        5.766445    1.136098   -1.003058
     41          1           0        4.956621   -4.237317   -1.244795
     42          6           0        4.664152   -3.187273   -1.255524
     43          8           0        2.356660   -3.642752   -1.563947
     44          6           0        3.284598   -2.846385   -1.424216
     45          1           0        2.059586   -1.211064   -1.539885
     46          7           0        3.023276   -1.491044   -1.423116
     47          8           0        3.604439    0.700375   -1.292258
     48          6           0        3.932529   -0.473029   -1.280116
     49          1           0        6.635712   -2.422976   -0.982398
     50          6           0        5.574315   -2.216668   -1.113619
     51          6           0        6.249578    0.171046   -0.965635
     52          7           0        5.242181   -0.881758   -1.122147
     53          1           0        3.714330    3.036098    4.004736
     54          1           0        2.541796    3.382854    2.924438
     55          1           0        4.110402    3.465683    2.480918
     56          1           0        1.338515   -3.197139    0.753908
     57          1           0        2.957886   -2.967885    1.238875
     58          7           0        2.043144   -2.583320    1.110111
     59          6           0        1.775887   -1.308476    1.400795
     60          6           0        2.302524    0.885282    2.156996
     61          7           0        1.064950    1.374517    1.974015
     62          1           0       -0.772101    0.744276    1.319315
     63          6           0        0.255616    0.430719    1.497458
     64          7           0        0.521390   -0.846706    1.205660
     65          1           0        5.430247    0.907554    2.974925
     66          6           0        4.427606    0.640927    2.639441
     67          7           0        4.075967   -0.547290    2.212624
     68          6           0        2.730903   -0.406127    1.903446
     69          6           0        3.445912    2.973553    3.043457
     70          7           0        3.403921    1.556760    2.632445
 ---------------------------------------------------------------------

 SCF Done:  E(RwB97XD) =  -2048.74540636     A.U. after   15 cycles

 The electronic state is 1-A.
 Alpha  occ. eigenvalues --  -19.26080 -19.22471 -19.20802 -14.52668 -14.51490
 Alpha  occ. eigenvalues --  -14.48833 -14.48833 -14.48127 -14.47118 -14.47047
 Alpha  occ. eigenvalues --  -14.46306 -14.44572 -14.42985 -14.42861 -14.42224
 Alpha  occ. eigenvalues --  -14.42011 -14.41459 -14.40925 -14.40887 -14.40126
 Alpha  occ. eigenvalues --  -10.45731 -10.41454 -10.40589 -10.38467 -10.38405
 Alpha  occ. eigenvalues --  -10.38155 -10.37105 -10.36025 -10.35465 -10.35347
 Alpha  occ. eigenvalues --  -10.34491 -10.34485 -10.34123 -10.33396 -10.33328
 Alpha  occ. eigenvalues --  -10.33264 -10.33098 -10.31488 -10.31369 -10.31064
 Alpha  occ. eigenvalues --  -10.30876 -10.28537 -10.28252  -1.19661  -1.14161
 Alpha  occ. eigenvalues --   -1.13545  -1.13394  -1.11400  -1.10691  -1.09560
 Alpha  occ. eigenvalues --   -1.08780  -1.07850  -1.04949  -1.03434  -1.02802
 Alpha  occ. eigenvalues --   -1.00362  -1.00043  -0.99930  -0.98702  -0.96979
 Alpha  occ. eigenvalues --   -0.96655  -0.95447  -0.92589  -0.91349  -0.86561
 Alpha  occ. eigenvalues --   -0.84996  -0.84219  -0.83984  -0.83884  -0.82559
 Alpha  occ. eigenvalues --   -0.82353  -0.79166  -0.75833  -0.74759  -0.73888
 Alpha  occ. eigenvalues --   -0.73656  -0.73567  -0.72883  -0.71052  -0.69209
 Alpha  occ. eigenvalues --   -0.67594  -0.66835  -0.66279  -0.65555  -0.64717
 Alpha  occ. eigenvalues --   -0.63946  -0.63041  -0.62851  -0.62629  -0.61948
 Alpha  occ. eigenvalues --   -0.60192  -0.59964  -0.59783  -0.59322  -0.58840
 Alpha  occ. eigenvalues --   -0.58630  -0.58420  -0.56695  -0.56502  -0.56466
 Alpha  occ. eigenvalues --   -0.56200  -0.55326  -0.54691  -0.54606  -0.54286
 Alpha  occ. eigenvalues --   -0.53833  -0.53632  -0.53099  -0.52773  -0.52707
 Alpha  occ. eigenvalues --   -0.52470  -0.51785  -0.51734  -0.50794  -0.50359
 Alpha  occ. eigenvalues --   -0.50204  -0.49735  -0.49254  -0.49184  -0.49104
 Alpha  occ. eigenvalues --   -0.48509  -0.48426  -0.47910  -0.47699  -0.47585
 Alpha  occ. eigenvalues --   -0.46968  -0.45521  -0.45052  -0.44394  -0.43266
 Alpha  occ. eigenvalues --   -0.41160  -0.39668  -0.39650  -0.37442  -0.37379
 Alpha  occ. eigenvalues --   -0.37184  -0.36538  -0.36395  -0.36100  -0.34473
 Alpha  occ. eigenvalues --   -0.33716  -0.33692  -0.33488  -0.33323  -0.32900
 Alpha  occ. eigenvalues --   -0.32851  -0.32483  -0.32340  -0.31949  -0.30958
 Alpha  occ. eigenvalues --   -0.30357  -0.28665  -0.25755  -0.25594
 Alpha virt. eigenvalues --    0.02600   0.05170   0.07650   0.07976   0.08708
 Alpha virt. eigenvalues --    0.09194   0.09545   0.10994   0.11365   0.11885
 Alpha virt. eigenvalues --    0.12725   0.13965   0.14574   0.14661   0.15647

 Mulliken charges:
               1
     1  N   -0.311262
     2  C    0.180705
     3  C    0.039980
     4  N   -0.257278
     5  C    0.132066
     6  H    0.026217
     7  N   -0.290567
     8  C    0.129851
     9  H    0.010956
    10  N   -0.290977
    11  C    0.235733
    12  C    0.118529
    13  N   -0.049216
    14  H    0.110204
    15  H    0.090950
    16  H    0.025993
    17  H    0.034078
    18  H    0.024713
    19  N   -0.311340
    20  C    0.249002
    21  C    0.180704
    22  N   -0.121628
    23  H    0.113172
    24  H    0.117122
    25  N   -0.306349
    26  C    0.243418
    27  N   -0.135345
    28  H    0.115335
    29  C    0.165486
    30  O   -0.321369
    31  C    0.001720
    32  N   -0.224116
    33  C    0.130891
    34  H    0.028398
    35  H    0.031612
    36  H    0.028192
    37  H    0.024230
    38  H    0.061072
    39  H    0.060343
    40  H    0.072221
    41  H    0.030675
    42  C   -0.113663
    43  O   -0.277458
    44  C    0.147520
    45  H    0.137922
    46  N   -0.120954
    47  O   -0.350951
    48  C    0.357026
    49  H    0.049760
    50  C    0.185071
    51  C    0.041481
    52  N   -0.288122
    53  H    0.032437
    54  H    0.042124
    55  H    0.020701
    56  H    0.129023
    57  H    0.113035
    58  N   -0.045312
    59  C    0.096526
    60  C    0.240577
    61  N   -0.268170
    62  H    0.041228
    63  C    0.162871
    64  N   -0.299334
    65  H    0.029361
    66  C    0.130556
    67  N   -0.266952
    68  C    0.012888
    69  C    0.179124
    70  N   -0.312440
 Sum of Mulliken charges =  -0.00000

 Dipole moment (field-independent basis, Debye):
    X=              7.9029    Y=              6.1400    Z=              1.8363  Tot=             10.1748
 Quadrupole moment (field-independent basis, Debye-Ang):
   XX=           -145.3493   YY=           -221.8467   ZZ=           -251.3269
   XY=              4.6058   XZ=             11.2723   YZ=             -4.2917

 Normal termination of Gaussian 16 at Tue Jan 23 02:45:30 2018.
