 Gaussian 16, Revision A.03,
 Gaussian 16:  EM64L-G16RevA.03 25-Dec-2016

 ---------------------------------------
 #p wb97xd/cc-pvdz sp scf=(maxcycles=20)
 ---------------------------------------

 ------------------
 Base pair stacking
 ------------------
 Symbolic Z-matrix:
 Charge =  0 Multiplicity = 1

                         Standard orientation:
 ---------------------------------------------------------------------
 Center     Atomic      Atomic             Coordinates (Angstroms)
 Number     Number       Type             X           Y           Z
 ---------------------------------------------------------------------
      1          7           0        4.563546   -1.999202   -1.739315
      2          6           0        5.930977   -1.597133   -2.122020
      3          6           0        2.389736   -2.020642   -1.405525
      4          7           0        2.866424   -3.236091   -0.936305
      5          6           0        4.156990   -3.174537   -1.156172
      6          1           0        4.866213   -3.965427   -0.910373
      7          7           0        0.966711   -0.232258   -1.988284
      8          6           0        2.061683    0.394772   -2.430362
      9          1           0        1.893234    1.387146   -2.846400
     10          7           0        3.327564   -0.018054   -2.435661
     11          6           0        3.424157   -1.247630   -1.903468
     12          6           0        1.097144   -1.468076   -1.458358
     13          7           0        0.005276   -2.095601   -1.016525
     14          1           0        0.054838   -3.011542   -0.616740
     15          1           0       -0.898979   -1.671819   -1.070040
     16          1           0        6.296402   -2.246448   -2.789134
     17          1           0        5.909789   -0.682789   -2.525327
     18          1           0        6.517221   -1.588771   -1.311935
     19          7           0        5.074236    2.279113    0.762000
     20          6           0        3.713145    2.164279    0.911314
     21          6           0        5.792640    3.520076    0.408992
     22          7           0        0.550413    3.598348    0.863148
     23          1           0       -0.393733    3.307599    1.015757
     24          1           0        0.696648    4.559312    0.626732
     25          7           0        2.810613    3.157827    0.761832
     26          6           0        1.575035    2.738961    0.970455
     27          7           0        1.246344    1.446424    1.300334
     28          1           0        0.274762    1.216003    1.441409
     29          6           0        2.158455    0.407869    1.459412
     30          8           0        1.757251   -0.723665    1.758414
     31          6           0        3.490046    0.842539    1.238453
     32          7           0        4.686992    0.141678    1.293415
     33          6           0        5.596779    1.032216    1.004569
     34          1           0        6.667660    0.832230    0.954539
     35          1           0        6.292683    3.386031   -0.445877
     36          1           0        5.134306    4.263063    0.295707
     37          1           0        6.435367    3.753894    1.137704
     38          1           0       -4.768291    0.570829    1.377127
     39          1           0       -4.597002    0.689035    3.126799
     40          1           0       -3.498202    1.578560    2.071923
     41          1           0       -3.141397   -3.839081    2.403009
     42          6           0       -2.760590   -2.823212    2.297094
     43          8           0       -0.492440   -3.495062    2.120444
     44          6           0       -1.352899   -2.615411    2.145252
     45          1           0        0.009363   -1.106381    1.909946
     46          7           0       -0.977508   -1.293137    2.019168
     47          8           0       -1.373811    0.940161    1.907089
     48          6           0       -1.800609   -0.194952    2.025559
     49          1           0       -4.666932   -1.876309    2.419743
     50          6           0       -3.588601   -1.772071    2.307140
     51          6           0       -4.062426    0.665264    2.188860
     52          7           0       -3.144146   -0.476818    2.176125
     53          1           0       -5.928606    3.562222   -2.847882
     54          1           0       -4.522243    3.752120   -2.042788
     55          1           0       -5.942253    3.945038   -1.261480
     56          1           0       -3.501761   -3.009118   -0.399725
     57          1           0       -5.158818   -2.618472   -0.507705
     58          7           0       -4.205876   -2.320165   -0.572054
     59          6           0       -3.889232   -1.059382   -0.874296
     60          6           0       -4.358430    1.207130   -1.426116
     61          7           0       -3.070198    1.579383   -1.505612
     62          1           0       -1.202566    0.762506   -1.292865
     63          6           0       -2.269294    0.546980   -1.249458
     64          7           0       -2.584507   -0.716528   -0.946545
     65          1           0       -7.572775    1.537095   -1.532137
     66          6           0       -6.550892    1.169354   -1.434884
     67          7           0       -6.228519   -0.064799   -1.133853
     68          6           0       -4.841241   -0.054521   -1.125018
     69          6           0       -5.465079    3.427789   -1.972061
     70          7           0       -5.468495    1.993312   -1.625260
 ---------------------------------------------------------------------

 SCF Done:  E(RwB97XD) =  -2048.74788941     A.U. after   15 cycles

 The electronic state is 1-A.
 Alpha  occ. eigenvalues --  -19.25595 -19.21761 -19.20676 -14.52543 -14.52174
 Alpha  occ. eigenvalues --  -14.49106 -14.48599 -14.47940 -14.47458 -14.46957
 Alpha  occ. eigenvalues --  -14.46788 -14.45527 -14.44737 -14.44564 -14.42320
 Alpha  occ. eigenvalues --  -14.42172 -14.41349 -14.40634 -14.40515 -14.40195
 Alpha  occ. eigenvalues --  -10.45178 -10.41383 -10.40314 -10.39882 -10.38340
 Alpha  occ. eigenvalues --  -10.38093 -10.37748 -10.37415 -10.36093 -10.35259
 Alpha  occ. eigenvalues --  -10.34709 -10.34607 -10.33888 -10.33756 -10.33297
 Alpha  occ. eigenvalues --  -10.32920 -10.32812 -10.32802 -10.31197 -10.30815
 Alpha  occ. eigenvalues --  -10.30227 -10.28366 -10.28019  -1.19127  -1.15334
 Alpha  occ. eigenvalues --   -1.13332  -1.12782  -1.10840  -1.10582  -1.09713
 Alpha  occ. eigenvalues --   -1.09011  -1.08680  -1.05156  -1.04806  -1.02138
 Alpha  occ. eigenvalues --   -1.01109  -1.00229  -0.99868  -0.98724  -0.97200
 Alpha  occ. eigenvalues --   -0.96883  -0.96251  -0.92508  -0.90869  -0.87816
 Alpha  occ. eigenvalues --   -0.85993  -0.84389  -0.83328  -0.83278  -0.82757
 Alpha  occ. eigenvalues --   -0.81704  -0.78653  -0.77280  -0.75079  -0.74845
 Alpha  occ. eigenvalues --   -0.73777  -0.73068  -0.72501  -0.70719  -0.70578
 Alpha  occ. eigenvalues --   -0.67557  -0.67076  -0.66298  -0.65903  -0.64504
 Alpha  occ. eigenvalues --   -0.64452  -0.63746  -0.62765  -0.62351  -0.61954
 Alpha  occ. eigenvalues --   -0.60794  -0.60456  -0.60219  -0.59478  -0.59335
 Alpha  occ. eigenvalues --   -0.59131  -0.58500  -0.56902  -0.56209  -0.55884
 Alpha  occ. eigenvalues --   -0.55565  -0.55438  -0.55190  -0.54569  -0.54238
 Alpha  occ. eigenvalues --   -0.53793  -0.53674  -0.53604  -0.53145  -0.52981
 Alpha  occ. eigenvalues --   -0.52748  -0.52124  -0.51204  -0.50372  -0.50235
 Alpha  occ. eigenvalues --   -0.50080  -0.49703  -0.49500  -0.49311  -0.48958
 Alpha  occ. eigenvalues --   -0.48518  -0.48391  -0.48192  -0.47990  -0.47309
 Alpha  occ. eigenvalues --   -0.46492  -0.45745  -0.45581  -0.44516  -0.43274
 Alpha  occ. eigenvalues --   -0.40882  -0.40853  -0.39240  -0.37970  -0.37794
 Alpha  occ. eigenvalues --   -0.37525  -0.37453  -0.36640  -0.35660  -0.35066
 Alpha  occ. eigenvalues --   -0.34610  -0.34144  -0.33231  -0.33061  -0.32894
 Alpha  occ. eigenvalues --   -0.32773  -0.32637  -0.32029  -0.31949  -0.30392
 Alpha  occ. eigenvalues --   -0.30147  -0.30032  -0.25795  -0.25414
 Alpha virt. eigenvalues --    0.03115   0.03820   0.06576   0.08358   0.08858
 Alpha virt. eigenvalues --    0.09060   0.09611   0.10388   0.11320   0.11637
 Alpha virt. eigenvalues --    0.13438   0.14155   0.14412   0.14924   0.14974

 Mulliken charges:
               1
     1  N   -0.309040
     2  C    0.181891
     3  C    0.055461
     4  N   -0.255433
     5  C    0.147629
     6  H    0.026546
     7  N   -0.297199
     8  C    0.129450
     9  H    0.009821
    10  N   -0.284058
    11  C    0.251558
    12  C    0.089218
    13  N   -0.066605
    14  H    0.116325
    15  H    0.084482
    16  H    0.021886
    17  H    0.029285
    18  H    0.027537
    19  N   -0.310389
    20  C    0.259791
    21  C    0.181474
    22  N   -0.124304
    23  H    0.119364
    24  H    0.118470
    25  N   -0.312922
    26  C    0.249890
    27  N   -0.145901
    28  H    0.120124
    29  C    0.193305
    30  O   -0.320255
    31  C   -0.014419
    32  N   -0.230495
    33  C    0.122437
    34  H    0.021921
    35  H    0.027662
    36  H    0.030458
    37  H    0.024897
    38  H    0.067996
    39  H    0.058858
    40  H    0.075162
    41  H    0.023997
    42  C   -0.127398
    43  O   -0.266332
    44  C    0.170616
    45  H    0.132573
    46  N   -0.124171
    47  O   -0.350389
    48  C    0.353075
    49  H    0.041780
    50  C    0.174498
    51  C    0.035681
    52  N   -0.277516
    53  H    0.034266
    54  H    0.041655
    55  H    0.029287
    56  H    0.121137
    57  H    0.116467
    58  N   -0.060558
    59  C    0.093618
    60  C    0.243812
    61  N   -0.270075
    62  H    0.032692
    63  C    0.174846
    64  N   -0.315168
    65  H    0.039460
    66  C    0.137259
    67  N   -0.259971
    68  C    0.010923
    69  C    0.180737
    70  N   -0.308677
 Sum of Mulliken charges =  -0.00000

 Dipole moment (field-independent basis, Debye):
    X=             -7.6648    Y=              7.2902    Z=             -0.7787  Tot=             10.6067
 Quadrupole moment (field-independent basis, Debye-Ang):
   XX=           -158.9210   YY=           -220.5027   ZZ=           -251.6745
   XY=              1.5501   XZ=            -13.8684   YZ=              5.6054

 Normal termination of Gaussian 16 at Mon Jan 22 23:27:27 2018.
