 Gaussian 16, Revision A.03,
 Gaussian 16:  EM64L-G16RevA.03 25-Dec-2016

 ---------------------------------------
 #p wb97xd/cc-pvdz sp scf=(maxcycles=20)
 ---------------------------------------

 ------------------
 Base pair stacking
 ------------------
 Symbolic Z-matrix:
 Charge =  0 Multiplicity = 1

                         Standard orientation:
 ---------------------------------------------------------------------
 Center     Atomic      Atomic             Coordinates (Angstroms)
 Number     Number       Type             X           Y           Z
 ---------------------------------------------------------------------
      1          7           0       -6.144999   -1.638945    0.759492
      2          6           0       -7.526930   -1.140794    0.901272
      3          6           0       -3.953103   -1.813403    0.809277
      4          7           0       -4.423947   -2.994752    0.254805
      5          6           0       -5.725638   -2.842361    0.246995
      6          1           0       -6.434350   -3.582984   -0.124693
      7          7           0       -2.532730   -0.125996    1.644812
      8          6           0       -3.641772    0.577845    1.894255
      9          1           0       -3.479902    1.557913    2.340933
     10          7           0       -4.914760    0.254308    1.675789
     11          6           0       -5.002264   -0.967918    1.125404
     12          6           0       -2.654293   -1.352073    1.090718
     13          7           0       -1.548391   -2.056187    0.840973
     14          1           0       -1.591002   -2.968220    0.431588
     15          1           0       -0.640083   -1.696246    1.054450
     16          1           0       -8.047219   -1.760041    1.489493
     17          1           0       -7.512919   -0.228351    1.309171
     18          1           0       -7.960993   -1.095214    0.001549
     19          7           0       -3.440431    2.593789   -1.469898
     20          6           0       -2.085451    2.383667   -1.380743
     21          6           0       -4.121418    3.883393   -1.237820
     22          7           0        1.112307    3.593921   -0.771337
     23          1           0        2.046092    3.237352   -0.759411
     24          1           0        0.994198    4.563786   -0.556583
     25          7           0       -1.156006    3.312527   -1.068658
     26          6           0        0.064905    2.807596   -1.062129
     27          7           0        0.355501    1.493817   -1.339701
     28          1           0        1.318417    1.195581   -1.311171
     29          6           0       -0.584805    0.520685   -1.663251
     30          8           0       -0.217187   -0.637401   -1.896563
     31          6           0       -1.901079    1.048131   -1.674244
     32          7           0       -3.115859    0.432196   -1.942281
     33          6           0       -3.998003    1.385285   -1.809429
     34          1           0       -5.072466    1.260686   -1.948227
     35          1           0       -4.770891    3.788390   -0.484177
     36          1           0       -3.442929    4.579178   -1.005851
     37          1           0       -4.609491    4.158190   -2.065519
     38          1           0        6.215914    0.200639   -0.374483
     39          1           0        6.360828    0.322641   -2.126277
     40          1           0        5.159453    1.291346   -1.272057
     41          1           0        4.490475   -4.089668   -1.702159
     42          6           0        4.168522   -3.049249   -1.656339
     43          8           0        1.863206   -3.560513   -1.882656
     44          6           0        2.773793   -2.743121   -1.750393
     45          1           0        1.499497   -1.141736   -1.744283
     46          7           0        2.474912   -1.397337   -1.681398
     47          8           0        2.999726    0.803373   -1.484710
     48          6           0        3.360770   -0.359257   -1.535814
     49          1           0        6.128143   -2.238134   -1.437729
     50          6           0        5.056573   -2.058456   -1.513864
     51          6           0        5.670618    0.340415   -1.295998
     52          7           0        4.687119   -0.734790   -1.452243
     53          1           0        4.353814    3.182286    3.721627
     54          1           0        3.125942    3.466170    2.685368
     55          1           0        4.670302    3.556104    2.164863
     56          1           0        1.940439   -3.214774    0.837395
     57          1           0        3.576377   -2.940138    1.235356
     58          7           0        2.649860   -2.575812    1.135048
     59          6           0        2.373707   -1.294688    1.387278
     60          6           0        2.895783    0.936047    2.029916
     61          7           0        1.642421    1.397571    1.886685
     62          1           0       -0.211696    0.711968    1.345575
     63          6           0        0.828702    0.422390    1.486974
     64          7           0        1.103365   -0.861374    1.233821
     65          1           0        6.057488    1.041572    2.696724
     66          6           0        5.045162    0.745531    2.420135
     67          7           0        4.695280   -0.464481    2.058010
     68          6           0        3.334885   -0.357529    1.807758
     69          6           0        4.041832    3.076569    2.777444
     70          7           0        4.006020    1.643802    2.425444
 ---------------------------------------------------------------------

 SCF Done:  E(RwB97XD) =  -2048.74971586     A.U. after   15 cycles

 The electronic state is 1-A.
 Alpha  occ. eigenvalues --  -19.25972 -19.22339 -19.20671 -14.52507 -14.52060
 Alpha  occ. eigenvalues --  -14.48735 -14.48583 -14.47882 -14.47342 -14.46975
 Alpha  occ. eigenvalues --  -14.46715 -14.45159 -14.43732 -14.43678 -14.42057
 Alpha  occ. eigenvalues --  -14.41997 -14.41162 -14.40830 -14.40777 -14.40043
 Alpha  occ. eigenvalues --  -10.45582 -10.41251 -10.40437 -10.39313 -10.38259
 Alpha  occ. eigenvalues --  -10.37952 -10.37659 -10.36704 -10.35230 -10.35208
 Alpha  occ. eigenvalues --  -10.35121 -10.34326 -10.33850 -10.33695 -10.33291
 Alpha  occ. eigenvalues --  -10.33136 -10.32946 -10.32161 -10.31243 -10.30925
 Alpha  occ. eigenvalues --  -10.30813 -10.28278 -10.28089  -1.19534  -1.14769
 Alpha  occ. eigenvalues --   -1.13358  -1.13237  -1.11133  -1.10574  -1.09402
 Alpha  occ. eigenvalues --   -1.08673  -1.08591  -1.04812  -1.04223  -1.02613
 Alpha  occ. eigenvalues --   -1.00566  -1.00229  -0.99783  -0.98569  -0.96778
 Alpha  occ. eigenvalues --   -0.96558  -0.96212  -0.92474  -0.91185  -0.87184
 Alpha  occ. eigenvalues --   -0.85557  -0.84084  -0.83767  -0.83636  -0.82454
 Alpha  occ. eigenvalues --   -0.82161  -0.78983  -0.76524  -0.74625  -0.74283
 Alpha  occ. eigenvalues --   -0.73691  -0.73468  -0.72708  -0.70872  -0.69902
 Alpha  occ. eigenvalues --   -0.67407  -0.66637  -0.66255  -0.66108  -0.64543
 Alpha  occ. eigenvalues --   -0.63828  -0.63700  -0.62711  -0.62522  -0.61766
 Alpha  occ. eigenvalues --   -0.60273  -0.60150  -0.59967  -0.59564  -0.59062
 Alpha  occ. eigenvalues --   -0.59006  -0.58404  -0.56618  -0.56386  -0.56252
 Alpha  occ. eigenvalues --   -0.56059  -0.55276  -0.54902  -0.54539  -0.54416
 Alpha  occ. eigenvalues --   -0.53698  -0.53650  -0.53125  -0.53045  -0.52981
 Alpha  occ. eigenvalues --   -0.52476  -0.52336  -0.51641  -0.50606  -0.50216
 Alpha  occ. eigenvalues --   -0.50070  -0.49562  -0.49467  -0.48992  -0.48947
 Alpha  occ. eigenvalues --   -0.48663  -0.48375  -0.48165  -0.47631  -0.47453
 Alpha  occ. eigenvalues --   -0.46790  -0.45636  -0.44782  -0.44336  -0.43971
 Alpha  occ. eigenvalues --   -0.40949  -0.40288  -0.39527  -0.37305  -0.37298
 Alpha  occ. eigenvalues --   -0.37234  -0.37010  -0.36979  -0.36103  -0.34428
 Alpha  occ. eigenvalues --   -0.34038  -0.33813  -0.33490  -0.33261  -0.33210
 Alpha  occ. eigenvalues --   -0.32678  -0.32427  -0.32184  -0.31874  -0.30747
 Alpha  occ. eigenvalues --   -0.30262  -0.29434  -0.25623  -0.25298
 Alpha virt. eigenvalues --    0.02726   0.04595   0.07274   0.08190   0.08670
 Alpha virt. eigenvalues --    0.09192   0.09750   0.10892   0.11227   0.11769
 Alpha virt. eigenvalues --    0.12869   0.14426   0.14575   0.14700   0.15208

 Mulliken charges:
               1
     1  N   -0.312566
     2  C    0.180566
     3  C    0.053920
     4  N   -0.258285
     5  C    0.133811
     6  H    0.025547
     7  N   -0.292559
     8  C    0.134064
     9  H    0.009844
    10  N   -0.292509
    11  C    0.240171
    12  C    0.112201
    13  N   -0.050028
    14  H    0.111822
    15  H    0.088873
    16  H    0.025500
    17  H    0.032384
    18  H    0.024430
    19  N   -0.310151
    20  C    0.252060
    21  C    0.180256
    22  N   -0.114851
    23  H    0.112762
    24  H    0.115999
    25  N   -0.308857
    26  C    0.239626
    27  N   -0.144317
    28  H    0.119787
    29  C    0.178297
    30  O   -0.322826
    31  C   -0.004264
    32  N   -0.225907
    33  C    0.132316
    34  H    0.023155
    35  H    0.031390
    36  H    0.028109
    37  H    0.023575
    38  H    0.061089
    39  H    0.059201
    40  H    0.070681
    41  H    0.028211
    42  C   -0.116662
    43  O   -0.270643
    44  C    0.154101
    45  H    0.134828
    46  N   -0.115388
    47  O   -0.343777
    48  C    0.341205
    49  H    0.049049
    50  C    0.177482
    51  C    0.039837
    52  N   -0.282224
    53  H    0.034084
    54  H    0.040905
    55  H    0.024670
    56  H    0.128586
    57  H    0.115497
    58  N   -0.055713
    59  C    0.085367
    60  C    0.250035
    61  N   -0.272511
    62  H    0.038601
    63  C    0.163014
    64  N   -0.301275
    65  H    0.034150
    66  C    0.133052
    67  N   -0.264550
    68  C    0.017673
    69  C    0.179030
    70  N   -0.310949
 Sum of Mulliken charges =  -0.00000

 Dipole moment (field-independent basis, Debye):
    X=              7.8127    Y=              6.3795    Z=              2.0631  Tot=             10.2953
 Quadrupole moment (field-independent basis, Debye-Ang):
   XX=           -149.4820   YY=           -221.2379   ZZ=           -253.3660
   XY=              3.2463   XZ=              4.9750   YZ=             -4.8702

 Normal termination of Gaussian 16 at Mon Jan 22 20:56:13 2018.
