 Gaussian 16, Revision A.03,
 Gaussian 16:  EM64L-G16RevA.03 25-Dec-2016

 ---------------------------------------
 #p wb97xd/cc-pvdz sp scf=(maxcycles=20)
 ---------------------------------------

 ------------------
 Base pair stacking
 ------------------
 Symbolic Z-matrix:
 Charge =  0 Multiplicity = 1

                         Standard orientation:
 ---------------------------------------------------------------------
 Center     Atomic      Atomic             Coordinates (Angstroms)
 Number     Number       Type             X           Y           Z
 ---------------------------------------------------------------------
      1          7           0        5.494963   -1.552576   -1.236210
      2          6           0        6.876700   -1.038404   -1.169596
      3          6           0        3.302777   -1.693954   -1.344043
      4          7           0        3.774900   -2.998209   -1.316592
      5          6           0        5.076719   -2.860827   -1.252726
      6          1           0        5.786324   -3.687865   -1.215063
      7          7           0        1.880408    0.185952   -1.420248
      8          6           0        2.988988    0.931524   -1.367854
      9          1           0        2.826114    2.008379   -1.379306
     10          7           0        4.262578    0.548414   -1.303733
     11          6           0        4.351322   -0.791907   -1.295110
     12          6           0        2.003234   -1.159371   -1.409921
     13          7           0        0.897786   -1.905321   -1.462162
     14          1           0        0.941309   -2.904971   -1.456842
     15          1           0       -0.011072   -1.490617   -1.508365
     16          1           0        7.394302   -1.366326   -1.959990
     17          1           0        6.861778   -0.038954   -1.173497
     18          1           0        7.314221   -1.360254   -0.329970
     19          7           0        4.178396    2.167360    1.242991
     20          6           0        2.816455    1.998779    1.174112
     21          6           0        4.902307    3.411644    0.913761
     22          7           0       -0.340962    3.271851    0.487249
     23          1           0       -1.286600    2.948292    0.504851
     24          1           0       -0.190570    4.218462    0.200836
     25          7           0        1.917937    2.933981    0.797128
     26          6           0        0.680242    2.473004    0.832049
     27          7           0        0.345918    1.194316    1.207158
     28          1           0       -0.626905    0.928674    1.203970
     29          6           0        1.253819    0.215451    1.598809
     30          8           0        0.847656   -0.908642    1.918496
     31          6           0        2.587620    0.695864    1.566359
     32          7           0        3.781864    0.059286    1.875284
     33          6           0        4.695726    0.968491    1.669281
     34          1           0        5.766028    0.816948    1.813391
     35          1           0        5.543652    3.238507    0.167101
     36          1           0        4.246995    4.111701    0.633114
     37          1           0        5.404462    3.729629    1.717205
     38          1           0       -5.561369    0.039248    0.359714
     39          1           0       -5.691671    0.295423    2.098112
     40          1           0       -4.462477    1.155675    1.170522
     41          1           0       -3.977916   -4.198931    1.995909
     42          6           0       -3.620357   -3.176652    1.872066
     43          8           0       -1.332862   -3.750164    2.128044
     44          6           0       -2.215328   -2.913423    1.938592
     45          1           0       -0.886341   -1.362450    1.809657
     46          7           0       -1.870390   -1.587697    1.769083
     47          8           0       -2.319745    0.609453    1.411630
     48          6           0       -2.720577   -0.532857    1.549919
     49          1           0       -5.551946   -2.315823    1.600425
     50          6           0       -4.474358   -2.168628    1.659504
     51          6           0       -5.006146    0.227588    1.266536
     52          7           0       -4.059610   -0.866891    1.498769
     53          1           0       -5.011671    4.045374   -1.955361
     54          1           0       -3.779651    3.886934   -0.897471
     55          1           0       -5.321951    3.757243   -0.379237
     56          1           0       -2.591815   -2.969478   -1.914365
     57          1           0       -4.229068   -2.558805   -2.161047
     58          7           0       -3.301917   -2.265367   -1.925443
     59          6           0       -3.025824   -0.991453   -1.638936
     60          6           0       -3.548782    1.308117   -1.322349
     61          7           0       -2.294562    1.673392   -1.009407
     62          1           0       -0.438874    0.829166   -0.798874
     63          6           0       -1.479999    0.620597   -1.041383
     64          7           0       -1.754606   -0.656102   -1.328112
     65          1           0       -6.712927    1.671500   -1.877548
     66          6           0       -5.699768    1.289793   -1.748158
     67          7           0       -5.349356    0.037027   -1.907759
     68          6           0       -3.987944    0.034832   -1.640776
     69          6           0       -4.696163    3.567053   -1.135809
     70          7           0       -4.660023    2.114383   -1.393595
 ---------------------------------------------------------------------

 SCF Done:  E(RwB97XD) =  -2048.73419741     A.U. after   15 cycles

 The electronic state is 1-A.
 Alpha  occ. eigenvalues --  -19.25275 -19.21486 -19.20404 -14.53052 -14.51925
 Alpha  occ. eigenvalues --  -14.48740 -14.48669 -14.48181 -14.47345 -14.46424
 Alpha  occ. eigenvalues --  -14.45982 -14.45586 -14.44710 -14.44668 -14.42693
 Alpha  occ. eigenvalues --  -14.41568 -14.41321 -14.40980 -14.40549 -14.40243
 Alpha  occ. eigenvalues --  -10.44894 -10.40747 -10.40492 -10.39614 -10.38505
 Alpha  occ. eigenvalues --  -10.37926 -10.37711 -10.37360 -10.36130 -10.35609
 Alpha  occ. eigenvalues --  -10.34533 -10.34276 -10.33996 -10.33840 -10.33337
 Alpha  occ. eigenvalues --  -10.33126 -10.32991 -10.32983 -10.31037 -10.30664
 Alpha  occ. eigenvalues --  -10.30409 -10.28480 -10.27690  -1.19096  -1.15787
 Alpha  occ. eigenvalues --   -1.12869  -1.12538  -1.11253  -1.10184  -1.09780
 Alpha  occ. eigenvalues --   -1.08868  -1.08119  -1.05316  -1.05148  -1.01991
 Alpha  occ. eigenvalues --   -1.01570  -1.00651  -0.99072  -0.98231  -0.97358
 Alpha  occ. eigenvalues --   -0.96929  -0.96175  -0.92853  -0.90597  -0.88205
 Alpha  occ. eigenvalues --   -0.86487  -0.83989  -0.83631  -0.83104  -0.82357
 Alpha  occ. eigenvalues --   -0.82055  -0.78427  -0.77555  -0.75514  -0.74201
 Alpha  occ. eigenvalues --   -0.73170  -0.73007  -0.72871  -0.71168  -0.70945
 Alpha  occ. eigenvalues --   -0.67410  -0.66842  -0.66449  -0.66051  -0.64850
 Alpha  occ. eigenvalues --   -0.64086  -0.63419  -0.62893  -0.62541  -0.61264
 Alpha  occ. eigenvalues --   -0.61095  -0.60968  -0.60732  -0.59912  -0.59212
 Alpha  occ. eigenvalues --   -0.58842  -0.57746  -0.57114  -0.56531  -0.56077
 Alpha  occ. eigenvalues --   -0.55954  -0.55749  -0.55613  -0.54455  -0.54435
 Alpha  occ. eigenvalues --   -0.53807  -0.53700  -0.53370  -0.53182  -0.52958
 Alpha  occ. eigenvalues --   -0.52536  -0.52004  -0.51863  -0.50928  -0.50261
 Alpha  occ. eigenvalues --   -0.50035  -0.49690  -0.49379  -0.49056  -0.48890
 Alpha  occ. eigenvalues --   -0.48375  -0.48242  -0.47932  -0.47159  -0.47045
 Alpha  occ. eigenvalues --   -0.46980  -0.45612  -0.44547  -0.44491  -0.43278
 Alpha  occ. eigenvalues --   -0.41464  -0.40750  -0.39212  -0.38159  -0.38058
 Alpha  occ. eigenvalues --   -0.37809  -0.36969  -0.36507  -0.35818  -0.35084
 Alpha  occ. eigenvalues --   -0.34813  -0.33741  -0.33527  -0.33101  -0.32731
 Alpha  occ. eigenvalues --   -0.32345  -0.32123  -0.31911  -0.31584  -0.30855
 Alpha  occ. eigenvalues --   -0.30507  -0.29808  -0.25853  -0.24865
 Alpha virt. eigenvalues --    0.03140   0.03795   0.06346   0.07624   0.09259
 Alpha virt. eigenvalues --    0.09317   0.09611   0.10233   0.11388   0.12234
 Alpha virt. eigenvalues --    0.12554   0.14029   0.14353   0.14613   0.15190

 Mulliken charges:
               1
     1  N   -0.313351
     2  C    0.180566
     3  C    0.059402
     4  N   -0.262272
     5  C    0.138443
     6  H    0.026411
     7  N   -0.290377
     8  C    0.142294
     9  H    0.011987
    10  N   -0.286590
    11  C    0.257020
    12  C    0.093622
    13  N   -0.055492
    14  H    0.107637
    15  H    0.082195
    16  H    0.025377
    17  H    0.028125
    18  H    0.028224
    19  N   -0.276776
    20  C    0.193590
    21  C    0.181499
    22  N   -0.094616
    23  H    0.109479
    24  H    0.110558
    25  N   -0.293892
    26  C    0.211888
    27  N   -0.140528
    28  H    0.118280
    29  C    0.183310
    30  O   -0.322594
    31  C   -0.001144
    32  N   -0.219986
    33  C    0.125289
    34  H    0.014345
    35  H    0.025721
    36  H    0.026704
    37  H    0.022266
    38  H    0.063827
    39  H    0.055287
    40  H    0.071106
    41  H    0.027698
    42  C   -0.111818
    43  O   -0.265038
    44  C    0.175508
    45  H    0.130618
    46  N   -0.123098
    47  O   -0.332521
    48  C    0.332173
    49  H    0.045635
    50  C    0.165720
    51  C    0.037010
    52  N   -0.280777
    53  H    0.037108
    54  H    0.035787
    55  H    0.030782
    56  H    0.122202
    57  H    0.118488
    58  N   -0.060536
    59  C    0.094073
    60  C    0.236501
    61  N   -0.272143
    62  H    0.052043
    63  C    0.150782
    64  N   -0.298243
    65  H    0.038422
    66  C    0.123664
    67  N   -0.253807
    68  C    0.021017
    69  C    0.182101
    70  N   -0.296185
 Sum of Mulliken charges =  -0.00000

 Dipole moment (field-independent basis, Debye):
    X=             -7.6579    Y=              6.3764    Z=             -3.3902  Tot=             10.5260
 Quadrupole moment (field-independent basis, Debye-Ang):
   XX=           -152.5533   YY=           -224.5497   ZZ=           -256.8433
   XY=             -1.9398   XZ=             -4.0476   YZ=             13.2994

 Normal termination of Gaussian 16 at Tue Jan 23 05:17:21 2018.
