 Gaussian 16, Revision A.03,
 Gaussian 16:  EM64L-G16RevA.03 25-Dec-2016

 ---------------------------------------
 #p wb97xd/cc-pvdz sp scf=(maxcycles=20)
 ---------------------------------------

 ------------------
 Base pair stacking
 ------------------
 Symbolic Z-matrix:
 Charge =  0 Multiplicity = 1

                         Standard orientation:
 ---------------------------------------------------------------------
 Center     Atomic      Atomic             Coordinates (Angstroms)
 Number     Number       Type             X           Y           Z
 ---------------------------------------------------------------------
      1          7           0       -6.654616   -1.428968    0.461186
      2          6           0       -8.019732   -0.875202    0.372814
      3          6           0       -4.481668   -1.644480    0.724257
      4          7           0       -4.963742   -2.910358    0.424435
      5          6           0       -6.253557   -2.729848    0.277947
      6          1           0       -6.966142   -3.518243    0.033782
      7          7           0       -3.050998    0.154219    1.254151
      8          6           0       -4.142731    0.925978    1.243927
      9          1           0       -3.969811    1.979056    1.461576
     10          7           0       -5.410036    0.593744    1.006333
     11          6           0       -5.512210   -0.720988    0.750449
     12          6           0       -3.187020   -1.164231    0.992867
     13          7           0       -2.098404   -1.936229    1.002610
     14          1           0       -2.152121   -2.917581    0.814756
     15          1           0       -1.192528   -1.560202    1.197907
     16          1           0       -8.607410   -1.324576    1.045781
     17          1           0       -7.994376    0.106945    0.556865
     18          1           0       -8.386300   -1.031376   -0.544365
     19          7           0       -2.881599    2.402466   -1.640972
     20          6           0       -1.538857    2.187928   -1.443312
     21          6           0       -3.576321    3.692372   -1.456048
     22          7           0        1.601390    3.385009   -0.567200
     23          1           0        2.530306    3.025751   -0.481817
     24          1           0        1.468371    4.353719   -0.355965
     25          7           0       -0.635818    3.112025   -1.050106
     26          6           0        0.579373    2.603631   -0.947776
     27          7           0        0.888653    1.290964   -1.210001
     28          1           0        1.845372    0.989825   -1.105293
     29          6           0       -0.024395    0.322706   -1.615830
     30          8           0        0.358391   -0.834794   -1.826566
     31          6           0       -1.334203    0.853916   -1.730208
     32          7           0       -2.524516    0.243230   -2.100533
     33          6           0       -3.412401    1.197876   -2.033229
     34          1           0       -4.472278    1.077247   -2.259891
     35          1           0       -4.285203    3.594055   -0.758450
     36          1           0       -2.917410    4.384644   -1.164754
     37          1           0       -3.994781    3.974173   -2.318768
     38          1           0        6.648112   -0.025231    0.219873
     39          1           0        6.935426    0.108297   -1.513410
     40          1           0        5.670682    1.074528   -0.753031
     41          1           0        5.026844   -4.301527   -1.273906
     42          6           0        4.704571   -3.260543   -1.247134
     43          8           0        2.424176   -3.763772   -1.663903
     44          6           0        3.322812   -2.949871   -1.452240
     45          1           0        2.055850   -1.344981   -1.538624
     46          7           0        3.022335   -1.603735   -1.398354
     47          8           0        3.534340    0.594089   -1.144168
     48          6           0        3.895736   -0.569169   -1.173874
     49          1           0        6.641710   -2.456450   -0.864079
     50          6           0        5.580297   -2.273240   -1.025907
     51          6           0        6.179954    0.122343   -0.741958
     52          7           0        5.210028   -0.949006   -0.985273
     53          1           0        3.810160    3.675944    3.044221
     54          1           0        2.672801    3.740042    1.876136
     55          1           0        4.252720    3.664131    1.473419
     56          1           0        1.327161   -3.154574    1.546133
     57          1           0        2.941224   -2.837135    1.997947
     58          7           0        2.041209   -2.482416    1.742267
     59          6           0        1.804796   -1.171104    1.666538
     60          6           0        2.378073    1.133685    1.811579
     61          7           0        1.159722    1.581355    1.465695
     62          1           0       -0.679762    0.836690    0.953479
     63          6           0        0.334108    0.561249    1.240628
     64          7           0        0.568996   -0.752807    1.315950
     65          1           0        5.485958    1.309939    2.684596
     66          6           0        4.483751    0.983870    2.404964
     67          7           0        4.107281   -0.267741    2.307873
     68          6           0        2.774185   -0.186940    1.932298
     69          6           0        3.561698    3.359086    2.128867
     70          7           0        3.487633    1.885185    2.118409
 ---------------------------------------------------------------------

 SCF Done:  E(RwB97XD) =  -2048.73460367     A.U. after   15 cycles

 The electronic state is 1-A.
 Alpha  occ. eigenvalues --  -19.25934 -19.22044 -19.20615 -14.52432 -14.51856
 Alpha  occ. eigenvalues --  -14.49125 -14.48648 -14.47922 -14.47166 -14.46683
 Alpha  occ. eigenvalues --  -14.46536 -14.44856 -14.43324 -14.42891 -14.42520
 Alpha  occ. eigenvalues --  -14.42076 -14.41766 -14.41340 -14.40691 -14.40491
 Alpha  occ. eigenvalues --  -10.45541 -10.41097 -10.40168 -10.38988 -10.38171
 Alpha  occ. eigenvalues --  -10.37812 -10.37419 -10.36357 -10.35758 -10.35333
 Alpha  occ. eigenvalues --  -10.34864 -10.34428 -10.34301 -10.33863 -10.33735
 Alpha  occ. eigenvalues --  -10.33491 -10.33139 -10.31767 -10.31289 -10.31099
 Alpha  occ. eigenvalues --  -10.30679 -10.28894 -10.28061  -1.19493  -1.14527
 Alpha  occ. eigenvalues --   -1.13228  -1.13066  -1.11708  -1.10507  -1.09325
 Alpha  occ. eigenvalues --   -1.08604  -1.08272  -1.05332  -1.03886  -1.02538
 Alpha  occ. eigenvalues --   -1.00788  -1.00397  -0.99732  -0.98515  -0.97308
 Alpha  occ. eigenvalues --   -0.96472  -0.95897  -0.92989  -0.91061  -0.87000
 Alpha  occ. eigenvalues --   -0.85513  -0.84295  -0.84021  -0.83694  -0.82656
 Alpha  occ. eigenvalues --   -0.82374  -0.78886  -0.76293  -0.74603  -0.74028
 Alpha  occ. eigenvalues --   -0.73641  -0.73395  -0.73244  -0.71428  -0.69715
 Alpha  occ. eigenvalues --   -0.67362  -0.66652  -0.66575  -0.66053  -0.64464
 Alpha  occ. eigenvalues --   -0.63732  -0.63598  -0.63033  -0.62718  -0.61731
 Alpha  occ. eigenvalues --   -0.60577  -0.60143  -0.59837  -0.59517  -0.59171
 Alpha  occ. eigenvalues --   -0.58901  -0.58269  -0.56977  -0.56774  -0.56597
 Alpha  occ. eigenvalues --   -0.56006  -0.55706  -0.55196  -0.54694  -0.54375
 Alpha  occ. eigenvalues --   -0.53687  -0.53597  -0.53042  -0.52888  -0.52589
 Alpha  occ. eigenvalues --   -0.52475  -0.52111  -0.52062  -0.51119  -0.50536
 Alpha  occ. eigenvalues --   -0.50102  -0.49526  -0.49443  -0.48927  -0.48749
 Alpha  occ. eigenvalues --   -0.48705  -0.48234  -0.48075  -0.47803  -0.47394
 Alpha  occ. eigenvalues --   -0.47303  -0.45657  -0.45303  -0.44004  -0.43440
 Alpha  occ. eigenvalues --   -0.41553  -0.40101  -0.39501  -0.37563  -0.37412
 Alpha  occ. eigenvalues --   -0.37233  -0.36982  -0.36545  -0.35902  -0.34227
 Alpha  occ. eigenvalues --   -0.34068  -0.33823  -0.33672  -0.33224  -0.32831
 Alpha  occ. eigenvalues --   -0.32651  -0.32276  -0.31979  -0.31790  -0.31274
 Alpha  occ. eigenvalues --   -0.30727  -0.28821  -0.26117  -0.25403
 Alpha virt. eigenvalues --    0.03037   0.04753   0.07514   0.07628   0.08947
 Alpha virt. eigenvalues --    0.09136   0.09531   0.10586   0.11152   0.11559
 Alpha virt. eigenvalues --    0.12868   0.13845   0.14451   0.14624   0.14724

 Mulliken charges:
               1
     1  N   -0.312034
     2  C    0.180581
     3  C    0.043369
     4  N   -0.259020
     5  C    0.134053
     6  H    0.027578
     7  N   -0.284751
     8  C    0.125401
     9  H    0.012537
    10  N   -0.290237
    11  C    0.238364
    12  C    0.118301
    13  N   -0.052503
    14  H    0.108545
    15  H    0.088759
    16  H    0.026442
    17  H    0.033567
    18  H    0.026296
    19  N   -0.306398
    20  C    0.239662
    21  C    0.179964
    22  N   -0.094513
    23  H    0.110388
    24  H    0.115926
    25  N   -0.293738
    26  C    0.211955
    27  N   -0.119802
    28  H    0.116957
    29  C    0.140403
    30  O   -0.318534
    31  C    0.019293
    32  N   -0.223124
    33  C    0.124753
    34  H    0.027046
    35  H    0.030206
    36  H    0.027177
    37  H    0.023788
    38  H    0.060629
    39  H    0.060880
    40  H    0.070273
    41  H    0.030399
    42  C   -0.115942
    43  O   -0.267908
    44  C    0.172150
    45  H    0.136001
    46  N   -0.132043
    47  O   -0.349479
    48  C    0.357328
    49  H    0.047874
    50  C    0.178023
    51  C    0.040311
    52  N   -0.288941
    53  H    0.036629
    54  H    0.031864
    55  H    0.025278
    56  H    0.124348
    57  H    0.115982
    58  N   -0.062975
    59  C    0.107258
    60  C    0.230897
    61  N   -0.268423
    62  H    0.048956
    63  C    0.165202
    64  N   -0.300343
    65  H    0.030555
    66  C    0.127791
    67  N   -0.262060
    68  C    0.014423
    69  C    0.167862
    70  N   -0.309452
 Sum of Mulliken charges =  -0.00000

 Dipole moment (field-independent basis, Debye):
    X=              7.2041    Y=              5.9322    Z=              2.9301  Tot=              9.7814
 Quadrupole moment (field-independent basis, Debye-Ang):
   XX=           -145.6833   YY=           -223.2452   ZZ=           -254.4576
   XY=              6.5397   XZ=             10.1618   YZ=             -9.3573

 Normal termination of Gaussian 16 at Tue Jan 23 10:44:08 2018.
