 Gaussian 16, Revision A.03,
 Gaussian 16:  EM64L-G16RevA.03 25-Dec-2016

 ---------------------------------------
 #p wb97xd/cc-pvdz sp scf=(maxcycles=20)
 ---------------------------------------

 ------------------
 Base pair stacking
 ------------------
 Symbolic Z-matrix:
 Charge =  0 Multiplicity = 1

                         Standard orientation:
 ---------------------------------------------------------------------
 Center     Atomic      Atomic             Coordinates (Angstroms)
 Number     Number       Type             X           Y           Z
 ---------------------------------------------------------------------
      1          7           0       -6.093047   -1.526261    0.846541
      2          6           0       -7.467122   -0.990638    0.791381
      3          6           0       -3.908291   -1.707598    1.023303
      4          7           0       -4.388168   -2.991476    0.808599
      5          6           0       -5.685199   -2.830840    0.710701
      6          1           0       -6.398520   -3.637245    0.537985
      7          7           0       -2.476922    0.128998    1.398904
      8          6           0       -3.577023    0.888841    1.398730
      9          1           0       -3.407080    1.953139    1.555755
     10          7           0       -4.849554    0.533053    1.234462
     11          6           0       -4.947427   -0.793800    1.049173
     12          6           0       -2.608814   -1.202157    1.209918
     13          7           0       -1.511845   -1.962306    1.209773
     14          1           0       -1.562245   -2.952330    1.073598
     15          1           0       -0.602747   -1.568339    1.345689
     16          1           0       -8.019413   -1.411174    1.511312
     17          1           0       -7.445233   -0.000290    0.924974
     18          1           0       -7.871716   -1.196219   -0.099713
     19          7           0       -3.527121    2.326093   -1.485575
     20          6           0       -2.172972    2.134511   -1.352729
     21          6           0       -4.239009    3.594367   -1.229835
     22          7           0        0.977698    3.371189   -0.574494
     23          1           0        1.916509    3.029547   -0.540619
     24          1           0        0.834493    4.329778   -0.326883
     25          7           0       -1.272475    3.065192   -0.969340
     26          6           0       -0.043966    2.580165   -0.935599
     27          7           0        0.280004    1.283244   -1.252697
     28          1           0        1.246267    0.999688   -1.198858
     29          6           0       -0.630136    0.308614   -1.649666
     30          8           0       -0.233620   -0.833269   -1.913550
     31          6           0       -1.954147    0.814764   -1.690651
     32          7           0       -3.146901    0.190376   -2.028825
     33          6           0       -4.050099    1.123108   -1.892965
     34          1           0       -5.116205    0.986770   -2.077629
     35          1           0       -4.914656    3.459175   -0.505929
     36          1           0       -3.582122    4.291298   -0.945136
     37          1           0       -4.700299    3.893745   -2.064343
     38          1           0        6.121733    0.047687   -0.114332
     39          1           0        6.330430    0.241148   -1.853206
     40          1           0        5.080810    1.155814   -1.008699
     41          1           0        4.523513   -4.214093   -1.673020
     42          6           0        4.181763   -3.181622   -1.599171
     43          8           0        1.895982   -3.720690   -1.933475
     44          6           0        2.786389   -2.894573   -1.734698
     45          1           0        1.484733   -1.315451   -1.715242
     46          7           0        2.461434   -1.557563   -1.624951
     47          8           0        2.939573    0.641834   -1.322870
     48          6           0        3.322738   -0.511883   -1.405245
     49          1           0        6.117140   -2.348272   -1.274168
     50          6           0        5.046201   -2.183029   -1.384317
     51          6           0        5.609205    0.214945   -1.049959
     52          7           0        4.651401   -0.868974   -1.285510
     53          1           0        4.414396    3.801351    2.704989
     54          1           0        3.226227    3.795818    1.586806
     55          1           0        4.787743    3.714788    1.118627
     56          1           0        1.948301   -3.119157    1.660715
     57          1           0        3.576801   -2.764066    2.024048
     58          7           0        2.662346   -2.431224    1.791224
     59          6           0        2.407477   -1.127680    1.660839
     60          6           0        2.959523    1.186828    1.665295
     61          7           0        1.722004    1.604935    1.351973
     62          1           0       -0.129320    0.817997    0.959651
     63          6           0        0.899329    0.566999    1.214874
     64          7           0        1.152679   -0.739304    1.345062
     65          1           0        6.100422    1.436298    2.389633
     66          6           0        5.090803    1.087072    2.171358
     67          7           0        4.725131   -0.171360    2.153533
     68          6           0        3.375993   -0.122230    1.833957
     69          6           0        4.129757    3.436525    1.818489
     70          7           0        4.072581    1.963315    1.884756
 ---------------------------------------------------------------------

 SCF Done:  E(RwB97XD) =  -2048.73867075     A.U. after   15 cycles

 The electronic state is 1-A.
 Alpha  occ. eigenvalues --  -19.25733 -19.21858 -19.20416 -14.52405 -14.52271
 Alpha  occ. eigenvalues --  -14.48894 -14.48385 -14.47984 -14.47694 -14.46525
 Alpha  occ. eigenvalues --  -14.45868 -14.45381 -14.44017 -14.43727 -14.42547
 Alpha  occ. eigenvalues --  -14.41727 -14.41506 -14.41198 -14.40535 -14.40431
 Alpha  occ. eigenvalues --  -10.45332 -10.40732 -10.39977 -10.39725 -10.37928
 Alpha  occ. eigenvalues --  -10.37894 -10.37652 -10.36994 -10.35637 -10.35484
 Alpha  occ. eigenvalues --  -10.34892 -10.34268 -10.34177 -10.33958 -10.33486
 Alpha  occ. eigenvalues --  -10.33314 -10.33023 -10.32368 -10.31172 -10.30969
 Alpha  occ. eigenvalues --  -10.30491 -10.28641 -10.27733  -1.19336  -1.15083
 Alpha  occ. eigenvalues --   -1.12966  -1.12881  -1.11460  -1.10290  -1.09174
 Alpha  occ. eigenvalues --   -1.09038  -1.08211  -1.05218  -1.04594  -1.02331
 Alpha  occ. eigenvalues --   -1.00929  -1.00680  -0.99270  -0.98284  -0.97131
 Alpha  occ. eigenvalues --   -0.96570  -0.96252  -0.92901  -0.90892  -0.87557
 Alpha  occ. eigenvalues --   -0.86006  -0.84095  -0.83734  -0.83424  -0.82486
 Alpha  occ. eigenvalues --   -0.82136  -0.78709  -0.76895  -0.74752  -0.74266
 Alpha  occ. eigenvalues --   -0.73324  -0.73172  -0.73091  -0.71264  -0.70315
 Alpha  occ. eigenvalues --   -0.67013  -0.66694  -0.66509  -0.66345  -0.64281
 Alpha  occ. eigenvalues --   -0.64177  -0.63496  -0.62933  -0.62554  -0.61333
 Alpha  occ. eigenvalues --   -0.60666  -0.60529  -0.60376  -0.59450  -0.59321
 Alpha  occ. eigenvalues --   -0.59009  -0.57954  -0.56940  -0.56629  -0.56300
 Alpha  occ. eigenvalues --   -0.55840  -0.55667  -0.55350  -0.54661  -0.54206
 Alpha  occ. eigenvalues --   -0.54029  -0.53379  -0.53290  -0.53021  -0.52640
 Alpha  occ. eigenvalues --   -0.52488  -0.52243  -0.51955  -0.50971  -0.50391
 Alpha  occ. eigenvalues --   -0.49895  -0.49607  -0.49287  -0.48995  -0.48703
 Alpha  occ. eigenvalues --   -0.48565  -0.48323  -0.48019  -0.47363  -0.47166
 Alpha  occ. eigenvalues --   -0.47075  -0.45551  -0.44942  -0.44471  -0.43711
 Alpha  occ. eigenvalues --   -0.41289  -0.40828  -0.39347  -0.37706  -0.37617
 Alpha  occ. eigenvalues --   -0.37391  -0.37010  -0.36787  -0.35927  -0.34564
 Alpha  occ. eigenvalues --   -0.34195  -0.33783  -0.33633  -0.33029  -0.32671
 Alpha  occ. eigenvalues --   -0.32441  -0.32234  -0.31864  -0.31623  -0.31077
 Alpha  occ. eigenvalues --   -0.30637  -0.29598  -0.25965  -0.24787
 Alpha virt. eigenvalues --    0.03193   0.04154   0.07157   0.07709   0.08735
 Alpha virt. eigenvalues --    0.09501   0.10021   0.10539   0.10916   0.11508
 Alpha virt. eigenvalues --    0.12900   0.14076   0.14137   0.14817   0.15051

 Mulliken charges:
               1
     1  N   -0.313496
     2  C    0.180550
     3  C    0.055981
     4  N   -0.260582
     5  C    0.135432
     6  H    0.026875
     7  N   -0.284391
     8  C    0.137776
     9  H    0.009896
    10  N   -0.290097
    11  C    0.244063
    12  C    0.111381
    13  N   -0.054643
    14  H    0.109082
    15  H    0.085966
    16  H    0.026033
    17  H    0.031097
    18  H    0.026544
    19  N   -0.297120
    20  C    0.235738
    21  C    0.178876
    22  N   -0.081765
    23  H    0.111662
    24  H    0.110780
    25  N   -0.301329
    26  C    0.205490
    27  N   -0.142383
    28  H    0.127032
    29  C    0.162652
    30  O   -0.322671
    31  C    0.009825
    32  N   -0.224325
    33  C    0.129113
    34  H    0.018673
    35  H    0.030332
    36  H    0.026507
    37  H    0.022907
    38  H    0.062695
    39  H    0.058534
    40  H    0.066757
    41  H    0.029006
    42  C   -0.113838
    43  O   -0.266264
    44  C    0.172673
    45  H    0.132723
    46  N   -0.124534
    47  O   -0.340429
    48  C    0.341434
    49  H    0.047336
    50  C    0.172453
    51  C    0.039797
    52  N   -0.284383
    53  H    0.036893
    54  H    0.032158
    55  H    0.026874
    56  H    0.124960
    57  H    0.117122
    58  N   -0.062336
    59  C    0.095404
    60  C    0.256553
    61  N   -0.286958
    62  H    0.040901
    63  C    0.162281
    64  N   -0.299828
    65  H    0.034840
    66  C    0.124139
    67  N   -0.259700
    68  C    0.012254
    69  C    0.179054
    70  N   -0.306029
 Sum of Mulliken charges =  -0.00000

 Dipole moment (field-independent basis, Debye):
    X=              7.3840    Y=              6.1110    Z=              3.1536  Tot=             10.0902
 Quadrupole moment (field-independent basis, Debye-Ang):
   XX=           -149.2635   YY=           -223.1269   ZZ=           -256.1080
   XY=              4.4892   XZ=              3.3996   YZ=            -10.4235

 Normal termination of Gaussian 16 at Mon Jan 22 20:32:46 2018.
