 Gaussian 16, Revision A.03,
 Gaussian 16:  EM64L-G16RevA.03 25-Dec-2016

 ---------------------------------------
 #p wb97xd/cc-pvdz sp scf=(maxcycles=20)
 ---------------------------------------

 ------------------
 Base pair stacking
 ------------------
 Symbolic Z-matrix:
 Charge =  0 Multiplicity = 1

                         Standard orientation:
 ---------------------------------------------------------------------
 Center     Atomic      Atomic             Coordinates (Angstroms)
 Number     Number       Type             X           Y           Z
 ---------------------------------------------------------------------
      1          7           0       -5.217768   -1.914523    1.365746
      2          6           0       -6.597413   -1.482002    1.661544
      3          6           0       -3.027257   -1.990514    1.183516
      4          7           0       -3.502246   -3.181871    0.654584
      5          6           0       -4.802937   -3.088403    0.785541
      6          1           0       -5.514107   -3.853576    0.472969
      7          7           0       -1.601218   -0.255759    1.904612
      8          6           0       -2.707317    0.392632    2.283711
      9          1           0       -2.541929    1.370894    2.733062
     10          7           0       -3.981050    0.015792    2.191521
     11          6           0       -4.072978   -1.199127    1.625891
     12          6           0       -1.727208   -1.476000    1.338746
     13          7           0       -0.624251   -2.124799    0.959647
     14          1           0       -0.670171   -3.030378    0.536531
     15          1           0        0.285059   -1.728006    1.085596
     16          1           0       -7.025982   -2.134546    2.286593
     17          1           0       -6.580080   -0.577282    2.086184
     18          1           0       -7.124959   -1.440058    0.813060
     19          7           0       -4.440930    2.446953   -1.054656
     20          6           0       -3.076283    2.296775   -1.111546
     21          6           0       -5.148826    3.700090   -0.724140
     22          7           0        0.112556    3.639375   -0.810769
     23          1           0        1.056953    3.325268   -0.903973
     24          1           0       -0.024094    4.598924   -0.563158
     25          7           0       -2.160161    3.261017   -0.876963
     26          6           0       -0.924659    2.811794   -1.008710
     27          7           0       -0.608380    1.517667   -1.344438
     28          1           0        0.364174    1.262826   -1.422849
     29          6           0       -1.534586    0.508918   -1.590286
     30          8           0       -1.143852   -0.627007   -1.886493
     31          6           0       -2.866265    0.976401   -1.452563
     32          7           0       -4.074751    0.311026   -1.606651
     33          6           0       -4.978384    1.220715   -1.361454
     34          1           0       -6.055108    1.050131   -1.390600
     35          1           0       -5.711009    3.562367    0.090596
     36          1           0       -4.480394    4.421596   -0.548373
     37          1           0       -5.732364    3.967243   -1.490237
     38          1           0        5.371202    0.473887   -1.022841
     39          1           0        5.326295    0.633557   -2.777014
     40          1           0        4.180433    1.531533   -1.781020
     41          1           0        3.702731   -3.865703   -2.260052
     42          6           0        3.342790   -2.841896   -2.157644
     43          8           0        1.050646   -3.452803   -2.154563
     44          6           0        1.933979   -2.597547   -2.099336
     45          1           0        0.599479   -1.055808   -1.924840
     46          7           0        1.586232   -1.268101   -1.969423
     47          8           0        2.033368    0.950232   -1.778961
     48          6           0        2.436874   -0.193774   -1.893422
     49          1           0        5.277717   -1.946997   -2.125730
     50          6           0        4.197326   -1.814647   -2.086015
     51          6           0        4.726794    0.605271   -1.879317
     52          7           0        3.779621   -0.510363   -1.956614
     53          1           0        5.315983    3.323068    3.328224
     54          1           0        3.975154    3.569561    2.431846
     55          1           0        5.451119    3.738534    1.755792
     56          1           0        2.891681   -3.124137    0.567451
     57          1           0        4.546950   -2.782925    0.799307
     58          7           0        3.600179   -2.459151    0.804049
     59          6           0        3.296998   -1.196533    1.112325
     60          6           0        3.786878    1.043713    1.747177
     61          7           0        2.506677    1.450551    1.745404
     62          1           0        0.637352    0.691542    1.384663
     63          6           0        1.698355    0.446848    1.410612
     64          7           0        2.000071   -0.818457    1.101505
     65          1           0        6.993560    1.280227    2.083976
     66          6           0        5.971525    0.943687    1.907509
     67          7           0        5.638118   -0.274259    1.556617
     68          6           0        4.255645   -0.224506    1.451577
     69          6           0        4.911594    3.220208    2.419445
     70          7           0        4.900900    1.793796    2.040972
 ---------------------------------------------------------------------

 SCF Done:  E(RwB97XD) =  -2048.74720544     A.U. after   15 cycles

 The electronic state is 1-A.
 Alpha  occ. eigenvalues --  -19.25768 -19.22153 -19.20623 -14.52452 -14.52406
 Alpha  occ. eigenvalues --  -14.48870 -14.48216 -14.48143 -14.47712 -14.46926
 Alpha  occ. eigenvalues --  -14.46695 -14.45517 -14.44309 -14.44241 -14.42063
 Alpha  occ. eigenvalues --  -14.41987 -14.41047 -14.40710 -14.40586 -14.40018
 Alpha  occ. eigenvalues --  -10.45372 -10.41289 -10.40182 -10.39983 -10.38261
 Alpha  occ. eigenvalues --  -10.38027 -10.37746 -10.37190 -10.35766 -10.35094
 Alpha  occ. eigenvalues --  -10.34851 -10.34426 -10.33861 -10.33484 -10.33461
 Alpha  occ. eigenvalues --  -10.32849 -10.32768 -10.32684 -10.31033 -10.30982
 Alpha  occ. eigenvalues --  -10.30576 -10.28189 -10.28007  -1.19336  -1.15201
 Alpha  occ. eigenvalues --   -1.13233  -1.13119  -1.10726  -1.10654  -1.09440
 Alpha  occ. eigenvalues --   -1.09159  -1.08596  -1.04854  -1.04677  -1.02404
 Alpha  occ. eigenvalues --   -1.01008  -1.00078  -0.99772  -0.98597  -0.96889
 Alpha  occ. eigenvalues --   -0.96679  -0.96369  -0.92370  -0.91027  -0.87618
 Alpha  occ. eigenvalues --   -0.85887  -0.84194  -0.83456  -0.83435  -0.82572
 Alpha  occ. eigenvalues --   -0.81860  -0.78853  -0.77056  -0.74833  -0.74689
 Alpha  occ. eigenvalues --   -0.73683  -0.73281  -0.72484  -0.70652  -0.70418
 Alpha  occ. eigenvalues --   -0.67437  -0.66864  -0.66447  -0.65880  -0.64491
 Alpha  occ. eigenvalues --   -0.64270  -0.63789  -0.62696  -0.62315  -0.61822
 Alpha  occ. eigenvalues --   -0.60622  -0.60393  -0.60207  -0.59454  -0.59331
 Alpha  occ. eigenvalues --   -0.59152  -0.58400  -0.56703  -0.56209  -0.55949
 Alpha  occ. eigenvalues --   -0.55849  -0.55330  -0.55058  -0.54388  -0.54014
 Alpha  occ. eigenvalues --   -0.53727  -0.53670  -0.53562  -0.53306  -0.53030
 Alpha  occ. eigenvalues --   -0.52796  -0.52297  -0.51357  -0.50336  -0.50214
 Alpha  occ. eigenvalues --   -0.50006  -0.49688  -0.49425  -0.49058  -0.48901
 Alpha  occ. eigenvalues --   -0.48660  -0.48451  -0.48425  -0.47744  -0.47358
 Alpha  occ. eigenvalues --   -0.46537  -0.45826  -0.45353  -0.44397  -0.43390
 Alpha  occ. eigenvalues --   -0.40741  -0.40694  -0.39362  -0.37687  -0.37588
 Alpha  occ. eigenvalues --   -0.37356  -0.37339  -0.36688  -0.35979  -0.34721
 Alpha  occ. eigenvalues --   -0.34328  -0.34004  -0.33315  -0.33069  -0.32903
 Alpha  occ. eigenvalues --   -0.32761  -0.32589  -0.32430  -0.31944  -0.30467
 Alpha  occ. eigenvalues --   -0.30105  -0.29471  -0.25603  -0.25295
 Alpha virt. eigenvalues --    0.02848   0.04106   0.06788   0.08295   0.08812
 Alpha virt. eigenvalues --    0.09224   0.09708   0.10444   0.11395   0.11956
 Alpha virt. eigenvalues --    0.13002   0.14298   0.14693   0.14782   0.14875

 Mulliken charges:
               1
     1  N   -0.311582
     2  C    0.181045
     3  C    0.057475
     4  N   -0.257505
     5  C    0.141452
     6  H    0.025427
     7  N   -0.297815
     8  C    0.133177
     9  H    0.009858
    10  N   -0.289636
    11  C    0.251800
    12  C    0.097476
    13  N   -0.054580
    14  H    0.114675
    15  H    0.082875
    16  H    0.023860
    17  H    0.030262
    18  H    0.025083
    19  N   -0.309063
    20  C    0.256006
    21  C    0.181054
    22  N   -0.121256
    23  H    0.116711
    24  H    0.117553
    25  N   -0.311517
    26  C    0.246523
    27  N   -0.147798
    28  H    0.119221
    29  C    0.193822
    30  O   -0.322052
    31  C   -0.016708
    32  N   -0.225568
    33  C    0.127302
    34  H    0.020137
    35  H    0.029385
    36  H    0.029291
    37  H    0.023937
    38  H    0.063673
    39  H    0.059173
    40  H    0.073340
    41  H    0.024738
    42  C   -0.118411
    43  O   -0.267698
    44  C    0.162901
    45  H    0.130726
    46  N   -0.114822
    47  O   -0.343302
    48  C    0.337548
    49  H    0.045308
    50  C    0.168946
    51  C    0.036580
    52  N   -0.275332
    53  H    0.034295
    54  H    0.041014
    55  H    0.028049
    56  H    0.125897
    57  H    0.113797
    58  N   -0.049515
    59  C    0.088113
    60  C    0.248912
    61  N   -0.274220
    62  H    0.034261
    63  C    0.171172
    64  N   -0.310635
    65  H    0.037567
    66  C    0.133801
    67  N   -0.263541
    68  C    0.014787
    69  C    0.180922
    70  N   -0.308368
 Sum of Mulliken charges =  -0.00000

 Dipole moment (field-independent basis, Debye):
    X=              7.7763    Y=              6.8642    Z=              1.4618  Tot=             10.4750
 Quadrupole moment (field-independent basis, Debye-Ang):
   XX=           -154.7390   YY=           -220.3272   ZZ=           -253.5354
   XY=              0.7064   XZ=             -6.5866   YZ=             -4.6677

 Normal termination of Gaussian 16 at Mon Jan 22 21:54:14 2018.
