 Gaussian 16, Revision A.03,
 Gaussian 16:  EM64L-G16RevA.03 25-Dec-2016

 ---------------------------------------
 #p wb97xd/cc-pvdz sp scf=(maxcycles=20)
 ---------------------------------------

 ------------------
 Base pair stacking
 ------------------
 Symbolic Z-matrix:
 Charge =  0 Multiplicity = 1

                         Standard orientation:
 ---------------------------------------------------------------------
 Center     Atomic      Atomic             Coordinates (Angstroms)
 Number     Number       Type             X           Y           Z
 ---------------------------------------------------------------------
      1          7           0       -6.930231   -1.381842    0.279621
      2          6           0       -8.294128   -0.823538    0.201667
      3          6           0       -4.761042   -1.611878    0.560706
      4          7           0       -5.238700   -2.860133    0.188629
      5          6           0       -6.526432   -2.671585    0.034183
      6          1           0       -7.235452   -3.445790   -0.260524
      7          7           0       -3.338121    0.155981    1.203270
      8          6           0       -4.429776    0.927762    1.218471
      9          1           0       -4.260066    1.967960    1.493148
     10          7           0       -5.693651    0.609022    0.946581
     11          6           0       -5.792034   -0.690508    0.621018
     12          6           0       -3.470282   -1.146957    0.871671
     13          7           0       -2.381733   -1.918963    0.855932
     14          1           0       -2.432672   -2.889142    0.616374
     15          1           0       -1.478690   -1.554100    1.082945
     16          1           0       -8.890846   -1.307139    0.842158
     17          1           0       -8.271507    0.147649    0.437085
     18          1           0       -8.648112   -0.931418   -0.727345
     19          7           0       -2.553119    2.450132   -1.696680
     20          6           0       -1.215835    2.223097   -1.477176
     21          6           0       -3.231919    3.754082   -1.556535
     22          7           0        1.930537    3.401873   -0.598219
     23          1           0        2.853324    3.032616   -0.491746
     24          1           0        1.808598    4.377921   -0.416062
     25          7           0       -0.304590    3.145660   -1.099623
     26          6           0        0.902171    2.623939   -0.968592
     27          7           0        1.196143    1.300260   -1.189907
     28          1           0        2.147325    0.989262   -1.065415
     29          6           0        0.274420    0.333327   -1.578936
     30          8           0        0.643465   -0.834785   -1.752312
     31          6           0       -1.026492    0.878798   -1.723776
     32          7           0       -2.220860    0.274050   -2.090719
     33          6           0       -3.096104    1.242178   -2.060945
     34          1           0       -4.154893    1.129547   -2.296613
     35          1           0       -3.950010    3.685284   -0.864868
     36          1           0       -2.566808    4.445359   -1.277177
     37          1           0       -3.636523    4.016879   -2.431764
     38          1           0        6.920023   -0.052787    0.344591
     39          1           0        7.228963    0.027466   -1.388258
     40          1           0        5.969167    1.032012   -0.670511
     41          1           0        5.256635   -4.347445   -1.046666
     42          6           0        4.948576   -3.301848   -1.053165
     43          8           0        2.666322   -3.785727   -1.482455
     44          6           0        3.573713   -2.978393   -1.283299
     45          1           0        2.330261   -1.359565   -1.430008
     46          7           0        3.291382   -1.627327   -1.271060
     47          8           0        3.830960    0.569689   -1.073117
     48          6           0        4.176458   -0.598746   -1.065640
     49          1           0        6.892211   -2.513550   -0.670146
     50          6           0        5.835368   -2.320621   -0.849623
     51          6           0        6.464991    0.073709   -0.626494
     52          7           0        5.483106   -0.990862   -0.850845
     53          1           0        3.497204    3.575983    3.268267
     54          1           0        2.375894    3.701563    2.089720
     55          1           0        3.961179    3.646001    1.705185
     56          1           0        1.036350   -3.165742    1.381794
     57          1           0        2.644021   -2.873138    1.871547
     58          7           0        1.747510   -2.505098    1.622484
     59          6           0        1.511875   -1.191501    1.612112
     60          6           0        2.082628    1.102289    1.885121
     61          7           0        0.869019    1.568018    1.546500
     62          1           0       -0.963146    0.852029    0.971041
     63          6           0        0.046773    0.561472    1.257222
     64          7           0        0.280890   -0.754842    1.267022
     65          1           0        5.178264    1.231155    2.808483
     66          6           0        4.180038    0.920639    2.498560
     67          7           0        3.805193   -0.324010    2.331111
     68          6           0        2.477335   -0.223035    1.942113
     69          6           0        3.261335    3.307494    2.334316
     70          7           0        3.187727    1.836176    2.245897
 ---------------------------------------------------------------------

 SCF Done:  E(RwB97XD) =  -2048.73957920     A.U. after   15 cycles

 The electronic state is 1-A.
 Alpha  occ. eigenvalues --  -19.25959 -19.22121 -19.20636 -14.52476 -14.51598
 Alpha  occ. eigenvalues --  -14.49210 -14.48720 -14.47966 -14.46989 -14.46762
 Alpha  occ. eigenvalues --  -14.46743 -14.44572 -14.42975 -14.42766 -14.42500
 Alpha  occ. eigenvalues --  -14.42088 -14.41871 -14.41383 -14.40752 -14.40560
 Alpha  occ. eigenvalues --  -10.45579 -10.41299 -10.40232 -10.38639 -10.38252
 Alpha  occ. eigenvalues --  -10.37853 -10.37168 -10.36041 -10.35808 -10.35454
 Alpha  occ. eigenvalues --  -10.34528 -10.34420 -10.34379 -10.33830 -10.33548
 Alpha  occ. eigenvalues --  -10.33519 -10.33215 -10.31559 -10.31328 -10.31133
 Alpha  occ. eigenvalues --  -10.30746 -10.28996 -10.28154  -1.19507  -1.14254
 Alpha  occ. eigenvalues --   -1.13271  -1.13133  -1.11803  -1.10573  -1.09372
 Alpha  occ. eigenvalues --   -1.08678  -1.07960  -1.05398  -1.03530  -1.02585
 Alpha  occ. eigenvalues --   -1.00826  -1.00191  -0.99856  -0.98548  -0.97378
 Alpha  occ. eigenvalues --   -0.96532  -0.95553  -0.93042  -0.91107  -0.86692
 Alpha  occ. eigenvalues --   -0.85181  -0.84372  -0.84123  -0.83779  -0.82723
 Alpha  occ. eigenvalues --   -0.82454  -0.78934  -0.75956  -0.74670  -0.73818
 Alpha  occ. eigenvalues --   -0.73622  -0.73442  -0.73311  -0.71494  -0.69364
 Alpha  occ. eigenvalues --   -0.67502  -0.66706  -0.66622  -0.65700  -0.64526
 Alpha  occ. eigenvalues --   -0.63812  -0.63297  -0.63009  -0.62746  -0.61907
 Alpha  occ. eigenvalues --   -0.60587  -0.59884  -0.59611  -0.59495  -0.59183
 Alpha  occ. eigenvalues --   -0.58576  -0.58466  -0.56923  -0.56822  -0.56684
 Alpha  occ. eigenvalues --   -0.56048  -0.55748  -0.54999  -0.54488  -0.54395
 Alpha  occ. eigenvalues --   -0.53687  -0.53506  -0.52970  -0.52885  -0.52601
 Alpha  occ. eigenvalues --   -0.52344  -0.52118  -0.51852  -0.51177  -0.50587
 Alpha  occ. eigenvalues --   -0.50174  -0.49538  -0.49487  -0.48928  -0.48776
 Alpha  occ. eigenvalues --   -0.48705  -0.48278  -0.47861  -0.47802  -0.47447
 Alpha  occ. eigenvalues --   -0.47381  -0.45503  -0.45419  -0.44091  -0.43141
 Alpha  occ. eigenvalues --   -0.41617  -0.39680  -0.39523  -0.37626  -0.37391
 Alpha  occ. eigenvalues --   -0.37265  -0.36587  -0.36459  -0.35940  -0.34576
 Alpha  occ. eigenvalues --   -0.33988  -0.33890  -0.33309  -0.33252  -0.32883
 Alpha  occ. eigenvalues --   -0.32682  -0.32336  -0.32040  -0.31852  -0.31374
 Alpha  occ. eigenvalues --   -0.30769  -0.28681  -0.26201  -0.25483
 Alpha virt. eigenvalues --    0.03024   0.04888   0.07494   0.07834   0.08511
 Alpha virt. eigenvalues --    0.09373   0.09549   0.10508   0.11243   0.11969
 Alpha virt. eigenvalues --    0.12750   0.13681   0.14473   0.14720   0.14914

 Mulliken charges:
               1
     1  N   -0.311498
     2  C    0.180696
     3  C    0.036612
     4  N   -0.258290
     5  C    0.133673
     6  H    0.027893
     7  N   -0.285244
     8  C    0.123256
     9  H    0.013542
    10  N   -0.289051
    11  C    0.238340
    12  C    0.119717
    13  N   -0.051791
    14  H    0.108365
    15  H    0.088739
    16  H    0.026589
    17  H    0.034580
    18  H    0.026207
    19  N   -0.307609
    20  C    0.234373
    21  C    0.180930
    22  N   -0.109072
    23  H    0.113464
    24  H    0.116721
    25  N   -0.292500
    26  C    0.220724
    27  N   -0.118400
    28  H    0.118985
    29  C    0.142384
    30  O   -0.319235
    31  C    0.009191
    32  N   -0.221931
    33  C    0.128693
    34  H    0.029287
    35  H    0.029998
    36  H    0.027606
    37  H    0.024094
    38  H    0.060330
    39  H    0.060967
    40  H    0.070801
    41  H    0.030867
    42  C   -0.113615
    43  O   -0.269970
    44  C    0.169851
    45  H    0.137345
    46  N   -0.133702
    47  O   -0.352034
    48  C    0.361117
    49  H    0.048047
    50  C    0.178543
    51  C    0.040906
    52  N   -0.291894
    53  H    0.034604
    54  H    0.039216
    55  H    0.018032
    56  H    0.124003
    57  H    0.116476
    58  N   -0.058398
    59  C    0.112328
    60  C    0.228287
    61  N   -0.259437
    62  H    0.056939
    63  C    0.148387
    64  N   -0.298651
    65  H    0.028240
    66  C    0.129896
    67  N   -0.265481
    68  C    0.018780
    69  C    0.167800
    70  N   -0.308620
 Sum of Mulliken charges =  -0.00000

 Dipole moment (field-independent basis, Debye):
    X=              7.2327    Y=              5.8667    Z=              2.7115  Tot=              9.6996
 Quadrupole moment (field-independent basis, Debye-Ang):
   XX=           -143.4752   YY=           -223.1651   ZZ=           -252.9738
   XY=              7.6271   XZ=             13.3052   YZ=             -8.4022

 Normal termination of Gaussian 16 at Mon Jan 22 19:22:46 2018.
