 Gaussian 16, Revision A.03,
 Gaussian 16:  EM64L-G16RevA.03 25-Dec-2016

 ---------------------------------------
 #p wb97xd/cc-pvdz sp scf=(maxcycles=20)
 ---------------------------------------

 ------------------
 Base pair stacking
 ------------------
 Symbolic Z-matrix:
 Charge =  0 Multiplicity = 1

                         Standard orientation:
 ---------------------------------------------------------------------
 Center     Atomic      Atomic             Coordinates (Angstroms)
 Number     Number       Type             X           Y           Z
 ---------------------------------------------------------------------
      1          7           0       -7.167082   -1.333659    0.149942
      2          6           0       -8.521536   -0.766990    0.000447
      3          6           0       -5.007887   -1.567422    0.497108
      4          7           0       -5.493275   -2.833757    0.204659
      5          6           0       -6.774687   -2.642235    0.007207
      6          1           0       -7.486929   -3.427573   -0.247522
      7          7           0       -3.576835    0.225915    1.043917
      8          6           0       -4.658443    1.009110    0.978304
      9          1           0       -4.481426    2.064415    1.181432
     10          7           0       -5.919970    0.685957    0.700732
     11          6           0       -6.027912   -0.632459    0.467137
     12          6           0       -3.718463   -1.095959    0.803767
     13          7           0       -2.639947   -1.879388    0.868799
     14          1           0       -2.698127   -2.863666    0.698412
     15          1           0       -1.737547   -1.509379    1.089921
     16          1           0       -9.138639   -1.196362    0.659988
     17          1           0       -8.491571    0.218314    0.165968
     18          1           0       -8.856047   -0.937549   -0.926386
     19          7           0       -2.294852    2.386407   -1.696855
     20          6           0       -0.962829    2.161313   -1.445660
     21          6           0       -2.980898    3.687225   -1.563052
     22          7           0        2.156872    3.341571   -0.478092
     23          1           0        3.077817    2.974026   -0.351484
     24          1           0        2.027436    4.315711   -0.290981
     25          7           0       -0.064150    3.083247   -1.037673
     26          6           0        1.140500    2.563855   -0.880650
     27          7           0        1.443949    1.242911   -1.105450
     28          1           0        2.392636    0.933564   -0.959652
     29          6           0        0.535229    0.276665   -1.525551
     30          8           0        0.912042   -0.888917   -1.699246
     31          6           0       -0.763275    0.819657   -1.698549
     32          7           0       -1.946213    0.214635   -2.100419
     33          6           0       -2.824848    1.180023   -2.084661
     34          1           0       -3.877039    1.066370   -2.347824
     35          1           0       -3.715945    3.610631   -0.890256
     36          1           0       -2.325116    4.378013   -1.261327
     37          1           0       -3.364169    3.956190   -2.445977
     38          1           0        7.131516   -0.106792    0.561326
     39          1           0        7.483674   -0.011191   -1.162475
     40          1           0        6.203202    0.983776   -0.468365
     41          1           0        5.516633   -4.394342   -0.906865
     42          6           0        5.205665   -3.349588   -0.912456
     43          8           0        2.936401   -3.836288   -1.403021
     44          6           0        3.836051   -3.028106   -1.174424
     45          1           0        2.591782   -1.411614   -1.338962
     46          7           0        3.549421   -1.677987   -1.158106
     47          8           0        4.077200    0.518807   -0.928462
     48          6           0        4.425940   -0.648668   -0.921961
     49          1           0        7.136662   -2.559058   -0.474137
     50          6           0        6.084092   -2.367615   -0.678544
     51          6           0        6.700655    0.026541   -0.419818
     52          7           0        5.727947   -1.038881   -0.677617
     53          1           0        3.254473    3.708139    3.016114
     54          1           0        2.161499    3.761135    1.805871
     55          1           0        3.754129    3.660014    1.463221
     56          1           0        0.749051   -3.123704    1.562050
     57          1           0        2.349047   -2.814804    2.066723
     58          7           0        1.463182   -2.455533    1.771124
     59          6           0        1.244909   -1.143504    1.660968
     60          6           0        1.839158    1.157363    1.781718
     61          7           0        0.639563    1.611201    1.382441
     62          1           0       -1.188433    0.876418    0.817502
     63          6           0       -0.189015    0.595808    1.147187
     64          7           0        0.027710   -0.718936    1.256926
     65          1           0        4.914804    1.317346    2.765072
     66          6           0        3.919799    0.996640    2.455152
     67          7           0        3.532663   -0.252506    2.368867
     68          6           0        2.215252   -0.164798    1.942895
     69          6           0        3.036062    3.375708    2.098632
     70          7           0        2.945354    1.902771    2.114415
 ---------------------------------------------------------------------

 SCF Done:  E(RwB97XD) =  -2048.72162351     A.U. after   15 cycles

 The electronic state is 1-A.
 Alpha  occ. eigenvalues --  -19.25955 -19.22034 -19.20614 -14.52476 -14.51543
 Alpha  occ. eigenvalues --  -14.49416 -14.48733 -14.47918 -14.47082 -14.46685
 Alpha  occ. eigenvalues --  -14.46597 -14.44414 -14.42828 -14.42735 -14.42493
 Alpha  occ. eigenvalues --  -14.42100 -14.41918 -14.41618 -14.40815 -14.40761
 Alpha  occ. eigenvalues --  -10.45570 -10.41349 -10.40151 -10.38530 -10.38242
 Alpha  occ. eigenvalues --  -10.37800 -10.37023 -10.36057 -10.35868 -10.35516
 Alpha  occ. eigenvalues --  -10.34752 -10.34353 -10.34230 -10.34067 -10.33799
 Alpha  occ. eigenvalues --  -10.33377 -10.33288 -10.31462 -10.31423 -10.31094
 Alpha  occ. eigenvalues --  -10.30750 -10.29250 -10.28186  -1.19496  -1.14243
 Alpha  occ. eigenvalues --   -1.13256  -1.13057  -1.12025  -1.10596  -1.09369
 Alpha  occ. eigenvalues --   -1.08803  -1.07842  -1.05651  -1.03418  -1.02542
 Alpha  occ. eigenvalues --   -1.01067  -1.00562  -0.99652  -0.98511  -0.97591
 Alpha  occ. eigenvalues --   -0.96550  -0.95453  -0.93292  -0.91076  -0.86671
 Alpha  occ. eigenvalues --   -0.85175  -0.84585  -0.84139  -0.83804  -0.82921
 Alpha  occ. eigenvalues --   -0.82486  -0.78910  -0.75848  -0.74717  -0.73961
 Alpha  occ. eigenvalues --   -0.73561  -0.73513  -0.73402  -0.71736  -0.69274
 Alpha  occ. eigenvalues --   -0.67663  -0.66929  -0.66607  -0.65628  -0.64517
 Alpha  occ. eigenvalues --   -0.63840  -0.63414  -0.63104  -0.62804  -0.62147
 Alpha  occ. eigenvalues --   -0.60790  -0.59921  -0.59611  -0.59468  -0.59446
 Alpha  occ. eigenvalues --   -0.58559  -0.58478  -0.57105  -0.56974  -0.56817
 Alpha  occ. eigenvalues --   -0.56042  -0.55944  -0.55163  -0.54497  -0.54344
 Alpha  occ. eigenvalues --   -0.53689  -0.53464  -0.53023  -0.52776  -0.52618
 Alpha  occ. eigenvalues --   -0.52282  -0.52163  -0.51787  -0.51381  -0.50789
 Alpha  occ. eigenvalues --   -0.50156  -0.49686  -0.49488  -0.48925  -0.48779
 Alpha  occ. eigenvalues --   -0.48631  -0.48288  -0.47942  -0.47649  -0.47507
 Alpha  occ. eigenvalues --   -0.47412  -0.45695  -0.45347  -0.44052  -0.42813
 Alpha  occ. eigenvalues --   -0.41857  -0.39557  -0.39414  -0.37859  -0.37437
 Alpha  occ. eigenvalues --   -0.37232  -0.36428  -0.36363  -0.35902  -0.34958
 Alpha  occ. eigenvalues --   -0.34186  -0.34115  -0.33231  -0.33079  -0.32808
 Alpha  occ. eigenvalues --   -0.32545  -0.32141  -0.31978  -0.31854  -0.31607
 Alpha  occ. eigenvalues --   -0.30999  -0.28573  -0.26446  -0.25322
 Alpha virt. eigenvalues --    0.03113   0.04966   0.07246   0.07935   0.08329
 Alpha virt. eigenvalues --    0.09510   0.09620   0.10247   0.11171   0.12352
 Alpha virt. eigenvalues --    0.12723   0.13478   0.14434   0.14675   0.14827

 Mulliken charges:
               1
     1  N   -0.311439
     2  C    0.180742
     3  C    0.033370
     4  N   -0.258589
     5  C    0.134455
     6  H    0.028750
     7  N   -0.283962
     8  C    0.118902
     9  H    0.016106
    10  N   -0.287069
    11  C    0.240095
    12  C    0.118242
    13  N   -0.051852
    14  H    0.107612
    15  H    0.088571
    16  H    0.026905
    17  H    0.035282
    18  H    0.026813
    19  N   -0.304805
    20  C    0.226520
    21  C    0.182784
    22  N   -0.108759
    23  H    0.117393
    24  H    0.116120
    25  N   -0.277273
    26  C    0.204849
    27  N   -0.109822
    28  H    0.119497
    29  C    0.145311
    30  O   -0.320757
    31  C   -0.002153
    32  N   -0.220256
    33  C    0.130199
    34  H    0.030465
    35  H    0.026840
    36  H    0.027621
    37  H    0.024384
    38  H    0.060078
    39  H    0.061261
    40  H    0.070286
    41  H    0.031383
    42  C   -0.111897
    43  O   -0.268399
    44  C    0.175991
    45  H    0.135474
    46  N   -0.137179
    47  O   -0.352816
    48  C    0.366506
    49  H    0.047737
    50  C    0.175956
    51  C    0.041275
    52  N   -0.295207
    53  H    0.030436
    54  H    0.040325
    55  H    0.003596
    56  H    0.121375
    57  H    0.117012
    58  N   -0.060973
    59  C    0.119456
    60  C    0.225298
    61  N   -0.259039
    62  H    0.056533
    63  C    0.145968
    64  N   -0.298743
    65  H    0.026522
    66  C    0.130621
    67  N   -0.264212
    68  C    0.022441
    69  C    0.180987
    70  N   -0.309147
 Sum of Mulliken charges =  -0.00000

 Dipole moment (field-independent basis, Debye):
    X=              6.8826    Y=              5.7372    Z=              3.0259  Tot=              9.4573
 Quadrupole moment (field-independent basis, Debye-Ang):
   XX=           -141.4298   YY=           -224.1004   ZZ=           -253.0315
   XY=              9.4210   XZ=             15.4136   YZ=             -9.5745

 Normal termination of Gaussian 16 at Tue Jan 23 12:16:16 2018.
