 Gaussian 16, Revision A.03,
 Gaussian 16:  EM64L-G16RevA.03 25-Dec-2016

 ---------------------------------------
 #p wb97xd/cc-pvdz sp scf=(maxcycles=20)
 ---------------------------------------

 ------------------
 Base pair stacking
 ------------------
 Symbolic Z-matrix:
 Charge =  0 Multiplicity = 1

                         Standard orientation:
 ---------------------------------------------------------------------
 Center     Atomic      Atomic             Coordinates (Angstroms)
 Number     Number       Type             X           Y           Z
 ---------------------------------------------------------------------
      1          7           0        4.257436   -1.820900   -1.910205
      2          6           0        5.630705   -1.373615   -2.213662
      3          6           0        2.082083   -1.875861   -1.590632
      4          7           0        2.543849   -3.159688   -1.339079
      5          6           0        3.835943   -3.075188   -1.541683
      6          1           0        4.535688   -3.904676   -1.435626
      7          7           0        0.680583    0.002452   -1.856530
      8          6           0        1.784055    0.684618   -2.179945
      9          1           0        1.627913    1.736089   -2.417195
     10          7           0        3.045511    0.264908   -2.253935
     11          6           0        3.126782   -1.039548   -1.943774
     12          6           0        0.795635   -1.308137   -1.549620
     13          7           0       -0.304720   -1.990782   -1.226522
     14          1           0       -0.266583   -2.962829   -0.992251
     15          1           0       -1.204205   -1.554095   -1.207643
     16          1           0        5.992164   -1.900892   -2.982751
     17          1           0        5.620938   -0.402841   -2.451616
     18          1           0        6.213450   -1.512980   -1.413044
     19          7           0        5.366821    2.119995    0.687696
     20          6           0        4.006583    2.001341    0.841749
     21          6           0        6.081785    3.366091    0.345983
     22          7           0        0.841543    3.431030    0.824474
     23          1           0       -0.101473    3.137062    0.977911
     24          1           0        0.985293    4.394903    0.598648
     25          7           0        3.101914    2.995183    0.707911
     26          6           0        1.867911    2.572018    0.917163
     27          7           0        1.542622    1.275223    1.233403
     28          1           0        0.572028    1.041671    1.376117
     29          6           0        2.456972    0.236274    1.376256
     30          8           0        2.058798   -0.899286    1.663836
     31          6           0        3.786911    0.675534    1.154434
     32          7           0        4.985129   -0.024084    1.195862
     33          6           0        5.892293    0.871153    0.913357
     34          1           0        6.963232    0.673406    0.856204
     35          1           0        6.578181    3.242805   -0.512615
     36          1           0        5.421850    4.109347    0.244330
     37          1           0        6.727443    3.592389    1.074491
     38          1           0       -4.470302    0.389562    1.326885
     39          1           0       -4.291335    0.487611    3.077031
     40          1           0       -3.198605    1.391069    2.027704
     41          1           0       -2.832289   -4.029519    2.293927
     42          6           0       -2.453466   -3.011893    2.198178
     43          8           0       -0.185135   -3.678159    2.003551
     44          6           0       -1.046778   -2.800185    2.042476
     45          1           0        0.312179   -1.286414    1.818699
     46          7           0       -0.673924   -1.475944    1.930155
     47          8           0       -1.074029    0.757885    1.845919
     48          6           0       -1.498614   -0.379177    1.953046
     49          1           0       -4.360636   -2.069414    2.340400
     50          6           0       -3.282981   -1.962213    2.224193
     51          6           0       -3.760944    0.475598    2.136495
     52          7           0       -2.841045   -0.664848    2.106320
     53          1           0       -6.170438    3.965370   -2.059190
     54          1           0       -4.765689    3.996467   -1.229850
     55          1           0       -6.186990    4.066239   -0.430400
     56          1           0       -3.823870   -2.958546   -0.786922
     57          1           0       -5.476223   -2.536589   -0.829308
     58          7           0       -4.519916   -2.242288   -0.838359
     59          6           0       -4.188651   -0.951751   -0.915627
     60          6           0       -4.631455    1.381311   -1.065440
     61          7           0       -3.339035    1.747318   -1.075700
     62          1           0       -1.481078    0.885080   -1.003853
     63          6           0       -2.550211    0.677214   -1.001287
     64          7           0       -2.880070   -0.616147   -0.923831
     65          1           0       -7.841655    1.760561   -1.120309
     66          6           0       -6.824143    1.370117   -1.086067
     67          7           0       -6.516143    0.098879   -1.003786
     68          6           0       -5.128878    0.091976   -0.989866
     69          6           0       -5.712194    3.675320   -1.219022
     70          7           0       -5.732287    2.202501   -1.127367
 ---------------------------------------------------------------------

 SCF Done:  E(RwB97XD) =  -2048.74969397     A.U. after   15 cycles

 The electronic state is 1-A.
 Alpha  occ. eigenvalues --  -19.25278 -19.21373 -19.20637 -14.52664 -14.51709
 Alpha  occ. eigenvalues --  -14.49148 -14.48922 -14.48124 -14.47171 -14.46836
 Alpha  occ. eigenvalues --  -14.46695 -14.45592 -14.45031 -14.44849 -14.42882
 Alpha  occ. eigenvalues --  -14.42108 -14.41451 -14.40993 -14.40751 -14.40574
 Alpha  occ. eigenvalues --  -10.44813 -10.41296 -10.40578 -10.39495 -10.38289
 Alpha  occ. eigenvalues --  -10.38172 -10.37599 -10.37336 -10.36333 -10.35663
 Alpha  occ. eigenvalues --  -10.34579 -10.34202 -10.33986 -10.33825 -10.33518
 Alpha  occ. eigenvalues --  -10.33125 -10.33116 -10.33073 -10.31240 -10.30593
 Alpha  occ. eigenvalues --  -10.30139 -10.28349 -10.28347  -1.18797  -1.15477
 Alpha  occ. eigenvalues --   -1.13282  -1.12397  -1.10855  -1.10804  -1.09943
 Alpha  occ. eigenvalues --   -1.08687  -1.08559  -1.05401  -1.05185  -1.01807
 Alpha  occ. eigenvalues --   -1.01226  -1.00653  -0.99780  -0.98685  -0.97458
 Alpha  occ. eigenvalues --   -0.96899  -0.96469  -0.92892  -0.90498  -0.88024
 Alpha  occ. eigenvalues --   -0.86127  -0.84393  -0.83545  -0.82938  -0.82731
 Alpha  occ. eigenvalues --   -0.81823  -0.78286  -0.77466  -0.75296  -0.74814
 Alpha  occ. eigenvalues --   -0.73702  -0.72829  -0.72724  -0.71004  -0.70809
 Alpha  occ. eigenvalues --   -0.67496  -0.67262  -0.66214  -0.65972  -0.64632
 Alpha  occ. eigenvalues --   -0.64437  -0.63476  -0.62692  -0.62664  -0.61897
 Alpha  occ. eigenvalues --   -0.60950  -0.60639  -0.60321  -0.59732  -0.59070
 Alpha  occ. eigenvalues --   -0.58947  -0.58406  -0.56981  -0.56479  -0.55744
 Alpha  occ. eigenvalues --   -0.55657  -0.55596  -0.55450  -0.54883  -0.54162
 Alpha  occ. eigenvalues --   -0.53931  -0.53667  -0.53353  -0.53132  -0.53048
 Alpha  occ. eigenvalues --   -0.52156  -0.51724  -0.51346  -0.50452  -0.50307
 Alpha  occ. eigenvalues --   -0.50211  -0.49910  -0.49600  -0.49136  -0.48861
 Alpha  occ. eigenvalues --   -0.48754  -0.48141  -0.48042  -0.47717  -0.47147
 Alpha  occ. eigenvalues --   -0.46729  -0.45719  -0.45537  -0.44855  -0.43207
 Alpha  occ. eigenvalues --   -0.41270  -0.41021  -0.39011  -0.38182  -0.37982
 Alpha  occ. eigenvalues --   -0.37513  -0.37382  -0.36918  -0.35416  -0.35235
 Alpha  occ. eigenvalues --   -0.34866  -0.34118  -0.33366  -0.33364  -0.33045
 Alpha  occ. eigenvalues --   -0.32643  -0.32486  -0.31978  -0.31276  -0.30610
 Alpha  occ. eigenvalues --   -0.30541  -0.30410  -0.26017  -0.25519
 Alpha virt. eigenvalues --    0.03398   0.03823   0.06451   0.08012   0.08836
 Alpha virt. eigenvalues --    0.09070   0.09680   0.10266   0.10946   0.11773
 Alpha virt. eigenvalues --    0.13581   0.14118   0.14310   0.14768   0.14799

 Mulliken charges:
               1
     1  N   -0.306980
     2  C    0.181780
     3  C    0.062179
     4  N   -0.257202
     5  C    0.150326
     6  H    0.028498
     7  N   -0.293373
     8  C    0.123863
     9  H    0.011737
    10  N   -0.277348
    11  C    0.246636
    12  C    0.080936
    13  N   -0.068102
    14  H    0.115454
    15  H    0.082247
    16  H    0.021047
    17  H    0.028872
    18  H    0.030510
    19  N   -0.310398
    20  C    0.264038
    21  C    0.182122
    22  N   -0.122226
    23  H    0.121792
    24  H    0.118147
    25  N   -0.310447
    26  C    0.239695
    27  N   -0.137023
    28  H    0.119588
    29  C    0.183670
    30  O   -0.319157
    31  C   -0.011736
    32  N   -0.232354
    33  C    0.118955
    34  H    0.022557
    35  H    0.026296
    36  H    0.030927
    37  H    0.025120
    38  H    0.067447
    39  H    0.057066
    40  H    0.075795
    41  H    0.023956
    42  C   -0.120208
    43  O   -0.263150
    44  C    0.169007
    45  H    0.134739
    46  N   -0.124564
    47  O   -0.351107
    48  C    0.351235
    49  H    0.041672
    50  C    0.169981
    51  C    0.037890
    52  N   -0.277393
    53  H    0.034430
    54  H    0.041001
    55  H    0.030387
    56  H    0.118998
    57  H    0.119595
    58  N   -0.063926
    59  C    0.080552
    60  C    0.228634
    61  N   -0.262533
    62  H    0.029274
    63  C    0.168930
    64  N   -0.308414
    65  H    0.040389
    66  C    0.139850
    67  N   -0.257633
    68  C    0.025232
    69  C    0.180535
    70  N   -0.308314
 Sum of Mulliken charges =  -0.00000

 Dipole moment (field-independent basis, Debye):
    X=             -7.6330    Y=              7.2139    Z=             -0.9509  Tot=             10.5455
 Quadrupole moment (field-independent basis, Debye-Ang):
   XX=           -161.2564   YY=           -221.5068   ZZ=           -251.5684
   XY=              4.4952   XZ=            -17.1824   YZ=              9.3126

 Normal termination of Gaussian 16 at Mon Jan 22 19:57:14 2018.
