 Gaussian 16, Revision A.03,
 Gaussian 16:  EM64L-G16RevA.03 25-Dec-2016

 ---------------------------------------
 #p wb97xd/cc-pvdz sp scf=(maxcycles=20)
 ---------------------------------------

 ------------------
 Base pair stacking
 ------------------
 Symbolic Z-matrix:
 Charge =  0 Multiplicity = 1

                         Standard orientation:
 ---------------------------------------------------------------------
 Center     Atomic      Atomic             Coordinates (Angstroms)
 Number     Number       Type             X           Y           Z
 ---------------------------------------------------------------------
      1          7           0       -6.167617   -1.714671    0.653019
      2          6           0       -7.551677   -1.265475    0.899220
      3          6           0       -3.973666   -1.868718    0.640201
      4          7           0       -4.442366   -2.941145   -0.104746
      5          6           0       -5.745379   -2.805411   -0.067217
      6          1           0       -6.453064   -3.478529   -0.552025
      7          7           0       -2.555787   -0.335470    1.736431
      8          6           0       -3.667178    0.300808    2.120531
      9          1           0       -3.507265    1.190074    2.728727
     10          7           0       -4.940455    0.004915    1.867341
     11          6           0       -5.025428   -1.103849    1.113784
     12          6           0       -2.674841   -1.447793    0.979044
     13          7           0       -1.566592   -2.084331    0.594629
     14          1           0       -1.607293   -2.911656    0.033298
     15          1           0       -0.658348   -1.756120    0.854476
     16          1           0       -8.056534   -1.983859    1.377983
     17          1           0       -7.539587   -0.437841    1.459569
     18          1           0       -8.000684   -1.069244    0.027507
     19          7           0       -3.396497    2.782264   -1.358652
     20          6           0       -2.041945    2.558973   -1.300341
     21          6           0       -4.060683    4.074870   -1.096522
     22          7           0        1.178705    3.732947   -0.742756
     23          1           0        2.109238    3.367952   -0.754690
     24          1           0        1.073974    4.701055   -0.513617
     25          7           0       -1.097757    3.475527   -0.996222
     26          6           0        0.118345    2.959699   -1.021361
     27          7           0        0.391072    1.646962   -1.321139
     28          1           0        1.351589    1.339820   -1.316353
     29          6           0       -0.564621    0.686387   -1.637033
     30          8           0       -0.212554   -0.471912   -1.892237
     31          6           0       -1.875949    1.225633   -1.614094
     32          7           0       -3.101603    0.623954   -1.864356
     33          6           0       -3.972035    1.583124   -1.701400
     34          1           0       -5.050246    1.469856   -1.819327
     35          1           0       -4.695243    3.976209   -0.330756
     36          1           0       -3.371183    4.761619   -0.870159
     37          1           0       -4.563249    4.364369   -1.910421
     38          1           0        6.258106    0.289610   -0.494230
     39          1           0        6.367824    0.432284   -2.247020
     40          1           0        5.193333    1.400856   -1.356066
     41          1           0        4.466284   -3.968163   -1.838596
     42          6           0        4.154905   -2.925571   -1.773225
     43          8           0        1.840794   -3.413396   -1.957785
     44          6           0        2.761389   -2.605880   -1.834426
     45          1           0        1.502225   -0.993397   -1.781993
     46          7           0        2.476349   -1.258442   -1.742591
     47          8           0        3.025276    0.934849   -1.529706
     48          6           0        3.374519   -0.230213   -1.602681
     49          1           0        6.125982   -2.134757   -1.585470
     50          6           0        5.054754   -1.944596   -1.637045
     51          6           0        5.695148    0.445784   -1.402389
     52          7           0        4.698809   -0.618574   -1.551394
     53          1           0        4.332278    2.643628    4.258726
     54          1           0        3.085138    3.088702    3.305482
     55          1           0        4.619947    3.286431    2.786483
     56          1           0        1.932415   -3.182509    0.339241
     57          1           0        3.571955   -2.961634    0.755460
     58          7           0        2.640561   -2.596607    0.733442
     59          6           0        2.356558   -1.382336    1.208898
     60          6           0        2.868081    0.708661    2.222715
     61          7           0        1.608299    1.172932    2.180062
     62          1           0       -0.247858    0.569665    1.554461
     63          6           0        0.797358    0.272454    1.628316
     64          7           0        1.079885   -0.944259    1.151501
     65          1           0        6.039065    0.734598    2.852277
     66          6           0        5.025196    0.479043    2.542895
     67          7           0        4.680830   -0.653615    1.980609
     68          6           0        3.315612   -0.521148    1.772350
     69          6           0        4.006010    2.700083    3.315133
     70          7           0        3.977912    1.350108    2.719500
 ---------------------------------------------------------------------

 SCF Done:  E(RwB97XD) =  -2048.74103326     A.U. after   15 cycles

 The electronic state is 1-A.
 Alpha  occ. eigenvalues --  -19.26143 -19.22657 -19.20827 -14.52717 -14.51886
 Alpha  occ. eigenvalues --  -14.48884 -14.48425 -14.48005 -14.47171 -14.46943
 Alpha  occ. eigenvalues --  -14.46731 -14.45022 -14.43561 -14.43478 -14.42223
 Alpha  occ. eigenvalues --  -14.41710 -14.40989 -14.40967 -14.40565 -14.39836
 Alpha  occ. eigenvalues --  -10.45770 -10.41453 -10.40848 -10.39016 -10.38424
 Alpha  occ. eigenvalues --  -10.38196 -10.37516 -10.36525 -10.35271 -10.35032
 Alpha  occ. eigenvalues --  -10.34981 -10.34488 -10.33681 -10.33478 -10.33415
 Alpha  occ. eigenvalues --  -10.32957 -10.32753 -10.32003 -10.31451 -10.30958
 Alpha  occ. eigenvalues --  -10.30800 -10.28251 -10.28089  -1.19722  -1.14605
 Alpha  occ. eigenvalues --   -1.13831  -1.13401  -1.10966  -1.10725  -1.09622
 Alpha  occ. eigenvalues --   -1.08778  -1.08446  -1.04606  -1.04026  -1.02840
 Alpha  occ. eigenvalues --   -1.00384  -1.00010  -0.99982  -0.98730  -0.96709
 Alpha  occ. eigenvalues --   -0.96595  -0.96019  -0.92256  -0.91453  -0.87003
 Alpha  occ. eigenvalues --   -0.85361  -0.84245  -0.83820  -0.83603  -0.82606
 Alpha  occ. eigenvalues --   -0.81994  -0.79247  -0.76334  -0.74788  -0.74088
 Alpha  occ. eigenvalues --   -0.73883  -0.73698  -0.72513  -0.70678  -0.69724
 Alpha  occ. eigenvalues --   -0.67595  -0.66868  -0.66046  -0.65905  -0.64771
 Alpha  occ. eigenvalues --   -0.63989  -0.63541  -0.62868  -0.62313  -0.61947
 Alpha  occ. eigenvalues --   -0.60301  -0.59971  -0.59800  -0.59742  -0.59012
 Alpha  occ. eigenvalues --   -0.58804  -0.58608  -0.56709  -0.56250  -0.56201
 Alpha  occ. eigenvalues --   -0.56139  -0.55049  -0.54842  -0.54701  -0.54531
 Alpha  occ. eigenvalues --   -0.53874  -0.53676  -0.53155  -0.53038  -0.52977
 Alpha  occ. eigenvalues --   -0.52671  -0.52164  -0.51480  -0.50435  -0.50419
 Alpha  occ. eigenvalues --   -0.49893  -0.49806  -0.49356  -0.49307  -0.49214
 Alpha  occ. eigenvalues --   -0.48524  -0.48463  -0.47963  -0.47711  -0.47631
 Alpha  occ. eigenvalues --   -0.46613  -0.45737  -0.44653  -0.44308  -0.43830
 Alpha  occ. eigenvalues --   -0.40744  -0.40101  -0.39703  -0.37446  -0.37428
 Alpha  occ. eigenvalues --   -0.36991  -0.36851  -0.36785  -0.36247  -0.34415
 Alpha  occ. eigenvalues --   -0.34135  -0.33913  -0.33574  -0.33157  -0.33068
 Alpha  occ. eigenvalues --   -0.32724  -0.32587  -0.32440  -0.32006  -0.30563
 Alpha  occ. eigenvalues --   -0.30062  -0.29196  -0.25662  -0.25234
 Alpha virt. eigenvalues --    0.02314   0.04798   0.07214   0.08392   0.08699
 Alpha virt. eigenvalues --    0.09022   0.09609   0.11077   0.11424   0.12102
 Alpha virt. eigenvalues --    0.12992   0.14336   0.14688   0.14729   0.15600

 Mulliken charges:
               1
     1  N   -0.312239
     2  C    0.180660
     3  C    0.052783
     4  N   -0.257044
     5  C    0.132602
     6  H    0.024766
     7  N   -0.295238
     8  C    0.133668
     9  H    0.009628
    10  N   -0.292765
    11  C    0.238319
    12  C    0.111217
    13  N   -0.047761
    14  H    0.113120
    15  H    0.091248
    16  H    0.025224
    17  H    0.032815
    18  H    0.023489
    19  N   -0.311633
    20  C    0.252406
    21  C    0.180442
    22  N   -0.121299
    23  H    0.113949
    24  H    0.117599
    25  N   -0.310392
    26  C    0.246166
    27  N   -0.147237
    28  H    0.118545
    29  C    0.186309
    30  O   -0.323605
    31  C   -0.007853
    32  N   -0.225477
    33  C    0.133191
    34  H    0.024663
    35  H    0.031181
    36  H    0.028631
    37  H    0.024230
    38  H    0.061763
    39  H    0.059315
    40  H    0.072017
    41  H    0.029402
    42  C   -0.117076
    43  O   -0.275346
    44  C    0.132439
    45  H    0.136034
    46  N   -0.105673
    47  O   -0.344675
    48  C    0.342572
    49  H    0.050511
    50  C    0.183111
    51  C    0.040746
    52  N   -0.281894
    53  H    0.033157
    54  H    0.042594
    55  H    0.024465
    56  H    0.128598
    57  H    0.114606
    58  N   -0.051712
    59  C    0.084553
    60  C    0.249724
    61  N   -0.272612
    62  H    0.037572
    63  C    0.166550
    64  N   -0.302458
    65  H    0.033360
    66  C    0.134314
    67  N   -0.266637
    68  C    0.017984
    69  C    0.179841
    70  N   -0.311452
 Sum of Mulliken charges =  -0.00000

 Dipole moment (field-independent basis, Debye):
    X=              8.0740    Y=              6.5459    Z=              1.7175  Tot=             10.5351
 Quadrupole moment (field-independent basis, Debye-Ang):
   XX=           -149.4756   YY=           -221.3262   ZZ=           -251.3494
   XY=              2.2346   XZ=              5.5476   YZ=             -1.4421

 Normal termination of Gaussian 16 at Tue Jan 23 05:28:40 2018.
