 Gaussian 16, Revision A.03,
 Gaussian 16:  EM64L-G16RevA.03 25-Dec-2016

 ---------------------------------------
 #p wb97xd/cc-pvdz sp scf=(maxcycles=20)
 ---------------------------------------

 ------------------
 Base pair stacking
 ------------------
 Symbolic Z-matrix:
 Charge =  0 Multiplicity = 1

                         Standard orientation:
 ---------------------------------------------------------------------
 Center     Atomic      Atomic             Coordinates (Angstroms)
 Number     Number       Type             X           Y           Z
 ---------------------------------------------------------------------
      1          7           0       -6.896215   -1.373038    0.311977
      2          6           0       -8.251086   -0.811742    0.146809
      3          6           0       -4.734141   -1.593563    0.649752
      4          7           0       -5.224548   -2.872099    0.427112
      5          6           0       -6.507492   -2.688067    0.232527
      6          1           0       -7.223547   -3.483822    0.025176
      7          7           0       -3.294724    0.222178    1.090320
      8          6           0       -4.375569    1.003402    0.995216
      9          1           0       -4.194740    2.067309    1.142422
     10          7           0       -5.640293    0.669290    0.746734
     11          6           0       -5.752793   -0.659088    0.581900
     12          6           0       -3.440967   -1.109917    0.919428
     13          7           0       -2.363223   -1.891401    1.013992
     14          1           0       -2.424756   -2.882966    0.894706
     15          1           0       -1.458067   -1.512574    1.207181
     16          1           0       -8.862457   -1.205480    0.833383
     17          1           0       -8.217794    0.180674    0.261460
     18          1           0       -8.594927   -1.028684   -0.766812
     19          7           0       -2.614914    2.348106   -1.657179
     20          6           0       -1.278187    2.132773   -1.422993
     21          6           0       -3.316212    3.635460   -1.479396
     22          7           0        1.834046    3.323711   -0.444518
     23          1           0        2.760528    2.964430   -0.335978
     24          1           0        1.693842    4.290117   -0.227454
     25          7           0       -0.387962    3.053644   -0.994571
     26          6           0        0.824366    2.545318   -0.862322
     27          7           0        1.142629    1.235644   -1.128720
     28          1           0        2.096284    0.934314   -0.999463
     29          6           0        0.242821    0.270733   -1.570490
     30          8           0        0.632903   -0.884238   -1.781748
     31          6           0       -1.063761    0.801907   -1.717297
     32          7           0       -2.242163    0.193951   -2.127989
     33          6           0       -3.132743    1.147076   -2.076731
     34          1           0       -4.185497    1.027797   -2.335118
     35          1           0       -4.044812    3.529465   -0.803596
     36          1           0       -2.666795    4.325337   -1.162228
     37          1           0       -3.709912    3.925604   -2.350961
     38          1           0        6.859950   -0.089836    0.453560
     39          1           0        7.197036    0.061458   -1.269263
     40          1           0        5.909728    1.018837   -0.536026
     41          1           0        5.287525   -4.352251   -1.129465
     42          6           0        4.963382   -3.311869   -1.101518
     43          8           0        2.696575   -3.812875   -1.589036
     44          6           0        3.587763   -3.000357   -1.343313
     45          1           0        2.321933   -1.395804   -1.450062
     46          7           0        3.284272   -1.655112   -1.284549
     47          8           0        3.786127    0.540483   -0.993536
     48          6           0        4.149602   -0.622097   -1.024515
     49          1           0        6.887716   -2.509981   -0.654587
     50          6           0        5.831194   -2.326082   -0.845144
     51          6           0        6.419591    0.067041   -0.519860
     52          7           0        5.458358   -1.002651   -0.801870
     53          1           0        3.561533    3.785423    2.815813
     54          1           0        2.456886    3.778936    1.615069
     55          1           0        4.045910    3.656898    1.262668
     56          1           0        1.030228   -3.106199    1.737156
     57          1           0        2.635608   -2.775480    2.209875
     58          7           0        1.747519   -2.429812    1.904890
     59          6           0        1.530449   -1.124654    1.729928
     60          6           0        2.129825    1.178061    1.727156
     61          7           0        0.927168    1.613576    1.316815
     62          1           0       -0.907517    0.854958    0.807876
     63          6           0        0.094581    0.589335    1.141794
     64          7           0        0.310097   -0.718574    1.316491
     65          1           0        5.215197    1.381236    2.671268
     66          6           0        4.216662    1.047326    2.387782
     67          7           0        3.826540   -0.203735    2.369206
     68          6           0        2.505185   -0.134969    1.952064
     69          6           0        3.333600    3.407030    1.918679
     70          7           0        3.240507    1.937032    2.010604
 ---------------------------------------------------------------------

 SCF Done:  E(RwB97XD) =  -2048.70709876     A.U. after   15 cycles

 The electronic state is 1-A.
 Alpha  occ. eigenvalues --  -19.25927 -19.21978 -19.20538 -14.52430 -14.51854
 Alpha  occ. eigenvalues --  -14.49357 -14.48624 -14.47909 -14.47091 -14.46452
 Alpha  occ. eigenvalues --  -14.46333 -14.44765 -14.43242 -14.42748 -14.42546
 Alpha  occ. eigenvalues --  -14.42024 -14.41951 -14.41600 -14.40747 -14.40647
 Alpha  occ. eigenvalues --  -10.45537 -10.41196 -10.40105 -10.38881 -10.38116
 Alpha  occ. eigenvalues --  -10.37771 -10.37380 -10.36219 -10.36016 -10.35441
 Alpha  occ. eigenvalues --  -10.34679 -10.34541 -10.34281 -10.34003 -10.33766
 Alpha  occ. eigenvalues --  -10.33751 -10.33099 -10.31746 -10.31437 -10.31065
 Alpha  occ. eigenvalues --  -10.30670 -10.29176 -10.28038  -1.19482  -1.14566
 Alpha  occ. eigenvalues --   -1.13233  -1.13009  -1.11958  -1.10486  -1.09323
 Alpha  occ. eigenvalues --   -1.08734  -1.08158  -1.05595  -1.03786  -1.02517
 Alpha  occ. eigenvalues --   -1.01042  -1.00634  -0.99695  -0.98456  -0.97542
 Alpha  occ. eigenvalues --   -0.96462  -0.95825  -0.93247  -0.91041  -0.87026
 Alpha  occ. eigenvalues --   -0.85588  -0.84533  -0.84027  -0.83744  -0.82874
 Alpha  occ. eigenvalues --   -0.82389  -0.78870  -0.76262  -0.74710  -0.73972
 Alpha  occ. eigenvalues --   -0.73667  -0.73493  -0.73377  -0.71694  -0.69693
 Alpha  occ. eigenvalues --   -0.67478  -0.66894  -0.66574  -0.66052  -0.64457
 Alpha  occ. eigenvalues --   -0.63742  -0.63621  -0.63252  -0.62758  -0.61997
 Alpha  occ. eigenvalues --   -0.60789  -0.60165  -0.59861  -0.59506  -0.59430
 Alpha  occ. eigenvalues --   -0.58851  -0.58198  -0.57235  -0.56950  -0.56850
 Alpha  occ. eigenvalues --   -0.56012  -0.55892  -0.55555  -0.54700  -0.54361
 Alpha  occ. eigenvalues --   -0.53680  -0.53514  -0.53094  -0.52875  -0.52584
 Alpha  occ. eigenvalues --   -0.52396  -0.52269  -0.51999  -0.51337  -0.50749
 Alpha  occ. eigenvalues --   -0.50064  -0.49700  -0.49434  -0.49117  -0.48721
 Alpha  occ. eigenvalues --   -0.48627  -0.48184  -0.48079  -0.47822  -0.47532
 Alpha  occ. eigenvalues --   -0.47354  -0.45682  -0.45544  -0.43980  -0.42888
 Alpha  occ. eigenvalues --   -0.41816  -0.39805  -0.39489  -0.37814  -0.37384
 Alpha  occ. eigenvalues --   -0.37181  -0.36867  -0.36456  -0.35870  -0.34665
 Alpha  occ. eigenvalues --   -0.34157  -0.34029  -0.33310  -0.33161  -0.32675
 Alpha  occ. eigenvalues --   -0.32508  -0.32203  -0.31947  -0.31762  -0.31515
 Alpha  occ. eigenvalues --   -0.30955  -0.28524  -0.26396  -0.25336
 Alpha virt. eigenvalues --    0.03128   0.04492   0.07292   0.07655   0.08544
 Alpha virt. eigenvalues --    0.09330   0.09531   0.10316   0.11264   0.12078
 Alpha virt. eigenvalues --    0.12846   0.13618   0.14449   0.14478   0.14763

 Mulliken charges:
               1
     1  N   -0.312028
     2  C    0.180635
     3  C    0.038502
     4  N   -0.259002
     5  C    0.134520
     6  H    0.028529
     7  N   -0.281914
     8  C    0.118483
     9  H    0.015306
    10  N   -0.287660
    11  C    0.240172
    12  C    0.119275
    13  N   -0.053576
    14  H    0.107802
    15  H    0.088204
    16  H    0.026795
    17  H    0.034460
    18  H    0.026971
    19  N   -0.304259
    20  C    0.224990
    21  C    0.181930
    22  N   -0.093731
    23  H    0.110789
    24  H    0.116804
    25  N   -0.280246
    26  C    0.195337
    27  N   -0.109248
    28  H    0.121852
    29  C    0.131296
    30  O   -0.318235
    31  C    0.016793
    32  N   -0.220942
    33  C    0.125111
    34  H    0.028725
    35  H    0.025529
    36  H    0.027193
    37  H    0.024162
    38  H    0.060605
    39  H    0.061421
    40  H    0.070063
    41  H    0.031049
    42  C   -0.113796
    43  O   -0.266821
    44  C    0.176226
    45  H    0.136499
    46  N   -0.135988
    47  O   -0.350911
    48  C    0.361463
    49  H    0.047572
    50  C    0.176225
    51  C    0.040055
    52  N   -0.292129
    53  H    0.034582
    54  H    0.033207
    55  H    0.021131
    56  H    0.122319
    57  H    0.116694
    58  N   -0.065387
    59  C    0.117027
    60  C    0.222835
    61  N   -0.263089
    62  H    0.068195
    63  C    0.150940
    64  N   -0.299181
    65  H    0.028963
    66  C    0.129873
    67  N   -0.263226
    68  C    0.019684
    69  C    0.164136
    70  N   -0.309562
 Sum of Mulliken charges =  -0.00000

 Dipole moment (field-independent basis, Debye):
    X=              6.8779    Y=              5.7233    Z=              3.3767  Tot=              9.5636
 Quadrupole moment (field-independent basis, Debye-Ang):
   XX=           -143.5952   YY=           -224.4606   ZZ=           -254.4331
   XY=              8.1492   XZ=             12.6933   YZ=            -10.4354

 Normal termination of Gaussian 16 at Mon Jan 22 22:53:06 2018.
