 Gaussian 16, Revision A.03,
 Gaussian 16:  EM64L-G16RevA.03 25-Dec-2016

 ---------------------------------------
 #p wb97xd/cc-pvdz sp scf=(maxcycles=20)
 ---------------------------------------

 ------------------
 Base pair stacking
 ------------------
 Symbolic Z-matrix:
 Charge =  0 Multiplicity = 1

                         Standard orientation:
 ---------------------------------------------------------------------
 Center     Atomic      Atomic             Coordinates (Angstroms)
 Number     Number       Type             X           Y           Z
 ---------------------------------------------------------------------
      1          7           0       -6.956048   -1.392107    0.235547
      2          6           0       -8.328259   -0.849057    0.246816
      3          6           0       -4.780428   -1.624148    0.459505
      4          7           0       -5.246077   -2.820113   -0.067341
      5          6           0       -6.538171   -2.632445   -0.181175
      6          1           0       -7.240511   -3.372096   -0.566639
      7          7           0       -3.373109    0.065808    1.311813
      8          6           0       -4.474774    0.812413    1.440281
      9          1           0       -4.315497    1.810208    1.846827
     10          7           0       -5.737718    0.512911    1.143340
     11          6           0       -5.822859   -0.734230    0.651592
     12          6           0       -3.492048   -1.184436    0.814010
     13          7           0       -2.393499   -1.931243    0.685018
     14          1           0       -2.434519   -2.862424    0.321103
     15          1           0       -1.492538   -1.585594    0.947589
     16          1           0       -8.909891   -1.421201    0.825213
     17          1           0       -8.315624    0.083244    0.607072
     18          1           0       -8.693000   -0.839888   -0.684254
     19          7           0       -2.496711    2.571079   -1.711695
     20          6           0       -1.159344    2.328678   -1.509853
     21          6           0       -3.151935    3.889610   -1.598389
     22          7           0        2.021256    3.481084   -0.724055
     23          1           0        2.939891    3.100005   -0.623356
     24          1           0        1.918292    4.463983   -0.569052
     25          7           0       -0.226629    3.246926   -1.176782
     26          6           0        0.973910    2.709525   -1.052153
     27          7           0        1.242595    1.375204   -1.238984
     28          1           0        2.190864    1.052429   -1.122557
     29          6           0        0.298503    0.412450   -1.582011
     30          8           0        0.645606   -0.766213   -1.726954
     31          6           0       -0.996039    0.974725   -1.719441
     32          7           0       -2.206534    0.379088   -2.046284
     33          6           0       -3.065549    1.361953   -2.029636
     34          1           0       -4.130223    1.259814   -2.242518
     35          1           0       -3.857987    3.853219   -0.892020
     36          1           0       -2.470812    4.577834   -1.352041
     37          1           0       -3.568584    4.132936   -2.473608
     38          1           0        6.971894   -0.025727    0.230991
     39          1           0        7.249645   -0.002052   -1.508816
     40          1           0        6.019621    1.043972   -0.798719
     41          1           0        5.214687   -4.331830   -1.000349
     42          6           0        4.923239   -3.281952   -1.032599
     43          8           0        2.625949   -3.740734   -1.405582
     44          6           0        3.549628   -2.942895   -1.247273
     45          1           0        2.329564   -1.308890   -1.419816
     46          7           0        3.289115   -1.587598   -1.270420
     47          8           0        3.867175    0.605150   -1.148310
     48          6           0        4.194127   -0.568075   -1.112069
     49          1           0        6.885980   -2.514732   -0.708826
     50          6           0        5.829174   -2.309858   -0.874741
     51          6           0        6.500869    0.079361   -0.735014
     52          7           0        5.498155   -0.975089   -0.909428
     53          1           0        3.442161    3.289293    3.729170
     54          1           0        2.303794    3.550925    2.589976
     55          1           0        3.884453    3.570049    2.183534
     56          1           0        1.047731   -3.184325    1.004371
     57          1           0        2.657644   -2.934024    1.509961
     58          7           0        1.753039   -2.550146    1.321399
     59          6           0        1.499591   -1.250181    1.485746
     60          6           0        2.042926    0.996574    2.050209
     61          7           0        0.818773    1.484199    1.789236
     62          1           0       -1.011012    0.822021    1.145799
     63          6           0        0.006431    0.511816    1.380023
     64          7           0        0.258379   -0.790794    1.214761
     65          1           0        5.148466    1.050348    2.947356
     66          6           0        4.150505    0.767966    2.610776
     67          7           0        3.790307   -0.449618    2.286096
     68          6           0        2.456180   -0.318709    1.928735
     69          6           0        3.197618    3.141670    2.770830
     70          7           0        3.142693    1.693600    2.491402
 ---------------------------------------------------------------------

 SCF Done:  E(RwB97XD) =  -2048.74656686     A.U. after   15 cycles

 The electronic state is 1-A.
 Alpha  occ. eigenvalues --  -19.26023 -19.22341 -19.20751 -14.52577 -14.51368
 Alpha  occ. eigenvalues --  -14.49064 -14.48812 -14.48080 -14.47165 -14.47029
 Alpha  occ. eigenvalues --  -14.46335 -14.44399 -14.42758 -14.42701 -14.42250
 Alpha  occ. eigenvalues --  -14.42210 -14.41720 -14.41171 -14.40852 -14.40367
 Alpha  occ. eigenvalues --  -10.45664 -10.41448 -10.40424 -10.38385 -10.38345
 Alpha  occ. eigenvalues --  -10.37989 -10.36970 -10.35857 -10.35602 -10.35501
 Alpha  occ. eigenvalues --  -10.34479 -10.34376 -10.34269 -10.33659 -10.33342
 Alpha  occ. eigenvalues --  -10.33308 -10.33216 -10.31348 -10.31251 -10.31217
 Alpha  occ. eigenvalues --  -10.30837 -10.28816 -10.28253  -1.19583  -1.14026
 Alpha  occ. eigenvalues --   -1.13377  -1.13348  -1.11648  -1.10673  -1.09475
 Alpha  occ. eigenvalues --   -1.08786  -1.07687  -1.05201  -1.03262  -1.02711
 Alpha  occ. eigenvalues --   -1.00613  -1.00103  -0.99787  -0.98668  -0.97215
 Alpha  occ. eigenvalues --   -0.96631  -0.95285  -0.92837  -0.91224  -0.86434
 Alpha  occ. eigenvalues --   -0.84893  -0.84215  -0.84211  -0.83858  -0.82574
 Alpha  occ. eigenvalues --   -0.82539  -0.79053  -0.75693  -0.74744  -0.73896
 Alpha  occ. eigenvalues --   -0.73567  -0.73397  -0.73128  -0.71302  -0.69074
 Alpha  occ. eigenvalues --   -0.67598  -0.66735  -0.66520  -0.65419  -0.64639
 Alpha  occ. eigenvalues --   -0.63910  -0.63038  -0.62823  -0.62758  -0.61977
 Alpha  occ. eigenvalues --   -0.60393  -0.59826  -0.59694  -0.59229  -0.58901
 Alpha  occ. eigenvalues --   -0.58620  -0.58312  -0.56741  -0.56700  -0.56631
 Alpha  occ. eigenvalues --   -0.56146  -0.55549  -0.54659  -0.54566  -0.54188
 Alpha  occ. eigenvalues --   -0.53793  -0.53563  -0.53067  -0.52690  -0.52661
 Alpha  occ. eigenvalues --   -0.52305  -0.51964  -0.51619  -0.51017  -0.50417
 Alpha  occ. eigenvalues --   -0.50305  -0.49641  -0.49335  -0.49072  -0.48918
 Alpha  occ. eigenvalues --   -0.48539  -0.48384  -0.47796  -0.47778  -0.47547
 Alpha  occ. eigenvalues --   -0.47203  -0.45396  -0.45286  -0.44250  -0.43163
 Alpha  occ. eigenvalues --   -0.41420  -0.39609  -0.39494  -0.37484  -0.37418
 Alpha  occ. eigenvalues --   -0.37363  -0.36379  -0.36291  -0.36041  -0.34643
 Alpha  occ. eigenvalues --   -0.33812  -0.33744  -0.33513  -0.33142  -0.32852
 Alpha  occ. eigenvalues --   -0.32655  -0.32461  -0.32197  -0.31945  -0.31217
 Alpha  occ. eigenvalues --   -0.30576  -0.28525  -0.26013  -0.25592
 Alpha virt. eigenvalues --    0.02842   0.05183   0.07708   0.08000   0.08482
 Alpha virt. eigenvalues --    0.09331   0.09528   0.10720   0.11342   0.12032
 Alpha virt. eigenvalues --    0.12682   0.13772   0.14516   0.14650   0.15487

 Mulliken charges:
               1
     1  N   -0.311084
     2  C    0.180751
     3  C    0.034506
     4  N   -0.257602
     5  C    0.132711
     6  H    0.027197
     7  N   -0.288101
     8  C    0.127156
     9  H    0.012014
    10  N   -0.289582
    11  C    0.236917
    12  C    0.119799
    13  N   -0.049793
    14  H    0.108897
    15  H    0.089381
    16  H    0.026371
    17  H    0.034697
    18  H    0.025485
    19  N   -0.309789
    20  C    0.242751
    21  C    0.180897
    22  N   -0.121058
    23  H    0.114096
    24  H    0.117055
    25  N   -0.301157
    26  C    0.238210
    27  N   -0.127626
    28  H    0.116443
    29  C    0.155636
    30  O   -0.320882
    31  C    0.001916
    32  N   -0.222642
    33  C    0.130811
    34  H    0.029765
    35  H    0.031431
    36  H    0.028011
    37  H    0.024275
    38  H    0.060363
    39  H    0.060751
    40  H    0.071828
    41  H    0.031019
    42  C   -0.111130
    43  O   -0.274789
    44  C    0.159793
    45  H    0.137890
    46  N   -0.129766
    47  O   -0.352675
    48  C    0.361653
    49  H    0.048802
    50  C    0.181242
    51  C    0.041472
    52  N   -0.291862
    53  H    0.032486
    54  H    0.041805
    55  H    0.017231
    56  H    0.125688
    57  H    0.116100
    58  N   -0.048134
    59  C    0.104522
    60  C    0.236623
    61  N   -0.262625
    62  H    0.047701
    63  C    0.151916
    64  N   -0.298779
    65  H    0.027630
    66  C    0.130010
    67  N   -0.267162
    68  C    0.016686
    69  C    0.176646
    70  N   -0.310798
 Sum of Mulliken charges =  -0.00000

 Dipole moment (field-independent basis, Debye):
    X=              7.6204    Y=              5.9650    Z=              2.0986  Tot=              9.9023
 Quadrupole moment (field-independent basis, Debye-Ang):
   XX=           -143.3595   YY=           -222.3814   ZZ=           -251.3905
   XY=              6.6176   XZ=             13.7588   YZ=             -6.0545

 Normal termination of Gaussian 16 at Mon Jan 22 23:16:11 2018.
