 Gaussian 16, Revision A.03,
 Gaussian 16:  EM64L-G16RevA.03 25-Dec-2016

 ---------------------------------------
 #p wb97xd/cc-pvdz sp scf=(maxcycles=20)
 ---------------------------------------

 ------------------
 Base pair stacking
 ------------------
 Symbolic Z-matrix:
 Charge =  0 Multiplicity = 1

                         Standard orientation:
 ---------------------------------------------------------------------
 Center     Atomic      Atomic             Coordinates (Angstroms)
 Number     Number       Type             X           Y           Z
 ---------------------------------------------------------------------
      1          7           0       -5.869960   -1.847348    0.835732
      2          6           0       -7.252789   -1.429018    1.137059
      3          6           0       -3.675267   -1.961135    0.748028
      4          7           0       -4.149459   -3.024993   -0.005678
      5          6           0       -5.452700   -2.913856    0.077316
      6          1           0       -6.164113   -3.588733   -0.399525
      7          7           0       -2.249027   -0.427232    1.832433
      8          6           0       -3.358101    0.179980    2.266972
      9          1           0       -3.193796    1.058188    2.889880
     10          7           0       -4.633667   -0.133293    2.048612
     11          6           0       -4.724049   -1.226300    1.272988
     12          6           0       -2.373531   -1.524330    1.054009
     13          7           0       -1.267604   -2.131852    0.619252
     14          1           0       -1.312324   -2.947028    0.040716
     15          1           0       -0.357161   -1.793063    0.856878
     16          1           0       -7.728994   -2.166989    1.615388
     17          1           0       -7.236697   -0.614032    1.715552
     18          1           0       -7.733615   -1.221554    0.285141
     19          7           0       -3.735739    2.756458   -1.205807
     20          6           0       -2.376323    2.556601   -1.196711
     21          6           0       -4.413391    4.030595   -0.892636
     22          7           0        0.839978    3.776208   -0.717415
     23          1           0        1.775837    3.428568   -0.767967
     24          1           0        0.725968    4.736896   -0.462847
     25          7           0       -1.438757    3.483148   -0.902536
     26          6           0       -0.215327    2.990219   -0.979041
     27          7           0        0.070240    1.689697   -1.317559
     28          1           0        1.035611    1.400039   -1.351064
     29          6           0       -0.878433    0.719182   -1.624145
     30          8           0       -0.514795   -0.426522   -1.917165
     31          6           0       -2.197496    1.233843   -1.546205
     32          7           0       -3.420055    0.615715   -1.770199
     33          6           0       -4.301244    1.555015   -1.557064
     34          1           0       -5.380608    1.424808   -1.642424
     35          1           0       -5.020572    3.903317   -0.109098
     36          1           0       -3.728899    4.724541   -0.673129
     37          1           0       -4.947470    4.329018   -1.682901
     38          1           0        5.984114    0.421154   -0.713273
     39          1           0        6.033550    0.604932   -2.464971
     40          1           0        4.872309    1.531832   -1.514306
     41          1           0        4.223562   -3.837398   -2.095938
     42          6           0        3.896351   -2.802369   -1.996578
     43          8           0        1.586293   -3.327958   -2.116900
     44          6           0        2.496218   -2.506788   -2.005074
     45          1           0        1.211518   -0.919052   -1.874745
     46          7           0        2.190892   -1.167156   -1.873138
     47          8           0        2.708172    1.030461   -1.627975
     48          6           0        3.075100   -0.126133   -1.738962
     49          1           0        5.858455   -1.980228   -1.854951
     50          6           0        4.782950   -1.808471   -1.867279
     51          6           0        5.388916    0.587320   -1.598819
     52          7           0        4.406934   -0.491389   -1.739707
     53          1           0        4.665329    2.619556    4.197003
     54          1           0        3.379898    3.063063    3.295288
     55          1           0        4.893099    3.300230    2.731312
     56          1           0        2.239725   -3.160216    0.225068
     57          1           0        3.887977   -2.918911    0.592683
     58          7           0        2.950137   -2.570486    0.609360
     59          6           0        2.660800   -1.372512    1.121525
     60          6           0        3.168858    0.704258    2.165857
     61          7           0        1.900454    1.146377    2.174860
     62          1           0        0.035511    0.523578    1.596296
     63          6           0        1.087618    0.243852    1.629268
     64          7           0        1.375480   -0.956558    1.115746
     65          1           0        6.357927    0.773801    2.692370
     66          6           0        5.339033    0.506824    2.410350
     67          7           0        4.996154   -0.619061    1.833735
     68          6           0        3.622715   -0.506829    1.673086
     69          6           0        4.307230    2.691142    3.266065
     70          7           0        4.283098    1.354520    2.640857
 ---------------------------------------------------------------------

 SCF Done:  E(RwB97XD) =  -2048.74067439     A.U. after   15 cycles

 The electronic state is 1-A.
 Alpha  occ. eigenvalues --  -19.26119 -19.22787 -19.20802 -14.52668 -14.52054
 Alpha  occ. eigenvalues --  -14.48899 -14.48265 -14.48038 -14.47294 -14.47146
 Alpha  occ. eigenvalues --  -14.46901 -14.45203 -14.43762 -14.43750 -14.42203
 Alpha  occ. eigenvalues --  -14.41635 -14.41000 -14.40807 -14.40465 -14.39782
 Alpha  occ. eigenvalues --  -10.45724 -10.41436 -10.40803 -10.39339 -10.38408
 Alpha  occ. eigenvalues --  -10.37973 -10.37682 -10.36723 -10.35236 -10.35134
 Alpha  occ. eigenvalues --  -10.34885 -10.34483 -10.33575 -10.33520 -10.33448
 Alpha  occ. eigenvalues --  -10.32816 -10.32657 -10.32240 -10.31424 -10.30987
 Alpha  occ. eigenvalues --  -10.30693 -10.28250 -10.27949  -1.19684  -1.14790
 Alpha  occ. eigenvalues --   -1.13831  -1.13384  -1.10803  -1.10729  -1.09576
 Alpha  occ. eigenvalues --   -1.08764  -1.08751  -1.04521  -1.04324  -1.02830
 Alpha  occ. eigenvalues --   -1.00601  -0.99966  -0.99894  -0.98720  -0.96723
 Alpha  occ. eigenvalues --   -0.96505  -0.96247  -0.92175  -0.91382  -0.87198
 Alpha  occ. eigenvalues --   -0.85524  -0.84251  -0.83739  -0.83468  -0.82620
 Alpha  occ. eigenvalues --   -0.81871  -0.79189  -0.76575  -0.74788  -0.74333
 Alpha  occ. eigenvalues --   -0.73862  -0.73672  -0.72400  -0.70567  -0.69977
 Alpha  occ. eigenvalues --   -0.67579  -0.66809  -0.66343  -0.65791  -0.64765
 Alpha  occ. eigenvalues --   -0.64037  -0.63741  -0.62849  -0.62209  -0.61938
 Alpha  occ. eigenvalues --   -0.60424  -0.60068  -0.59929  -0.59666  -0.59096
 Alpha  occ. eigenvalues --   -0.58990  -0.58580  -0.56719  -0.56223  -0.56113
 Alpha  occ. eigenvalues --   -0.56004  -0.55043  -0.54839  -0.54646  -0.54439
 Alpha  occ. eigenvalues --   -0.53867  -0.53656  -0.53282  -0.53159  -0.53125
 Alpha  occ. eigenvalues --   -0.52608  -0.52364  -0.51372  -0.50419  -0.50313
 Alpha  occ. eigenvalues --   -0.49822  -0.49767  -0.49427  -0.49220  -0.49203
 Alpha  occ. eigenvalues --   -0.48555  -0.48426  -0.48067  -0.47782  -0.47612
 Alpha  occ. eigenvalues --   -0.46501  -0.45828  -0.44512  -0.44473  -0.43969
 Alpha  occ. eigenvalues --   -0.40612  -0.40301  -0.39670  -0.37449  -0.37428
 Alpha  occ. eigenvalues --   -0.37315  -0.37073  -0.36661  -0.36363  -0.34475
 Alpha  occ. eigenvalues --   -0.34178  -0.33933  -0.33783  -0.33084  -0.32979
 Alpha  occ. eigenvalues --   -0.32728  -0.32607  -0.32462  -0.32034  -0.30439
 Alpha  occ. eigenvalues --   -0.29980  -0.29220  -0.25696  -0.25062
 Alpha virt. eigenvalues --    0.02461   0.04527   0.07359   0.08318   0.08412
 Alpha virt. eigenvalues --    0.09148   0.09630   0.10916   0.11529   0.12215
 Alpha virt. eigenvalues --    0.13071   0.14386   0.14724   0.14789   0.15513

 Mulliken charges:
               1
     1  N   -0.312842
     2  C    0.180714
     3  C    0.057033
     4  N   -0.256869
     5  C    0.134364
     6  H    0.024417
     7  N   -0.296697
     8  C    0.134384
     9  H    0.009213
    10  N   -0.292976
    11  C    0.242622
    12  C    0.106770
    13  N   -0.048386
    14  H    0.114127
    15  H    0.087032
    16  H    0.024806
    17  H    0.032170
    18  H    0.023246
    19  N   -0.311213
    20  C    0.252790
    21  C    0.180479
    22  N   -0.121688
    23  H    0.114646
    24  H    0.117838
    25  N   -0.310869
    26  C    0.246668
    27  N   -0.150160
    28  H    0.121188
    29  C    0.192165
    30  O   -0.323473
    31  C   -0.011929
    32  N   -0.225206
    33  C    0.133038
    34  H    0.022777
    35  H    0.030725
    36  H    0.028873
    37  H    0.024219
    38  H    0.061951
    39  H    0.059118
    40  H    0.071859
    41  H    0.027518
    42  C   -0.119258
    43  O   -0.270361
    44  C    0.139146
    45  H    0.133816
    46  N   -0.104180
    47  O   -0.342212
    48  C    0.335030
    49  H    0.049656
    50  C    0.176495
    51  C    0.039564
    52  N   -0.278011
    53  H    0.033464
    54  H    0.042480
    55  H    0.025687
    56  H    0.127439
    57  H    0.116160
    58  N   -0.049501
    59  C    0.077255
    60  C    0.250475
    61  N   -0.273982
    62  H    0.038081
    63  C    0.165788
    64  N   -0.304924
    65  H    0.034925
    66  C    0.135624
    67  N   -0.267639
    68  C    0.025505
    69  C    0.180139
    70  N   -0.311107
 Sum of Mulliken charges =  -0.00000

 Dipole moment (field-independent basis, Debye):
    X=              8.0071    Y=              6.6720    Z=              1.6590  Tot=             10.5537
 Quadrupole moment (field-independent basis, Debye-Ang):
   XX=           -151.5072   YY=           -220.8667   ZZ=           -251.6617
   XY=              1.6978   XZ=              2.1257   YZ=             -0.8381

 Normal termination of Gaussian 16 at Tue Jan 23 04:52:36 2018.
