 Gaussian 16, Revision A.03,
 Gaussian 16:  EM64L-G16RevA.03 25-Dec-2016

 ---------------------------------------
 #p wb97xd/cc-pvdz sp scf=(maxcycles=20)
 ---------------------------------------

 ------------------
 Base pair stacking
 ------------------
 Symbolic Z-matrix:
 Charge =  0 Multiplicity = 1

                         Standard orientation:
 ---------------------------------------------------------------------
 Center     Atomic      Atomic             Coordinates (Angstroms)
 Number     Number       Type             X           Y           Z
 ---------------------------------------------------------------------
      1          7           0        5.501131   -1.588698   -1.241384
      2          6           0        6.884231   -1.074157   -1.224734
      3          6           0        3.307625   -1.732236   -1.313833
      4          7           0        3.778340   -3.032909   -1.207121
      5          6           0        5.081008   -2.894379   -1.167740
      6          1           0        5.789923   -3.718678   -1.084702
      7          7           0        1.886913    0.141679   -1.495444
      8          6           0        2.997013    0.886778   -1.504819
      9          1           0        2.835418    1.960935   -1.584434
     10          7           0        4.270772    0.506007   -1.430974
     11          6           0        4.357857   -0.831104   -1.336141
     12          6           0        2.008087   -1.200365   -1.399012
     13          7           0        0.901124   -1.945836   -1.389484
     14          1           0        0.943410   -2.943105   -1.319617
     15          1           0       -0.007676   -1.533120   -1.451840
     16          1           0        7.391942   -1.453915   -1.998169
     17          1           0        6.870570   -0.077056   -1.293525
     18          1           0        7.331326   -1.341601   -0.371160
     19          7           0        4.169373    2.210346    1.256806
     20          6           0        2.806811    2.042477    1.199287
     21          6           0        4.889628    3.460143    0.940687
     22          7           0       -0.357760    3.325693    0.566365
     23          1           0       -1.303115    3.001579    0.588438
     24          1           0       -0.210494    4.276959    0.294091
     25          7           0        1.904288    2.983492    0.847159
     26          6           0        0.667097    2.521589    0.887296
     27          7           0        0.336874    1.236774    1.244674
     28          1           0       -0.635887    0.970895    1.247197
     29          6           0        1.248948    0.251864    1.610662
     30          8           0        0.846303   -0.877487    1.915915
     31          6           0        2.582271    0.733189    1.572315
     32          7           0        3.779758    0.091986    1.858270
     33          6           0        4.691280    1.004765    1.657840
     34          1           0        5.763042    0.851216    1.788310
     35          1           0        5.523218    3.299574    0.184657
     36          1           0        4.231329    4.164524    0.678473
     37          1           0        5.400055    3.764974    1.744037
     38          1           0       -5.578701    0.093930    0.439612
     39          1           0       -5.690998    0.321302    2.183267
     40          1           0       -4.471636    1.197162    1.257315
     41          1           0       -3.977690   -4.170181    1.989024
     42          6           0       -3.621603   -3.145877    1.878393
     43          8           0       -1.331477   -3.722796    2.101101
     44          6           0       -2.215994   -2.883327    1.934673
     45          1           0       -0.888671   -1.330004    1.817601
     46          7           0       -1.873038   -1.554873    1.783527
     47          8           0       -2.326432    0.647747    1.467107
     48          6           0       -2.725623   -0.496827    1.590651
     49          1           0       -5.556036   -2.281318    1.641068
     50          6           0       -4.477916   -2.134759    1.691391
     51          6           0       -5.014135    0.267448    1.343609
     52          7           0       -4.065065   -0.830410    1.547894
     53          1           0       -5.006015    3.972438   -2.199128
     54          1           0       -3.761653    3.880618   -1.147822
     55          1           0       -5.297829    3.788151   -0.604046
     56          1           0       -2.595016   -3.029893   -1.730139
     57          1           0       -4.234551   -2.632741   -1.983653
     58          7           0       -3.304279   -2.326520   -1.778633
     59          6           0       -3.023124   -1.037237   -1.578959
     60          6           0       -3.539242    1.279146   -1.406601
     61          7           0       -2.280898    1.661400   -1.132963
     62          1           0       -0.423939    0.828805   -0.889872
     63          6           0       -1.468168    0.607062   -1.105961
     64          7           0       -1.747842   -0.685012   -1.305691
     65          1           0       -6.709331    1.612213   -1.946813
     66          6           0       -5.695187    1.237626   -1.804834
     67          7           0       -5.348347   -0.023601   -1.886676
     68          6           0       -3.983850   -0.011246   -1.636234
     69          6           0       -4.681367    3.547816   -1.353969
     70          7           0       -4.650206    2.081379   -1.517031
 ---------------------------------------------------------------------

 SCF Done:  E(RwB97XD) =  -2048.74550090     A.U. after   15 cycles

 The electronic state is 1-A.
 Alpha  occ. eigenvalues --  -19.25347 -19.21557 -19.20384 -14.52940 -14.51982
 Alpha  occ. eigenvalues --  -14.48650 -14.48635 -14.48289 -14.47382 -14.46493
 Alpha  occ. eigenvalues --  -14.45889 -14.45835 -14.44623 -14.44602 -14.42618
 Alpha  occ. eigenvalues --  -14.41640 -14.41286 -14.41026 -14.40583 -14.40298
 Alpha  occ. eigenvalues --  -10.44962 -10.40809 -10.40381 -10.39679 -10.38409
 Alpha  occ. eigenvalues --  -10.37933 -10.37604 -10.37410 -10.36051 -10.35581
 Alpha  occ. eigenvalues --  -10.34411 -10.34388 -10.33975 -10.33911 -10.33322
 Alpha  occ. eigenvalues --  -10.33078 -10.33039 -10.33025 -10.31009 -10.30718
 Alpha  occ. eigenvalues --  -10.30479 -10.28473 -10.27727  -1.19079  -1.15659
 Alpha  occ. eigenvalues --   -1.12873  -1.12593  -1.11231  -1.10214  -1.09667
 Alpha  occ. eigenvalues --   -1.08900  -1.08159  -1.05206  -1.05120  -1.02030
 Alpha  occ. eigenvalues --   -1.01450  -1.00611  -0.99165  -0.98230  -0.97252
 Alpha  occ. eigenvalues --   -0.96888  -0.96216  -0.92831  -0.90641  -0.88072
 Alpha  occ. eigenvalues --   -0.86368  -0.83942  -0.83685  -0.83133  -0.82331
 Alpha  occ. eigenvalues --   -0.82103  -0.78465  -0.77441  -0.75333  -0.74230
 Alpha  occ. eigenvalues --   -0.73209  -0.72975  -0.72908  -0.71125  -0.70832
 Alpha  occ. eigenvalues --   -0.67265  -0.66899  -0.66404  -0.66092  -0.64713
 Alpha  occ. eigenvalues --   -0.64093  -0.63418  -0.62845  -0.62468  -0.61303
 Alpha  occ. eigenvalues --   -0.60976  -0.60896  -0.60647  -0.59806  -0.59198
 Alpha  occ. eigenvalues --   -0.58884  -0.57803  -0.56936  -0.56522  -0.56062
 Alpha  occ. eigenvalues --   -0.55853  -0.55700  -0.55557  -0.54383  -0.54289
 Alpha  occ. eigenvalues --   -0.53770  -0.53685  -0.53346  -0.53232  -0.52929
 Alpha  occ. eigenvalues --   -0.52565  -0.52017  -0.51831  -0.50826  -0.50203
 Alpha  occ. eigenvalues --   -0.50115  -0.49757  -0.49308  -0.49023  -0.48926
 Alpha  occ. eigenvalues --   -0.48427  -0.48220  -0.47970  -0.47203  -0.47043
 Alpha  occ. eigenvalues --   -0.46953  -0.45684  -0.44739  -0.44546  -0.43347
 Alpha  occ. eigenvalues --   -0.41304  -0.40887  -0.39160  -0.38029  -0.37988
 Alpha  occ. eigenvalues --   -0.37585  -0.36975  -0.36686  -0.35830  -0.34993
 Alpha  occ. eigenvalues --   -0.34746  -0.33690  -0.33533  -0.33187  -0.32780
 Alpha  occ. eigenvalues --   -0.32379  -0.32160  -0.31956  -0.31611  -0.30876
 Alpha  occ. eigenvalues --   -0.30547  -0.29834  -0.25837  -0.24938
 Alpha virt. eigenvalues --    0.03209   0.03783   0.06505   0.07701   0.09158
 Alpha virt. eigenvalues --    0.09372   0.09754   0.10216   0.11250   0.12184
 Alpha virt. eigenvalues --    0.12553   0.14085   0.14312   0.14696   0.15157

 Mulliken charges:
               1
     1  N   -0.312964
     2  C    0.180554
     3  C    0.060695
     4  N   -0.261626
     5  C    0.138971
     6  H    0.026536
     7  N   -0.291050
     8  C    0.139679
     9  H    0.011089
    10  N   -0.286732
    11  C    0.255056
    12  C    0.095609
    13  N   -0.054650
    14  H    0.108658
    15  H    0.082430
    16  H    0.025303
    17  H    0.028655
    18  H    0.027767
    19  N   -0.286131
    20  C    0.214496
    21  C    0.181217
    22  N   -0.098559
    23  H    0.111334
    24  H    0.112030
    25  N   -0.298482
    26  C    0.215841
    27  N   -0.141970
    28  H    0.119282
    29  C    0.183660
    30  O   -0.323124
    31  C   -0.006884
    32  N   -0.221742
    33  C    0.126650
    34  H    0.015415
    35  H    0.027236
    36  H    0.026882
    37  H    0.022192
    38  H    0.063323
    39  H    0.056724
    40  H    0.071587
    41  H    0.027373
    42  C   -0.111041
    43  O   -0.265425
    44  C    0.173058
    45  H    0.130777
    46  N   -0.121735
    47  O   -0.334449
    48  C    0.332137
    49  H    0.045770
    50  C    0.165158
    51  C    0.035043
    52  N   -0.279960
    53  H    0.036471
    54  H    0.036073
    55  H    0.030056
    56  H    0.122739
    57  H    0.117833
    58  N   -0.059036
    59  C    0.092237
    60  C    0.240077
    61  N   -0.272465
    62  H    0.049539
    63  C    0.152277
    64  N   -0.299732
    65  H    0.038352
    66  C    0.125669
    67  N   -0.255804
    68  C    0.021170
    69  C    0.181892
    70  N   -0.299008
 Sum of Mulliken charges =  -0.00000

 Dipole moment (field-independent basis, Debye):
    X=             -7.6387    Y=              6.3875    Z=             -3.1296  Tot=             10.4376
 Quadrupole moment (field-independent basis, Debye-Ang):
   XX=           -152.5107   YY=           -223.5615   ZZ=           -256.5248
   XY=             -1.9840   XZ=             -3.9525   YZ=             12.1170

 Normal termination of Gaussian 16 at Tue Jan 23 01:00:54 2018.
