 Gaussian 16, Revision A.03,
 Gaussian 16:  EM64L-G16RevA.03 25-Dec-2016

 ---------------------------------------
 #p wb97xd/cc-pvdz sp scf=(maxcycles=20)
 ---------------------------------------

 ------------------
 Base pair stacking
 ------------------
 Symbolic Z-matrix:
 Charge =  0 Multiplicity = 1

                         Standard orientation:
 ---------------------------------------------------------------------
 Center     Atomic      Atomic             Coordinates (Angstroms)
 Number     Number       Type             X           Y           Z
 ---------------------------------------------------------------------
      1          7           0       -6.400783   -1.505024    0.623786
      2          6           0       -7.774748   -0.966316    0.620646
      3          6           0       -4.217986   -1.707841    0.801532
      4          7           0       -4.693875   -2.954311    0.421321
      5          6           0       -5.989887   -2.782233    0.329457
      6          1           0       -6.700234   -3.560249    0.048328
      7          7           0       -2.793164    0.066405    1.421944
      8          6           0       -3.894070    0.820543    1.504750
      9          1           0       -3.727171    1.856536    1.796508
     10          7           0       -5.164218    0.488658    1.282303
     11          6           0       -5.258414   -0.804260    0.930275
     12          6           0       -2.921326   -1.230317    1.065320
     13          7           0       -1.823553   -1.984720    0.982109
     14          1           0       -1.871239   -2.949697    0.721777
     15          1           0       -0.916542   -1.611284    1.177055
     16          1           0       -8.334795   -1.474000    1.275455
     17          1           0       -7.755544   -0.000683    0.878140
     18          1           0       -8.168829   -1.057903   -0.293858
     19          7           0       -3.164341    2.458909   -1.589064
     20          6           0       -1.815345    2.247612   -1.435380
     21          6           0       -3.854891    3.748516   -1.387194
     22          7           0        1.350204    3.454249   -0.670489
     23          1           0        2.282127    3.096985   -0.614496
     24          1           0        1.222524    4.423751   -0.459575
     25          7           0       -0.901375    3.175130   -1.077019
     26          6           0        0.317491    2.669309   -1.012932
     27          7           0        0.620268    1.355906   -1.279055
     28          1           0        1.580512    1.056900   -1.204941
     29          6           0       -0.304023    0.384140   -1.649472
     30          8           0        0.073652   -0.773718   -1.867344
     31          6           0       -1.617916    0.912566   -1.722550
     32          7           0       -2.818804    0.298079   -2.049942
     33          6           0       -3.705713    1.251527   -1.957567
     34          1           0       -4.772353    1.127996   -2.148089
     35          1           0       -4.539870    3.652382   -0.665831
     36          1           0       -3.187898    4.443313   -1.121420
     37          1           0       -4.302474    4.025410   -2.236783
     38          1           0        6.426740    0.056440   -0.036242
     39          1           0        6.655711    0.182034   -1.778784
     40          1           0        5.415303    1.149799   -0.981180
     41          1           0        4.764400   -4.229800   -1.454448
     42          6           0        4.441263   -3.189253   -1.421910
     43          8           0        2.149156   -3.698365   -1.759792
     44          6           0        3.052845   -2.881913   -1.582201
     45          1           0        1.780729   -1.279618   -1.633867
     46          7           0        2.751835   -1.536056   -1.524746
     47          8           0        3.267968    0.663845   -1.298364
     48          6           0        3.630332   -0.498928   -1.334564
     49          1           0        6.388625   -2.380027   -1.107700
     50          6           0        5.322063   -2.199409   -1.234827
     51          6           0        5.926429    0.198551   -0.982579
     52          7           0        4.950903   -0.875608   -1.188184
     53          1           0        4.078428    3.542954    3.259639
     54          1           0        2.903203    3.678645    2.136012
     55          1           0        4.470092    3.656751    1.679433
     56          1           0        1.632510   -3.190193    1.323721
     57          1           0        3.256311   -2.884177    1.747678
     58          7           0        2.344210   -2.524386    1.548074
     59          6           0        2.089361   -1.214728    1.579947
     60          6           0        2.638629    1.080621    1.882227
     61          7           0        1.404320    1.535231    1.609778
     62          1           0       -0.441469    0.804529    1.100111
     63          6           0        0.584475    0.523075    1.333557
     64          7           0        0.837816   -0.789301    1.301116
     65          1           0        5.770708    1.235948    2.668452
     66          6           0        4.764064    0.917291    2.396286
     67          7           0        4.400084   -0.328768    2.215905
     68          6           0        3.054650   -0.239378    1.889486
     69          6           0        3.804421    3.292768    2.331026
     70          7           0        3.748194    1.822962    2.210581
 ---------------------------------------------------------------------

 SCF Done:  E(RwB97XD) =  -2048.74669886     A.U. after   15 cycles

 The electronic state is 1-A.
 Alpha  occ. eigenvalues --  -19.25917 -19.22108 -19.20603 -14.52435 -14.51987
 Alpha  occ. eigenvalues --  -14.48893 -14.48638 -14.47878 -14.47343 -14.46802
 Alpha  occ. eigenvalues --  -14.46539 -14.45032 -14.43535 -14.43413 -14.42328
 Alpha  occ. eigenvalues --  -14.42005 -14.41508 -14.41103 -14.40710 -14.40304
 Alpha  occ. eigenvalues --  -10.45528 -10.41085 -10.40225 -10.39208 -10.38157
 Alpha  occ. eigenvalues --  -10.37852 -10.37552 -10.36576 -10.35531 -10.35200
 Alpha  occ. eigenvalues --  -10.35133 -10.34255 -10.34178 -10.33834 -10.33472
 Alpha  occ. eigenvalues --  -10.33252 -10.33175 -10.31967 -10.31140 -10.31134
 Alpha  occ. eigenvalues --  -10.30686 -10.28625 -10.28011  -1.19483  -1.14668
 Alpha  occ. eigenvalues --   -1.13174  -1.13121  -1.11460  -1.10491  -1.09324
 Alpha  occ. eigenvalues --   -1.08585  -1.08447  -1.05111  -1.04100  -1.02533
 Alpha  occ. eigenvalues --   -1.00563  -1.00492  -0.99667  -0.98489  -0.97083
 Alpha  occ. eigenvalues --   -0.96459  -0.96100  -0.92774  -0.91080  -0.87119
 Alpha  occ. eigenvalues --   -0.85570  -0.84068  -0.83985  -0.83631  -0.82446
 Alpha  occ. eigenvalues --   -0.82352  -0.78892  -0.76440  -0.74532  -0.74205
 Alpha  occ. eigenvalues --   -0.73600  -0.73386  -0.73017  -0.71188  -0.69839
 Alpha  occ. eigenvalues --   -0.67304  -0.66568  -0.66426  -0.66183  -0.64454
 Alpha  occ. eigenvalues --   -0.63720  -0.63688  -0.62828  -0.62667  -0.61651
 Alpha  occ. eigenvalues --   -0.60407  -0.60201  -0.59937  -0.59511  -0.59048
 Alpha  occ. eigenvalues --   -0.59007  -0.58279  -0.56767  -0.56608  -0.56421
 Alpha  occ. eigenvalues --   -0.55995  -0.55544  -0.54992  -0.54627  -0.54365
 Alpha  occ. eigenvalues --   -0.53731  -0.53595  -0.53057  -0.52876  -0.52794
 Alpha  occ. eigenvalues --   -0.52447  -0.52239  -0.51900  -0.50906  -0.50339
 Alpha  occ. eigenvalues --   -0.50103  -0.49467  -0.49443  -0.48865  -0.48819
 Alpha  occ. eigenvalues --   -0.48767  -0.48288  -0.48117  -0.47644  -0.47376
 Alpha  occ. eigenvalues --   -0.47079  -0.45576  -0.45062  -0.44169  -0.43814
 Alpha  occ. eigenvalues --   -0.41298  -0.40265  -0.39477  -0.37375  -0.37322
 Alpha  occ. eigenvalues --   -0.37220  -0.37153  -0.36761  -0.35945  -0.34311
 Alpha  occ. eigenvalues --   -0.33998  -0.33718  -0.33527  -0.33296  -0.33193
 Alpha  occ. eigenvalues --   -0.32633  -0.32319  -0.32003  -0.31778  -0.31050
 Alpha  occ. eigenvalues --   -0.30534  -0.29233  -0.25873  -0.25302
 Alpha virt. eigenvalues --    0.02937   0.04723   0.07337   0.07895   0.08841
 Alpha virt. eigenvalues --    0.09269   0.09704   0.10815   0.11022   0.11371
 Alpha virt. eigenvalues --    0.12873   0.14114   0.14485   0.14646   0.14868

 Mulliken charges:
               1
     1  N   -0.312197
     2  C    0.180552
     3  C    0.048951
     4  N   -0.259109
     5  C    0.133998
     6  H    0.026713
     7  N   -0.287456
     8  C    0.131237
     9  H    0.010797
    10  N   -0.291665
    11  C    0.238305
    12  C    0.115929
    13  N   -0.051426
    14  H    0.109696
    15  H    0.088971
    16  H    0.026055
    17  H    0.032765
    18  H    0.025612
    19  N   -0.307948
    20  C    0.249194
    21  C    0.179820
    22  N   -0.102127
    23  H    0.111659
    24  H    0.114401
    25  N   -0.302577
    26  C    0.226079
    27  N   -0.132999
    28  H    0.116491
    29  C    0.157933
    30  O   -0.320796
    31  C    0.009477
    32  N   -0.225149
    33  C    0.127817
    34  H    0.024341
    35  H    0.031395
    36  H    0.027347
    37  H    0.023379
    38  H    0.060670
    39  H    0.060015
    40  H    0.069961
    41  H    0.029480
    42  C   -0.117285
    43  O   -0.269015
    44  C    0.167906
    45  H    0.134951
    46  N   -0.126020
    47  O   -0.346567
    48  C    0.350506
    49  H    0.048205
    50  C    0.178156
    51  C    0.040471
    52  N   -0.285941
    53  H    0.035602
    54  H    0.036150
    55  H    0.024204
    56  H    0.126606
    57  H    0.115511
    58  N   -0.060577
    59  C    0.097883
    60  C    0.241834
    61  N   -0.271810
    62  H    0.038965
    63  C    0.168817
    64  N   -0.300703
    65  H    0.032584
    66  C    0.129007
    67  N   -0.261834
    68  C    0.011727
    69  C    0.175919
    70  N   -0.310846
 Sum of Mulliken charges =  -0.00000

 Dipole moment (field-independent basis, Debye):
    X=              7.4798    Y=              6.1140    Z=              2.5966  Tot=             10.0035
 Quadrupole moment (field-independent basis, Debye-Ang):
   XX=           -147.6319   YY=           -222.2666   ZZ=           -254.4111
   XY=              5.0069   XZ=              7.4598   YZ=             -8.0282

 Normal termination of Gaussian 16 at Mon Jan 22 18:36:17 2018.
