 Gaussian 16, Revision A.03,
 Gaussian 16:  EM64L-G16RevA.03 25-Dec-2016

 ---------------------------------------
 #p wb97xd/cc-pvdz sp scf=(maxcycles=20)
 ---------------------------------------

 ------------------
 Base pair stacking
 ------------------
 Symbolic Z-matrix:
 Charge =  0 Multiplicity = 1

                         Standard orientation:
 ---------------------------------------------------------------------
 Center     Atomic      Atomic             Coordinates (Angstroms)
 Number     Number       Type             X           Y           Z
 ---------------------------------------------------------------------
      1          7           0        5.200061   -1.576007   -1.413569
      2          6           0        6.586523   -1.070930   -1.388521
      3          6           0        3.004691   -1.702967   -1.452678
      4          7           0        3.468962   -3.010305   -1.445525
      5          6           0        4.773013   -2.881487   -1.422251
      6          1           0        5.478066   -3.713178   -1.410430
      7          7           0        1.592868    0.186264   -1.476169
      8          6           0        2.707370    0.924533   -1.455752
      9          1           0        2.551214    2.002442   -1.457619
     10          7           0        3.979833    0.533054   -1.433474
     11          6           0        4.060096   -0.807829   -1.433178
     12          6           0        1.707216   -1.159846   -1.475268
     13          7           0        0.595847   -1.898514   -1.495632
     14          1           0        0.633022   -2.898434   -1.495806
     15          1           0       -0.311305   -1.477835   -1.511384
     16          1           0        7.076778   -1.398721   -2.196216
     17          1           0        6.577978   -0.071398   -1.387834
     18          1           0        7.048222   -1.399191   -0.564466
     19          7           0        4.478877    2.129030    1.117234
     20          6           0        3.114369    1.969409    1.090723
     21          6           0        5.200104    3.370093    0.770426
     22          7           0       -0.054814    3.265515    0.509201
     23          1           0       -1.001511    2.947894    0.555329
     24          1           0        0.092611    4.212374    0.222072
     25          7           0        2.210500    2.911938    0.746163
     26          6           0        0.971555    2.458700    0.818268
     27          7           0        0.640938    1.180555    1.198483
     28          1           0       -0.333211    0.921117    1.224937
     29          6           0        1.554364    0.194242    1.557225
     30          8           0        1.151206   -0.928607    1.884950
     31          6           0        2.889573    0.666306    1.484640
     32          7           0        4.088814    0.020809    1.753052
     33          6           0        5.001600    0.925054    1.522031
     34          1           0        6.074913    0.766095    1.631638
     35          1           0        5.816424    3.196106    0.003172
     36          1           0        4.540814    4.075508    0.513518
     37          1           0        5.729423    3.681402    1.558909
     38          1           0       -5.297533    0.066771    0.533326
     39          1           0       -5.371234    0.316257    2.276013
     40          1           0       -4.166375    1.172666    1.313617
     41          1           0       -3.690793   -4.188423    2.101226
     42          6           0       -3.330689   -3.167915    1.970359
     43          8           0       -1.040025   -3.757075    2.151574
     44          6           0       -1.922579   -2.913921    1.993550
     45          1           0       -0.588279   -1.370905    1.829078
     46          7           0       -1.574563   -1.589704    1.818692
     47          8           0       -2.020689    0.611793    1.484661
     48          6           0       -2.424366   -0.528535    1.630829
     49          1           0       -5.264254   -2.293651    1.763413
     50          6           0       -4.184406   -2.153568    1.789034
     51          6           0       -4.712752    0.247655    1.422924
     52          7           0       -3.766490   -0.853813    1.620640
     53          1           0       -5.287452    4.091743   -1.777386
     54          1           0       -4.023709    3.920893   -0.759613
     55          1           0       -5.549692    3.798780   -0.193455
     56          1           0       -2.913127   -2.938481   -1.841749
     57          1           0       -4.554648   -2.516336   -2.034893
     58          7           0       -3.618636   -2.229824   -1.827489
     59          6           0       -3.325368   -0.958943   -1.544604
     60          6           0       -3.823115    1.342515   -1.202184
     61          7           0       -2.557296    1.698446   -0.927518
     62          1           0       -0.701418    0.841532   -0.779195
     63          6           0       -1.751012    0.640642   -0.989550
     64          7           0       -2.042820   -0.633033   -1.272716
     65          1           0       -7.000798    1.728432   -1.655648
     66          6           0       -5.986553    1.339726   -1.559897
     67          7           0       -5.649496    0.085453   -1.735654
     68          6           0       -4.280381    0.073446   -1.511815
     69          6           0       -4.949345    3.607883   -0.970195
     70          7           0       -4.930800    2.156145   -1.234965
 ---------------------------------------------------------------------

 SCF Done:  E(RwB97XD) =  -2048.73354079     A.U. after   15 cycles

 The electronic state is 1-A.
 Alpha  occ. eigenvalues --  -19.25197 -19.21478 -19.20382 -14.53021 -14.51941
 Alpha  occ. eigenvalues --  -14.48799 -14.48508 -14.48392 -14.47327 -14.46445
 Alpha  occ. eigenvalues --  -14.46029 -14.45953 -14.44753 -14.44705 -14.42788
 Alpha  occ. eigenvalues --  -14.41723 -14.41199 -14.40790 -14.40736 -14.40289
 Alpha  occ. eigenvalues --  -10.44881 -10.40889 -10.40544 -10.39601 -10.38513
 Alpha  occ. eigenvalues --  -10.37958 -10.37715 -10.37368 -10.36453 -10.35638
 Alpha  occ. eigenvalues --  -10.34406 -10.34188 -10.34007 -10.33902 -10.33244
 Alpha  occ. eigenvalues --  -10.33192 -10.33036 -10.32834 -10.30880 -10.30688
 Alpha  occ. eigenvalues --  -10.30605 -10.28432 -10.27811  -1.19089  -1.15790
 Alpha  occ. eigenvalues --   -1.12922  -1.12525  -1.11124  -1.10280  -1.09832
 Alpha  occ. eigenvalues --   -1.08879  -1.08232  -1.05360  -1.05150  -1.01968
 Alpha  occ. eigenvalues --   -1.01546  -1.00626  -0.99280  -0.98310  -0.97416
 Alpha  occ. eigenvalues --   -0.96836  -0.96319  -0.92842  -0.90615  -0.88195
 Alpha  occ. eigenvalues --   -0.86434  -0.83957  -0.83721  -0.83082  -0.82271
 Alpha  occ. eigenvalues --   -0.82197  -0.78431  -0.77586  -0.75498  -0.74329
 Alpha  occ. eigenvalues --   -0.73275  -0.72972  -0.72866  -0.71109  -0.70945
 Alpha  occ. eigenvalues --   -0.67419  -0.66999  -0.66397  -0.66065  -0.64848
 Alpha  occ. eigenvalues --   -0.64146  -0.63517  -0.62840  -0.62554  -0.61417
 Alpha  occ. eigenvalues --   -0.61212  -0.60955  -0.60728  -0.59911  -0.59233
 Alpha  occ. eigenvalues --   -0.58846  -0.57892  -0.57104  -0.56496  -0.55972
 Alpha  occ. eigenvalues --   -0.55923  -0.55726  -0.55635  -0.54652  -0.54239
 Alpha  occ. eigenvalues --   -0.53870  -0.53696  -0.53264  -0.53194  -0.52883
 Alpha  occ. eigenvalues --   -0.52655  -0.52030  -0.51760  -0.50755  -0.50363
 Alpha  occ. eigenvalues --   -0.49986  -0.49813  -0.49490  -0.49034  -0.48979
 Alpha  occ. eigenvalues --   -0.48496  -0.48261  -0.48018  -0.47402  -0.47057
 Alpha  occ. eigenvalues --   -0.46981  -0.45628  -0.44599  -0.44361  -0.43138
 Alpha  occ. eigenvalues --   -0.41428  -0.40841  -0.39079  -0.38188  -0.38083
 Alpha  occ. eigenvalues --   -0.37780  -0.37100  -0.36518  -0.35628  -0.35223
 Alpha  occ. eigenvalues --   -0.34896  -0.34069  -0.33450  -0.33143  -0.32738
 Alpha  occ. eigenvalues --   -0.32404  -0.31966  -0.31766  -0.31659  -0.30754
 Alpha  occ. eigenvalues --   -0.30409  -0.29883  -0.25972  -0.25053
 Alpha virt. eigenvalues --    0.03118   0.03921   0.06050   0.07937   0.09171
 Alpha virt. eigenvalues --    0.09519   0.09844   0.09962   0.11077   0.12342
 Alpha virt. eigenvalues --    0.12624   0.14123   0.14336   0.14520   0.15114

 Mulliken charges:
               1
     1  N   -0.311797
     2  C    0.180642
     3  C    0.058992
     4  N   -0.262970
     5  C    0.140741
     6  H    0.026521
     7  N   -0.286286
     8  C    0.128542
     9  H    0.018243
    10  N   -0.283527
    11  C    0.256920
    12  C    0.087331
    13  N   -0.056735
    14  H    0.108282
    15  H    0.081000
    16  H    0.024984
    17  H    0.027226
    18  H    0.028782
    19  N   -0.283828
    20  C    0.214966
    21  C    0.182414
    22  N   -0.104536
    23  H    0.110921
    24  H    0.113592
    25  N   -0.294989
    26  C    0.220379
    27  N   -0.123527
    28  H    0.112328
    29  C    0.178220
    30  O   -0.322182
    31  C   -0.006309
    32  N   -0.221087
    33  C    0.119334
    34  H    0.015803
    35  H    0.025714
    36  H    0.027582
    37  H    0.022231
    38  H    0.061331
    39  H    0.053259
    40  H    0.076196
    41  H    0.027486
    42  C   -0.110535
    43  O   -0.264299
    44  C    0.176975
    45  H    0.130628
    46  N   -0.123710
    47  O   -0.334301
    48  C    0.335989
    49  H    0.045237
    50  C    0.164149
    51  C    0.044144
    52  N   -0.279291
    53  H    0.036556
    54  H    0.036897
    55  H    0.030921
    56  H    0.120848
    57  H    0.118446
    58  N   -0.060864
    59  C    0.098520
    60  C    0.219161
    61  N   -0.266045
    62  H    0.026382
    63  C    0.176002
    64  N   -0.304911
    65  H    0.038752
    66  C    0.125671
    67  N   -0.251588
    68  C    0.011687
    69  C    0.182081
    70  N   -0.295692
 Sum of Mulliken charges =  -0.00000

 Dipole moment (field-independent basis, Debye):
    X=             -7.6625    Y=              6.5317    Z=             -2.9720  Tot=             10.4981
 Quadrupole moment (field-independent basis, Debye-Ang):
   XX=           -154.7053   YY=           -224.2100   ZZ=           -256.4119
   XY=              0.2503   XZ=             -8.0628   YZ=             13.5110

 Normal termination of Gaussian 16 at Tue Jan 23 06:04:21 2018.
