 Gaussian 16, Revision A.03,
 Gaussian 16:  EM64L-G16RevA.03 25-Dec-2016

 ---------------------------------------
 #p wb97xd/cc-pvdz sp scf=(maxcycles=20)
 ---------------------------------------

 ------------------
 Base pair stacking
 ------------------
 Symbolic Z-matrix:
 Charge =  0 Multiplicity = 1

                         Standard orientation:
 ---------------------------------------------------------------------
 Center     Atomic      Atomic             Coordinates (Angstroms)
 Number     Number       Type             X           Y           Z
 ---------------------------------------------------------------------
      1          7           0       -4.896497   -2.184206    1.419329
      2          6           0       -6.260785   -1.853431    1.874650
      3          6           0       -2.721411   -2.163978    1.093952
      4          7           0       -3.210819   -3.247011    0.378249
      5          6           0       -4.501650   -3.215854    0.602925
      6          1           0       -5.219430   -3.927785    0.194404
      7          7           0       -1.279166   -0.557407    2.043593
      8          6           0       -2.368510   -0.022853    2.604986
      9          1           0       -2.189825    0.857429    3.220968
     10          7           0       -3.639472   -0.410606    2.520116
     11          6           0       -3.748672   -1.499287    1.740830
     12          6           0       -1.422288   -1.652209    1.265130
     13          7           0       -0.336059   -2.187253    0.703870
     14          1           0       -0.394989   -2.997824    0.120159
     15          1           0        0.573139   -1.796329    0.847633
     16          1           0       -6.637815   -2.623629    2.389258
     17          1           0       -6.230260   -1.044775    2.461408
     18          1           0       -6.842604   -1.666974    1.083006
     19          7           0       -4.748683    2.512879   -0.737535
     20          6           0       -3.386874    2.395637   -0.878178
     21          6           0       -5.462511    3.740433   -0.332263
     22          7           0       -0.215338    3.802966   -0.727956
     23          1           0        0.728414    3.513164   -0.884716
     24          1           0       -0.357677    4.752389   -0.446792
     25          7           0       -2.479381    3.374291   -0.671429
     26          6           0       -1.244468    2.957147   -0.887341
     27          7           0       -0.920901    1.679760   -1.276038
     28          1           0        0.050564    1.449463   -1.418067
     29          6           0       -1.838179    0.656686   -1.494640
     30          8           0       -1.441366   -0.461921   -1.843951
     31          6           0       -3.169115    1.089704   -1.266646
     32          7           0       -4.370048    0.400921   -1.367850
     33          6           0       -5.276916    1.282944   -1.045606
     34          1           0       -6.349576    1.088468   -1.016378
     35          1           0       -5.972528    3.568789    0.509898
     36          1           0       -4.800498    4.472331   -0.176339
     37          1           0       -6.095868    4.013836   -1.055398
     38          1           0        5.088233    0.765772   -1.333045
     39          1           0        4.936402    0.969697   -3.076613
     40          1           0        3.832375    1.815013   -1.991290
     41          1           0        3.443005   -3.577576   -2.588086
     42          6           0        3.067874   -2.565311   -2.437026
     43          8           0        0.793538   -3.228624   -2.316558
     44          6           0        1.660060   -2.355012   -2.289833
     45          1           0        0.305459   -0.849379   -1.995781
     46          7           0        1.292176   -1.037711   -2.103731
     47          8           0        1.702135    1.184643   -1.879512
     48          6           0        2.122595    0.053558   -2.048416
     49          1           0        4.981689   -1.627284   -2.493971
     50          6           0        3.902935   -1.520878   -2.387587
     51          6           0        4.391706    0.904416   -2.146502
     52          7           0        3.465755   -0.230329   -2.198580
     53          1           0        5.658536    2.878819    3.699771
     54          1           0        4.258927    3.252635    2.949142
     55          1           0        5.685328    3.586634    2.229502
     56          1           0        3.162444   -2.997313   -0.082578
     57          1           0        4.823671   -2.660292    0.109344
     58          7           0        3.874231   -2.369499    0.232636
     59          6           0        3.571816   -1.196420    0.792654
     60          6           0        4.066472    0.896774    1.810285
     61          7           0        2.782607    1.261148    1.963114
     62          1           0        0.906026    0.532348    1.578533
     63          6           0        1.970193    0.316546    1.493418
     64          7           0        2.271135   -0.859045    0.932173
     65          1           0        7.284100    1.154090    1.991426
     66          6           0        6.258215    0.828724    1.816397
     67          7           0        5.921992   -0.310047    1.261580
     68          6           0        4.535012   -0.279610    1.251627
     69          6           0        5.197977    2.937874    2.814109
     70          7           0        5.185246    1.608564    2.173204
 ---------------------------------------------------------------------

 SCF Done:  E(RwB97XD) =  -2048.73802676     A.U. after   15 cycles

 The electronic state is 1-A.
 Alpha  occ. eigenvalues --  -19.25934 -19.22323 -19.20765 -14.52632 -14.52341
 Alpha  occ. eigenvalues --  -14.49098 -14.48135 -14.47840 -14.47823 -14.47101
 Alpha  occ. eigenvalues --  -14.46919 -14.45408 -14.44339 -14.44197 -14.42252
 Alpha  occ. eigenvalues --  -14.41739 -14.41277 -14.40371 -14.40362 -14.39844
 Alpha  occ. eigenvalues --  -10.45546 -10.41487 -10.40364 -10.39963 -10.38419
 Alpha  occ. eigenvalues --  -10.38063 -10.37927 -10.37135 -10.35745 -10.35061
 Alpha  occ. eigenvalues --  -10.34876 -10.34635 -10.33719 -10.33700 -10.33153
 Alpha  occ. eigenvalues --  -10.32653 -10.32600 -10.32560 -10.31185 -10.31063
 Alpha  occ. eigenvalues --  -10.30288 -10.28395 -10.27762  -1.19488  -1.15112
 Alpha  occ. eigenvalues --   -1.13416  -1.13302  -1.10862  -1.10437  -1.09656
 Alpha  occ. eigenvalues --   -1.09187  -1.08782  -1.04886  -1.04473  -1.02546
 Alpha  occ. eigenvalues --   -1.00932  -0.99987  -0.99845  -0.98790  -0.96904
 Alpha  occ. eigenvalues --   -0.96891  -0.96083  -0.92161  -0.91278  -0.87553
 Alpha  occ. eigenvalues --   -0.85787  -0.84408  -0.83643  -0.83172  -0.82776
 Alpha  occ. eigenvalues --   -0.81590  -0.79093  -0.77040  -0.74899  -0.74799
 Alpha  occ. eigenvalues --   -0.73882  -0.73457  -0.72237  -0.70476  -0.70340
 Alpha  occ. eigenvalues --   -0.67646  -0.66906  -0.66615  -0.65631  -0.64713
 Alpha  occ. eigenvalues --   -0.64276  -0.63959  -0.62884  -0.62064  -0.62022
 Alpha  occ. eigenvalues --   -0.60684  -0.60304  -0.60114  -0.59620  -0.59231
 Alpha  occ. eigenvalues --   -0.59185  -0.58616  -0.56885  -0.56131  -0.55979
 Alpha  occ. eigenvalues --   -0.55574  -0.55209  -0.54876  -0.54564  -0.54107
 Alpha  occ. eigenvalues --   -0.53879  -0.53745  -0.53543  -0.53363  -0.53226
 Alpha  occ. eigenvalues --   -0.52746  -0.52470  -0.51092  -0.50434  -0.50107
 Alpha  occ. eigenvalues --   -0.49874  -0.49641  -0.49492  -0.49304  -0.49095
 Alpha  occ. eigenvalues --   -0.48714  -0.48581  -0.48214  -0.47993  -0.47501
 Alpha  occ. eigenvalues --   -0.46302  -0.45895  -0.45670  -0.44277  -0.43236
 Alpha  occ. eigenvalues --   -0.40634  -0.40524  -0.39523  -0.37706  -0.37564
 Alpha  occ. eigenvalues --   -0.37531  -0.37512  -0.36430  -0.35986  -0.34739
 Alpha  occ. eigenvalues --   -0.34328  -0.34148  -0.33509  -0.32952  -0.32838
 Alpha  occ. eigenvalues --   -0.32782  -0.32616  -0.32572  -0.32088  -0.30222
 Alpha  occ. eigenvalues --   -0.29871  -0.29306  -0.25781  -0.25127
 Alpha virt. eigenvalues --    0.02456   0.04208   0.06768   0.08483   0.08824
 Alpha virt. eigenvalues --    0.09014   0.09526   0.10535   0.11479   0.11618
 Alpha virt. eigenvalues --    0.13355   0.14172   0.14427   0.15075   0.15164

 Mulliken charges:
               1
     1  N   -0.310924
     2  C    0.181576
     3  C    0.054032
     4  N   -0.254446
     5  C    0.144253
     6  H    0.024914
     7  N   -0.299808
     8  C    0.131845
     9  H    0.008815
    10  N   -0.288881
    11  C    0.251271
    12  C    0.095188
    13  N   -0.060823
    14  H    0.116931
    15  H    0.084938
    16  H    0.022711
    17  H    0.030418
    18  H    0.024740
    19  N   -0.310783
    20  C    0.255965
    21  C    0.180966
    22  N   -0.124003
    23  H    0.117588
    24  H    0.118771
    25  N   -0.312255
    26  C    0.250269
    27  N   -0.150632
    28  H    0.120167
    29  C    0.198370
    30  O   -0.320603
    31  C   -0.015688
    32  N   -0.227124
    33  C    0.126054
    34  H    0.021759
    35  H    0.028686
    36  H    0.030060
    37  H    0.024898
    38  H    0.066285
    39  H    0.059651
    40  H    0.074480
    41  H    0.026041
    42  C   -0.139955
    43  O   -0.268768
    44  C    0.169154
    45  H    0.131381
    46  N   -0.117957
    47  O   -0.347142
    48  C    0.345887
    49  H    0.044363
    50  C    0.177393
    51  C    0.037423
    52  N   -0.275288
    53  H    0.033856
    54  H    0.042461
    55  H    0.028176
    56  H    0.126196
    57  H    0.112387
    58  N   -0.051771
    59  C    0.096956
    60  C    0.249972
    61  N   -0.273283
    62  H    0.035283
    63  C    0.174371
    64  N   -0.317467
    65  H    0.037967
    66  C    0.136082
    67  N   -0.265595
    68  C    0.011640
    69  C    0.180705
    70  N   -0.310103
 Sum of Mulliken charges =  -0.00000

 Dipole moment (field-independent basis, Debye):
    X=              7.7685    Y=              7.3038    Z=              0.9275  Tot=             10.7031
 Quadrupole moment (field-independent basis, Debye-Ang):
   XX=           -156.7232   YY=           -220.3444   ZZ=           -250.8960
   XY=              0.6158   XZ=             -9.8576   YZ=             -0.9519

 Normal termination of Gaussian 16 at Tue Jan 23 07:02:12 2018.
