 Gaussian 16, Revision A.03,
 Gaussian 16:  EM64L-G16RevA.03 25-Dec-2016

 ---------------------------------------
 #p wb97xd/cc-pvdz sp scf=(maxcycles=20)
 ---------------------------------------

 ------------------
 Base pair stacking
 ------------------
 Symbolic Z-matrix:
 Charge =  0 Multiplicity = 1

                         Standard orientation:
 ---------------------------------------------------------------------
 Center     Atomic      Atomic             Coordinates (Angstroms)
 Number     Number       Type             X           Y           Z
 ---------------------------------------------------------------------
      1          7           0        4.232678   -2.244559   -1.787076
      2          6           0        5.575049   -1.937905   -2.318109
      3          6           0        2.085300   -2.169497   -1.317552
      4          7           0        2.582675   -3.297101   -0.680483
      5          6           0        3.856480   -3.297186   -0.988857
      6          1           0        4.574391   -4.048293   -0.658114
      7          7           0        0.640464   -0.478964   -2.103366
      8          6           0        1.708756    0.044407   -2.713625
      9          1           0        1.520783    0.955449   -3.280130
     10          7           0        2.968477   -0.386623   -2.729094
     11          6           0        3.090595   -1.510552   -2.003631
     12          6           0        0.796155   -1.610050   -1.381227
     13          7           0       -0.269056   -2.134003   -0.771328
     14          1           0       -0.200203   -2.970271   -0.226213
     15          1           0       -1.171707   -1.708740   -0.838450
     16          1           0        5.891164   -2.696921   -2.887461
     17          1           0        5.534272   -1.104323   -2.868219
     18          1           0        6.213147   -1.803988   -1.559889
     19          7           0        5.366142    2.296131    0.479650
     20          6           0        4.013115    2.216106    0.705455
     21          6           0        6.093897    3.516723    0.078101
     22          7           0        0.888775    3.728157    0.823287
     23          1           0       -0.052209    3.461907    1.030414
     24          1           0        1.045080    4.683770    0.572098
     25          7           0        3.128277    3.230914    0.599305
     26          6           0        1.896404    2.844180    0.879555
     27          7           0        1.555074    1.562198    1.236647
     28          1           0        0.587538    1.356866    1.433353
     29          6           0        2.448904    0.502212    1.352175
     30          8           0        2.037425   -0.617201    1.681321
     31          6           0        3.776315    0.902281    1.054148
     32          7           0        4.956904    0.172182    1.047389
     33          6           0        5.870695    1.038067    0.701785
     34          1           0        6.931866    0.811190    0.593576
     35          1           0        6.541906    3.365226   -0.802315
     36          1           0        5.448678    4.275188   -0.003703
     37          1           0        6.781913    3.738776    0.768129
     38          1           0       -4.465520    0.837076    1.655081
     39          1           0       -4.193802    0.961303    3.391570
     40          1           0       -3.134236    1.816955    2.270621
     41          1           0       -2.892447   -3.605850    2.620739
     42          6           0       -2.493362   -2.600403    2.486365
     43          8           0       -0.255800   -3.329551    2.188405
     44          6           0       -1.091692   -2.428620    2.254750
     45          1           0        0.291881   -0.955385    1.932863
     46          7           0       -0.691620   -1.116860    2.098304
     47          8           0       -1.038682    1.124901    1.992236
     48          6           0       -1.485897    0.001495    2.142574
     49          1           0       -4.366064   -1.605638    2.708217
     50          6           0       -3.293491   -1.528937    2.534905
     51          6           0       -3.713265    0.918694    2.425479
     52          7           0       -2.825425   -0.245952    2.369882
     53          1           0       -6.267996    3.242635   -3.154637
     54          1           0       -4.810549    3.539541   -2.483967
     55          1           0       -6.174866    3.887385   -1.658297
     56          1           0       -3.734836   -2.865939    0.211963
     57          1           0       -5.392463   -2.468663    0.144535
     58          7           0       -4.443596   -2.203026   -0.029573
     59          6           0       -4.138085   -1.017212   -0.560308
     60          6           0       -4.625585    1.132209   -1.457016
     61          7           0       -3.342598    1.462007   -1.679758
     62          1           0       -1.471153    0.658446   -1.450465
     63          6           0       -2.534327    0.472958   -1.303766
     64          7           0       -2.838385   -0.715467   -0.771993
     65          1           0       -7.837437    1.498655   -1.413666
     66          6           0       -6.814136    1.133822   -1.320450
     67          7           0       -6.481905   -0.037721   -0.835879
     68          6           0       -5.096991   -0.051605   -0.916744
     69          6           0       -5.749110    3.249147   -2.299819
     70          7           0       -5.740453    1.893895   -1.715693
 ---------------------------------------------------------------------

 SCF Done:  E(RwB97XD) =  -2048.74337405     A.U. after   15 cycles

 The electronic state is 1-A.
 Alpha  occ. eigenvalues --  -19.25717 -19.21900 -19.20854 -14.52419 -14.52331
 Alpha  occ. eigenvalues --  -14.49321 -14.48603 -14.47686 -14.47586 -14.47156
 Alpha  occ. eigenvalues --  -14.46983 -14.45399 -14.44771 -14.44536 -14.42358
 Alpha  occ. eigenvalues --  -14.42094 -14.41572 -14.40471 -14.40192 -14.40045
 Alpha  occ. eigenvalues --  -10.45299 -10.41583 -10.40296 -10.40034 -10.38521
 Alpha  occ. eigenvalues --  -10.37981 -10.37962 -10.37349 -10.36033 -10.35080
 Alpha  occ. eigenvalues --  -10.34902 -10.34814 -10.33953 -10.33755 -10.33009
 Alpha  occ. eigenvalues --  -10.32893 -10.32649 -10.32598 -10.31373 -10.30954
 Alpha  occ. eigenvalues --  -10.29928 -10.28576 -10.27814  -1.19247  -1.15228
 Alpha  occ. eigenvalues --   -1.13530  -1.12963  -1.11048  -1.10342  -1.09736
 Alpha  occ. eigenvalues --   -1.09134  -1.08868  -1.05157  -1.04643  -1.02275
 Alpha  occ. eigenvalues --   -1.01012  -1.00076  -1.00057  -0.98927  -0.97183
 Alpha  occ. eigenvalues --   -0.97092  -0.95991  -0.92349  -0.91067  -0.87740
 Alpha  occ. eigenvalues --   -0.85882  -0.84593  -0.83433  -0.83094  -0.82950
 Alpha  occ. eigenvalues --   -0.81452  -0.78804  -0.77238  -0.75044  -0.75034
 Alpha  occ. eigenvalues --   -0.73977  -0.73236  -0.72303  -0.70638  -0.70429
 Alpha  occ. eigenvalues --   -0.67754  -0.67058  -0.66465  -0.65717  -0.64695
 Alpha  occ. eigenvalues --   -0.64398  -0.63914  -0.62955  -0.62175  -0.62133
 Alpha  occ. eigenvalues --   -0.60751  -0.60356  -0.59997  -0.59518  -0.59328
 Alpha  occ. eigenvalues --   -0.59184  -0.58694  -0.57079  -0.56044  -0.56009
 Alpha  occ. eigenvalues --   -0.55331  -0.55303  -0.55099  -0.54675  -0.54375
 Alpha  occ. eigenvalues --   -0.53853  -0.53765  -0.53701  -0.53326  -0.52950
 Alpha  occ. eigenvalues --   -0.52806  -0.52283  -0.50971  -0.50512  -0.50133
 Alpha  occ. eigenvalues --   -0.49934  -0.49612  -0.49552  -0.49392  -0.49109
 Alpha  occ. eigenvalues --   -0.48571  -0.48276  -0.48243  -0.48080  -0.47461
 Alpha  occ. eigenvalues --   -0.46283  -0.45787  -0.45641  -0.44462  -0.43422
 Alpha  occ. eigenvalues --   -0.40772  -0.40698  -0.39384  -0.37979  -0.37736
 Alpha  occ. eigenvalues --   -0.37699  -0.37631  -0.36423  -0.35732  -0.35058
 Alpha  occ. eigenvalues --   -0.34570  -0.34343  -0.33328  -0.33025  -0.32976
 Alpha  occ. eigenvalues --   -0.32791  -0.32558  -0.32191  -0.32010  -0.30204
 Alpha  occ. eigenvalues --   -0.30152  -0.29915  -0.25974  -0.25240
 Alpha virt. eigenvalues --    0.03012   0.03827   0.06779   0.08323   0.08727
 Alpha virt. eigenvalues --    0.08841   0.09431   0.10446   0.11461   0.11538
 Alpha virt. eigenvalues --    0.13628   0.14012   0.14298   0.15143   0.15212

 Mulliken charges:
               1
     1  N   -0.309171
     2  C    0.182254
     3  C    0.053733
     4  N   -0.250055
     5  C    0.149674
     6  H    0.026613
     7  N   -0.300223
     8  C    0.129482
     9  H    0.008859
    10  N   -0.285013
    11  C    0.249767
    12  C    0.086652
    13  N   -0.069651
    14  H    0.116234
    15  H    0.083993
    16  H    0.020523
    17  H    0.029342
    18  H    0.028036
    19  N   -0.310825
    20  C    0.256558
    21  C    0.181176
    22  N   -0.124046
    23  H    0.118758
    24  H    0.119270
    25  N   -0.312724
    26  C    0.250583
    27  N   -0.150274
    28  H    0.121029
    29  C    0.199590
    30  O   -0.318200
    31  C   -0.016234
    32  N   -0.231859
    33  C    0.123404
    34  H    0.023562
    35  H    0.027634
    36  H    0.030928
    37  H    0.025755
    38  H    0.065696
    39  H    0.058909
    40  H    0.075453
    41  H    0.025772
    42  C   -0.134870
    43  O   -0.264401
    44  C    0.165042
    45  H    0.134240
    46  N   -0.121599
    47  O   -0.352789
    48  C    0.355913
    49  H    0.040488
    50  C    0.181974
    51  C    0.038727
    52  N   -0.278632
    53  H    0.033907
    54  H    0.042672
    55  H    0.029366
    56  H    0.117493
    57  H    0.117478
    58  N   -0.065049
    59  C    0.091740
    60  C    0.243814
    61  N   -0.269132
    62  H    0.034783
    63  C    0.175735
    64  N   -0.315689
    65  H    0.039247
    66  C    0.140437
    67  N   -0.262249
    68  C    0.020935
    69  C    0.180296
    70  N   -0.310839
 Sum of Mulliken charges =  -0.00000

 Dipole moment (field-independent basis, Debye):
    X=             -7.5013    Y=              7.7140    Z=             -0.1348  Tot=             10.7608
 Quadrupole moment (field-independent basis, Debye-Ang):
   XX=           -161.1112   YY=           -220.4457   ZZ=           -248.5725
   XY=              1.3678   XZ=            -16.2003   YZ=              2.3120

 Normal termination of Gaussian 16 at Tue Jan 23 08:35:29 2018.
