 Gaussian 16, Revision A.03,
 Gaussian 16:  EM64L-G16RevA.03 25-Dec-2016

 ---------------------------------------
 #p wb97xd/cc-pvdz sp scf=(maxcycles=20)
 ---------------------------------------

 ------------------
 Base pair stacking
 ------------------
 Symbolic Z-matrix:
 Charge =  0 Multiplicity = 1

                         Standard orientation:
 ---------------------------------------------------------------------
 Center     Atomic      Atomic             Coordinates (Angstroms)
 Number     Number       Type             X           Y           Z
 ---------------------------------------------------------------------
      1          7           0        4.594069   -1.638903   -1.735550
      2          6           0        5.982983   -1.151024   -1.839889
      3          6           0        2.400967   -1.739475   -1.603261
      4          7           0        2.852543   -3.050729   -1.565950
      5          6           0        4.155734   -2.937664   -1.647143
      6          1           0        4.852063   -3.776746   -1.646943
      7          7           0        1.008655    0.164290   -1.614622
      8          6           0        2.128174    0.888331   -1.714752
      9          1           0        1.982129    1.966764   -1.758531
     10          7           0        3.395058    0.482131   -1.768681
     11          6           0        3.462914   -0.858061   -1.707666
     12          6           0        1.110491   -1.181510   -1.555327
     13          7           0       -0.005899   -1.905985   -1.455349
     14          1           0        0.022070   -2.905106   -1.408561
     15          1           0       -0.907776   -1.474982   -1.423842
     16          1           0        6.407731   -1.524221   -2.664813
     17          1           0        5.983603   -0.152633   -1.888311
     18          1           0        6.502712   -1.444464   -1.037535
     19          7           0        5.065104    2.076678    0.848217
     20          6           0        3.699982    1.935792    0.916460
     21          6           0        5.778218    3.318925    0.489073
     22          7           0        0.517231    3.291355    0.609415
     23          1           0       -0.428392    2.984753    0.714538
     24          1           0        0.657943    4.245087    0.342390
     25          7           0        2.788067    2.900758    0.668878
     26          6           0        1.550807    2.461574    0.816960
     27          7           0        1.229081    1.176106    1.179678
     28          1           0        0.255561    0.928645    1.269034
     29          6           0        2.150897    0.166790    1.439318
     30          8           0        1.755393   -0.960825    1.759934
     31          6           0        3.484389    0.623545    1.284321
     32          7           0        4.689911   -0.045931    1.443810
     33          6           0        5.597289    0.853425    1.175418
     34          1           0        6.673152    0.677005    1.201207
     35          1           0        6.334446    3.162089   -0.326298
     36          1           0        5.112937    4.040879    0.303475
     37          1           0        6.368135    3.597378    1.246222
     38          1           0       -4.758420    0.162047    0.915404
     39          1           0       -4.701522    0.355391    2.665837
     40          1           0       -3.556719    1.227038    1.645532
     41          1           0       -3.107628   -4.162666    2.226241
     42          6           0       -2.742346   -3.143202    2.101763
     43          8           0       -0.453890   -3.767737    2.096359
     44          6           0       -1.332531   -2.908455    2.030013
     45          1           0        0.009850   -1.378376    1.817370
     46          7           0       -0.977828   -1.583867    1.872176
     47          8           0       -1.413160    0.632987    1.641466
     48          6           0       -1.822626   -0.506157    1.780596
     49          1           0       -4.672170   -2.237545    2.064463
     50          6           0       -3.591286   -2.112444    2.015504
     51          6           0       -4.107877    0.306138    1.765160
     52          7           0       -3.166785   -0.813434    1.858232
     53          1           0       -5.838935    4.138249   -1.592141
     54          1           0       -4.503409    4.001224   -0.664939
     55          1           0       -5.983235    3.926550    0.019617
     56          1           0       -3.540314   -2.916559   -1.484711
     57          1           0       -5.187838   -2.483358   -1.574775
     58          7           0       -4.236248   -2.199071   -1.452789
     59          6           0       -3.910877   -0.919732   -1.256333
     60          6           0       -4.360334    1.401926   -0.992457
     61          7           0       -3.074178    1.754611   -0.831711
     62          1           0       -1.220263    0.882252   -0.780746
     63          6           0       -2.284559    0.684783   -0.901408
     64          7           0       -2.608519   -0.597373   -1.098111
     65          1           0       -7.559570    1.805886   -1.224572
     66          6           0       -6.544567    1.409366   -1.186057
     67          7           0       -6.233201    0.143778   -1.323995
     68          6           0       -4.851239    0.125184   -1.203320
     69          6           0       -5.445136    3.690182   -0.789550
     70          7           0       -5.459875    2.227100   -0.982393
 ---------------------------------------------------------------------

 SCF Done:  E(RwB97XD) =  -2048.73754765     A.U. after   15 cycles

 The electronic state is 1-A.
 Alpha  occ. eigenvalues --  -19.25188 -19.21277 -19.20425 -14.52895 -14.51649
 Alpha  occ. eigenvalues --  -14.49013 -14.48806 -14.48416 -14.47149 -14.46515
 Alpha  occ. eigenvalues --  -14.46511 -14.45793 -14.45042 -14.44843 -14.43060
 Alpha  occ. eigenvalues --  -14.41912 -14.41120 -14.41114 -14.41107 -14.40642
 Alpha  occ. eigenvalues --  -10.44736 -10.41037 -10.40682 -10.39409 -10.38334
 Alpha  occ. eigenvalues --  -10.38020 -10.37668 -10.37200 -10.36462 -10.35829
 Alpha  occ. eigenvalues --  -10.34237 -10.34195 -10.33829 -10.33680 -10.33546
 Alpha  occ. eigenvalues --  -10.33275 -10.33103 -10.33071 -10.30989 -10.30506
 Alpha  occ. eigenvalues --  -10.30504 -10.28559 -10.28004  -1.18838  -1.15684
 Alpha  occ. eigenvalues --   -1.13051  -1.12321  -1.11072  -1.10542  -1.10029
 Alpha  occ. eigenvalues --   -1.08604  -1.08399  -1.05502  -1.05354  -1.01757
 Alpha  occ. eigenvalues --   -1.01413  -1.00842  -0.99560  -0.98430  -0.97566
 Alpha  occ. eigenvalues --   -0.96769  -0.96605  -0.93060  -0.90399  -0.88221
 Alpha  occ. eigenvalues --   -0.86331  -0.84107  -0.83804  -0.82788  -0.82486
 Alpha  occ. eigenvalues --   -0.82126  -0.78214  -0.77605  -0.75448  -0.74548
 Alpha  occ. eigenvalues --   -0.73474  -0.73048  -0.72689  -0.71211  -0.70960
 Alpha  occ. eigenvalues --   -0.67395  -0.67252  -0.66450  -0.65909  -0.64801
 Alpha  occ. eigenvalues --   -0.64192  -0.63449  -0.62913  -0.62483  -0.61677
 Alpha  occ. eigenvalues --   -0.61232  -0.60857  -0.60705  -0.59944  -0.59069
 Alpha  occ. eigenvalues --   -0.58824  -0.58192  -0.57077  -0.56621  -0.55982
 Alpha  occ. eigenvalues --   -0.55799  -0.55698  -0.55566  -0.54935  -0.54154
 Alpha  occ. eigenvalues --   -0.53867  -0.53831  -0.53276  -0.53175  -0.52855
 Alpha  occ. eigenvalues --   -0.51830  -0.51638  -0.51630  -0.50552  -0.50499
 Alpha  occ. eigenvalues --   -0.50049  -0.49941  -0.49755  -0.49031  -0.49003
 Alpha  occ. eigenvalues --   -0.48693  -0.48028  -0.47861  -0.47755  -0.47010
 Alpha  occ. eigenvalues --   -0.46944  -0.45562  -0.45258  -0.44574  -0.43008
 Alpha  occ. eigenvalues --   -0.41418  -0.41213  -0.38999  -0.38229  -0.38173
 Alpha  occ. eigenvalues --   -0.37284  -0.37252  -0.37133  -0.35367  -0.35259
 Alpha  occ. eigenvalues --   -0.34964  -0.34306  -0.33584  -0.33348  -0.32809
 Alpha  occ. eigenvalues --   -0.32393  -0.32377  -0.31775  -0.31115  -0.30710
 Alpha  occ. eigenvalues --   -0.30434  -0.30416  -0.26223  -0.25163
 Alpha virt. eigenvalues --    0.03439   0.03717   0.06209   0.07790   0.08969
 Alpha virt. eigenvalues --    0.09329   0.09819   0.10042   0.10723   0.12024
 Alpha virt. eigenvalues --    0.13245   0.14192   0.14435   0.14581   0.14643

 Mulliken charges:
               1
     1  N   -0.308367
     2  C    0.181806
     3  C    0.064043
     4  N   -0.261881
     5  C    0.146719
     6  H    0.028028
     7  N   -0.284167
     8  C    0.118136
     9  H    0.017704
    10  N   -0.269027
    11  C    0.250031
    12  C    0.080844
    13  N   -0.065386
    14  H    0.111430
    15  H    0.081586
    16  H    0.023049
    17  H    0.027925
    18  H    0.030702
    19  N   -0.304101
    20  C    0.262954
    21  C    0.183166
    22  N   -0.112086
    23  H    0.122486
    24  H    0.116751
    25  N   -0.295421
    26  C    0.198914
    27  N   -0.109740
    28  H    0.115553
    29  C    0.163816
    30  O   -0.320050
    31  C   -0.004130
    32  N   -0.228301
    33  C    0.111699
    34  H    0.019978
    35  H    0.024967
    36  H    0.029814
    37  H    0.023787
    38  H    0.069202
    39  H    0.052340
    40  H    0.078095
    41  H    0.025561
    42  C   -0.114455
    43  O   -0.264617
    44  C    0.175927
    45  H    0.132839
    46  N   -0.126546
    47  O   -0.345291
    48  C    0.347211
    49  H    0.043151
    50  C    0.165364
    51  C    0.040781
    52  N   -0.276166
    53  H    0.035169
    54  H    0.039079
    55  H    0.030973
    56  H    0.119758
    57  H    0.120078
    58  N   -0.062622
    59  C    0.087434
    60  C    0.211940
    61  N   -0.265282
    62  H    0.010045
    63  C    0.190399
    64  N   -0.308908
    65  H    0.040187
    66  C    0.133887
    67  N   -0.250802
    68  C    0.014032
    69  C    0.181646
    70  N   -0.303641
 Sum of Mulliken charges =  -0.00000

 Dipole moment (field-independent basis, Debye):
    X=             -7.6455    Y=              6.8630    Z=             -2.1900  Tot=             10.5048
 Quadrupole moment (field-independent basis, Debye-Ang):
   XX=           -159.2579   YY=           -223.3620   ZZ=           -254.2816
   XY=              3.8094   XZ=            -15.0596   YZ=             12.9948

 Normal termination of Gaussian 16 at Tue Jan 23 03:20:59 2018.
