 Gaussian 16, Revision A.03,
 Gaussian 16:  EM64L-G16RevA.03 25-Dec-2016

 ---------------------------------------
 #p wb97xd/cc-pvdz sp scf=(maxcycles=20)
 ---------------------------------------

 ------------------
 Base pair stacking
 ------------------
 Symbolic Z-matrix:
 Charge =  0 Multiplicity = 1

                         Standard orientation:
 ---------------------------------------------------------------------
 Center     Atomic      Atomic             Coordinates (Angstroms)
 Number     Number       Type             X           Y           Z
 ---------------------------------------------------------------------
      1          7           0       -7.196521   -1.334889    0.114874
      2          6           0       -8.560734   -0.775587    0.050789
      3          6           0       -5.029838   -1.575175    0.406483
      4          7           0       -5.501018   -2.804083   -0.032247
      5          6           0       -6.787509   -2.610142   -0.190367
      6          1           0       -7.491829   -3.369824   -0.530592
      7          7           0       -3.617306    0.160741    1.151008
      8          6           0       -4.710690    0.929038    1.193400
      9          1           0       -4.546003    1.954517    1.521323
     10          7           0       -5.971046    0.622226    0.892947
     11          6           0       -6.063341   -0.659605    0.502024
     12          6           0       -3.743306   -1.124261    0.753526
     13          7           0       -2.653020   -1.892763    0.710555
     14          1           0       -2.699456   -2.849867    0.422422
     15          1           0       -1.753117   -1.538219    0.964774
     16          1           0       -9.162937   -1.291496    0.660194
     17          1           0       -8.542583    0.182680    0.334542
     18          1           0       -8.904983   -0.837587   -0.886046
     19          7           0       -2.233943    2.486779   -1.733517
     20          6           0       -0.901565    2.248229   -1.497066
     21          6           0       -2.895508    3.803574   -1.638087
     22          7           0        2.254514    3.409959   -0.630304
     23          1           0        3.171288    3.031497   -0.505676
     24          1           0        2.144870    4.392662   -0.478720
     25          7           0        0.019708    3.169265   -1.140702
     26          6           0        1.218110    2.635283   -0.984765
     27          7           0        1.495201    1.301595   -1.163651
     28          1           0        2.441046    0.981518   -1.022570
     29          6           0        0.562932    0.336004   -1.530223
     30          8           0        0.916907   -0.841783   -1.665331
     31          6           0       -0.729182    0.894586   -1.701405
     32          7           0       -1.929197    0.295389   -2.058940
     33          6           0       -2.791060    1.275876   -2.065157
     34          1           0       -3.849596    1.170645   -2.305351
     35          1           0       -3.619447    3.765666   -0.950136
     36          1           0       -2.222871    4.493839   -1.374744
     37          1           0       -3.290115    4.045169   -2.523940
     38          1           0        7.188516   -0.082487    0.454631
     39          1           0        7.510990   -0.059165   -1.277455
     40          1           0        6.260172    0.983895   -0.600069
     41          1           0        5.475536   -4.394250   -0.818560
     42          6           0        5.182123   -3.345202   -0.859067
     43          8           0        2.896496   -3.810593   -1.290850
     44          6           0        3.813588   -3.010098   -1.109336
     45          1           0        2.593873   -1.379590   -1.314465
     46          7           0        3.550013   -1.655534   -1.140165
     47          8           0        4.118689    0.538876   -1.004750
     48          6           0        4.447827   -0.633413   -0.959259
     49          1           0        7.133739   -2.572337   -0.485315
     50          6           0        6.080994   -2.370496   -0.678585
     51          6           0        6.742275    0.020667   -0.523278
     52          7           0        5.747305   -1.036676   -0.722760
     53          1           0        3.189300    3.484521    3.454262
     54          1           0        2.079824    3.666900    2.271933
     55          1           0        3.669062    3.633129    1.901471
     56          1           0        0.762151   -3.158713    1.208823
     57          1           0        2.364108   -2.888299    1.729105
     58          7           0        1.469411   -2.509741    1.489471
     59          6           0        1.231106   -1.197645    1.542157
     60          6           0        1.794173    1.080591    1.935020
     61          7           0        0.583107    1.560666    1.607546
     62          1           0       -1.241563    0.871324    0.978257
     63          6           0       -0.234005    0.568480    1.259994
     64          7           0        0.002787   -0.746307    1.206584
     65          1           0        4.879932    1.168240    2.895526
     66          6           0        3.885584    0.871956    2.560233
     67          7           0        3.515120   -0.363389    2.327104
     68          6           0        2.191089   -0.245295    1.929953
     69          6           0        2.963552    3.262553    2.505701
     70          7           0        2.893980    1.797354    2.343300
 ---------------------------------------------------------------------

 SCF Done:  E(RwB97XD) =  -2048.74370319     A.U. after   15 cycles

 The electronic state is 1-A.
 Alpha  occ. eigenvalues --  -19.25998 -19.22219 -19.20778 -14.52541 -14.51245
 Alpha  occ. eigenvalues --  -14.49274 -14.48832 -14.48007 -14.47358 -14.47011
 Alpha  occ. eigenvalues --  -14.46287 -14.44208 -14.42548 -14.42513 -14.42498
 Alpha  occ. eigenvalues --  -14.42196 -14.41956 -14.41409 -14.40860 -14.40623
 Alpha  occ. eigenvalues --  -10.45628 -10.41483 -10.40309 -10.38415 -10.38232
 Alpha  occ. eigenvalues --  -10.37890 -10.36790 -10.35858 -10.35682 -10.35539
 Alpha  occ. eigenvalues --  -10.34606 -10.34468 -10.34125 -10.33900 -10.33585
 Alpha  occ. eigenvalues --  -10.33361 -10.33133 -10.31357 -10.31175 -10.31171
 Alpha  occ. eigenvalues --  -10.30831 -10.29076 -10.28291  -1.19545  -1.13913
 Alpha  occ. eigenvalues --   -1.13384  -1.13221  -1.11875  -1.10704  -1.09439
 Alpha  occ. eigenvalues --   -1.08869  -1.07543  -1.05457  -1.03116  -1.02637
 Alpha  occ. eigenvalues --   -1.00861  -1.00271  -0.99615  -0.98672  -0.97435
 Alpha  occ. eigenvalues --   -0.96652  -0.95147  -0.93089  -0.91153  -0.86312
 Alpha  occ. eigenvalues --   -0.84778  -0.84428  -0.84247  -0.83854  -0.82776
 Alpha  occ. eigenvalues --   -0.82562  -0.78991  -0.75554  -0.74781  -0.73981
 Alpha  occ. eigenvalues --   -0.73501  -0.73371  -0.73246  -0.71545  -0.68947
 Alpha  occ. eigenvalues --   -0.67675  -0.66750  -0.66682  -0.65284  -0.64601
 Alpha  occ. eigenvalues --   -0.63909  -0.63196  -0.62876  -0.62711  -0.62092
 Alpha  occ. eigenvalues --   -0.60597  -0.59756  -0.59642  -0.59140  -0.59091
 Alpha  occ. eigenvalues --   -0.58643  -0.58213  -0.56895  -0.56856  -0.56736
 Alpha  occ. eigenvalues --   -0.56127  -0.55772  -0.54735  -0.54527  -0.54083
 Alpha  occ. eigenvalues --   -0.53787  -0.53522  -0.53077  -0.52664  -0.52565
 Alpha  occ. eigenvalues --   -0.52183  -0.52074  -0.51503  -0.51227  -0.50622
 Alpha  occ. eigenvalues --   -0.50289  -0.49583  -0.49510  -0.48985  -0.48748
 Alpha  occ. eigenvalues --   -0.48590  -0.48392  -0.47915  -0.47617  -0.47469
 Alpha  occ. eigenvalues --   -0.47417  -0.45553  -0.45266  -0.44162  -0.43024
 Alpha  occ. eigenvalues --   -0.41666  -0.39589  -0.39310  -0.37682  -0.37539
 Alpha  occ. eigenvalues --   -0.37378  -0.36228  -0.36193  -0.35936  -0.34904
 Alpha  occ. eigenvalues --   -0.34015  -0.33976  -0.33398  -0.33009  -0.32896
 Alpha  occ. eigenvalues --   -0.32541  -0.32267  -0.32084  -0.31968  -0.31466
 Alpha  occ. eigenvalues --   -0.30802  -0.28404  -0.26252  -0.25581
 Alpha virt. eigenvalues --    0.02995   0.05350   0.07460   0.08259   0.08329
 Alpha virt. eigenvalues --    0.09342   0.09511   0.10454   0.11336   0.12285
 Alpha virt. eigenvalues --    0.12694   0.13580   0.14488   0.14618   0.15345

 Mulliken charges:
               1
     1  N   -0.310987
     2  C    0.180785
     3  C    0.031424
     4  N   -0.258036
     5  C    0.133565
     6  H    0.028092
     7  N   -0.286760
     8  C    0.124289
     9  H    0.013498
    10  N   -0.287955
    11  C    0.238625
    12  C    0.117378
    13  N   -0.049623
    14  H    0.107935
    15  H    0.089002
    16  H    0.026704
    17  H    0.035302
    18  H    0.026145
    19  N   -0.307501
    20  C    0.239241
    21  C    0.181383
    22  N   -0.118548
    23  H    0.116076
    24  H    0.117082
    25  N   -0.292099
    26  C    0.229026
    27  N   -0.121786
    28  H    0.117956
    29  C    0.155986
    30  O   -0.321754
    31  C   -0.007385
    32  N   -0.220971
    33  C    0.131680
    34  H    0.030647
    35  H    0.030886
    36  H    0.027928
    37  H    0.024421
    38  H    0.059927
    39  H    0.061104
    40  H    0.071480
    41  H    0.031445
    42  C   -0.110531
    43  O   -0.272165
    44  C    0.169531
    45  H    0.135783
    46  N   -0.134784
    47  O   -0.353756
    48  C    0.366886
    49  H    0.048253
    50  C    0.177865
    51  C    0.041475
    52  N   -0.295344
    53  H    0.032579
    54  H    0.042599
    55  H    0.008738
    56  H    0.122185
    57  H    0.117344
    58  N   -0.052149
    59  C    0.112627
    60  C    0.233223
    61  N   -0.260259
    62  H    0.046347
    63  C    0.149016
    64  N   -0.298916
    65  H    0.025750
    66  C    0.129872
    67  N   -0.265483
    68  C    0.019691
    69  C    0.175438
    70  N   -0.307425
 Sum of Mulliken charges =  -0.00000

 Dipole moment (field-independent basis, Debye):
    X=              7.2885    Y=              5.8439    Z=              2.3467  Tot=              9.6323
 Quadrupole moment (field-independent basis, Debye-Ang):
   XX=           -141.3060   YY=           -223.1128   ZZ=           -251.4057
   XY=              8.6478   XZ=             15.8249   YZ=             -7.4812

 Normal termination of Gaussian 16 at Tue Jan 23 12:38:56 2018.
