 Gaussian 16, Revision A.03,
 Gaussian 16:  EM64L-G16RevA.03 25-Dec-2016

 ---------------------------------------
 #p wb97xd/cc-pvdz sp scf=(maxcycles=20)
 ---------------------------------------

 ------------------
 Base pair stacking
 ------------------
 Symbolic Z-matrix:
 Charge =  0 Multiplicity = 1

                         Standard orientation:
 ---------------------------------------------------------------------
 Center     Atomic      Atomic             Coordinates (Angstroms)
 Number     Number       Type             X           Y           Z
 ---------------------------------------------------------------------
      1          7           0       -6.438902   -1.567838    0.531032
      2          6           0       -7.820383   -1.068762    0.673937
      3          6           0       -4.249797   -1.762191    0.617067
      4          7           0       -4.715920   -2.902804   -0.020465
      5          6           0       -6.016115   -2.740064   -0.046783
      6          1           0       -6.721231   -3.450410   -0.479417
      7          7           0       -2.837332   -0.141522    1.587283
      8          6           0       -3.947044    0.553960    1.856406
      9          1           0       -3.788747    1.502856    2.367087
     10          7           0       -5.216969    0.254688    1.590647
     11          6           0       -5.300200   -0.929977    0.962900
     12          6           0       -2.954565   -1.329544    0.954866
     13          7           0       -1.847990   -2.025253    0.685361
     14          1           0       -1.887435   -2.909519    0.218735
     15          1           0       -0.942303   -1.686491    0.940550
     16          1           0       -8.357482   -1.719523    1.210770
     17          1           0       -7.809477   -0.183769    1.138480
     18          1           0       -8.234216   -0.963571   -0.230316
     19          7           0       -3.090412    2.685230   -1.545323
     20          6           0       -1.741424    2.452666   -1.426203
     21          6           0       -3.752085    3.990929   -1.350286
     22          7           0        1.465736    3.616900   -0.777778
     23          1           0        2.392493    3.244004   -0.741276
     24          1           0        1.361268    4.592587   -0.583306
     25          7           0       -0.801283    3.370491   -1.113498
     26          6           0        0.409880    2.844064   -1.074106
     27          7           0        0.681715    1.520317   -1.321708
     28          1           0        1.638320    1.205514   -1.269119
     29          6           0       -0.269866    0.558196   -1.645264
     30          8           0        0.080950   -0.610449   -1.850008
     31          6           0       -1.575873    1.108763   -1.691373
     32          7           0       -2.796368    0.509675   -1.971324
     33          6           0       -3.663368    1.480690   -1.873131
     34          1           0       -4.737110    1.372694   -2.030280
     35          1           0       -4.417324    3.921730   -0.607670
     36          1           0       -3.065547    4.678735   -1.118195
     37          1           0       -4.219306    4.258761   -2.192167
     38          1           0        6.498277    0.141110   -0.220011
     39          1           0        6.678528    0.227500   -1.970643
     40          1           0        5.479040    1.233408   -1.157783
     41          1           0        4.720450   -4.141943   -1.501160
     42          6           0        4.416686   -3.095265   -1.480779
     43          8           0        2.107135   -3.569460   -1.741985
     44          6           0        3.029791   -2.766116   -1.607339
     45          1           0        1.784976   -1.142394   -1.655384
     46          7           0        2.754215   -1.414144   -1.568994
     47          8           0        3.315193    0.780156   -1.402957
     48          6           0        3.655916   -0.389486   -1.425590
     49          1           0        6.386262   -2.315300   -1.239491
     50          6           0        5.319776   -2.117975   -1.339565
     51          6           0        5.973158    0.273222   -1.154287
     52          7           0        4.973388   -0.787004   -1.309557
     53          1           0        4.022959    2.976391    4.015711
     54          1           0        2.820059    3.334164    2.973045
     55          1           0        4.376071    3.444426    2.492653
     56          1           0        1.632536   -3.208568    0.684390
     57          1           0        3.261051   -2.972162    1.134018
     58          7           0        2.339335   -2.595052    1.036796
     59          6           0        2.065948   -1.330100    1.362881
     60          6           0        2.588107    0.851895    2.155328
     61          7           0        1.341204    1.331259    2.014321
     62          1           0       -0.504918    0.695365    1.391372
     63          6           0        0.530222    0.389387    1.536747
     64          7           0        0.802117   -0.878118    1.209526
     65          1           0        5.734970    0.890773    2.895528
     66          6           0        4.727102    0.620555    2.579116
     67          7           0        4.377487   -0.561659    2.134329
     68          6           0        3.023648   -0.428636    1.861974
     69          6           0        3.731174    2.932418    3.060231
     70          7           0        3.693905    1.524821    2.618354
 ---------------------------------------------------------------------

 SCF Done:  E(RwB97XD) =  -2048.74586482     A.U. after   15 cycles

 The electronic state is 1-A.
 Alpha  occ. eigenvalues --  -19.26077 -19.22472 -19.20784 -14.52657 -14.51738
 Alpha  occ. eigenvalues --  -14.48818 -14.48667 -14.48028 -14.47100 -14.46925
 Alpha  occ. eigenvalues --  -14.46620 -14.44842 -14.43331 -14.43224 -14.42181
 Alpha  occ. eigenvalues --  -14.41924 -14.41264 -14.40889 -14.40789 -14.40015
 Alpha  occ. eigenvalues --  -10.45716 -10.41398 -10.40626 -10.38816 -10.38371
 Alpha  occ. eigenvalues --  -10.38173 -10.37351 -10.36330 -10.35348 -10.35211
 Alpha  occ. eigenvalues --  -10.34837 -10.34447 -10.33939 -10.33437 -10.33335
 Alpha  occ. eigenvalues --  -10.33212 -10.32964 -10.31778 -10.31374 -10.30963
 Alpha  occ. eigenvalues --  -10.30876 -10.28350 -10.28206  -1.19658  -1.14430
 Alpha  occ. eigenvalues --   -1.13565  -1.13355  -1.11221  -1.10667  -1.09551
 Alpha  occ. eigenvalues --   -1.08728  -1.08205  -1.04816  -1.03778  -1.02771
 Alpha  occ. eigenvalues --   -1.00237  -1.00201  -0.99955  -0.98675  -0.96825
 Alpha  occ. eigenvalues --   -0.96641  -0.95788  -0.92464  -0.91358  -0.86831
 Alpha  occ. eigenvalues --   -0.85235  -0.84187  -0.83829  -0.83819  -0.82540
 Alpha  occ. eigenvalues --   -0.82210  -0.79160  -0.76132  -0.74728  -0.73888
 Alpha  occ. eigenvalues --   -0.73830  -0.73626  -0.72738  -0.70904  -0.69509
 Alpha  occ. eigenvalues --   -0.67544  -0.66816  -0.66136  -0.65836  -0.64694
 Alpha  occ. eigenvalues --   -0.63918  -0.63322  -0.62821  -0.62525  -0.61895
 Alpha  occ. eigenvalues --   -0.60139  -0.60071  -0.59745  -0.59598  -0.58943
 Alpha  occ. eigenvalues --   -0.58667  -0.58567  -0.56669  -0.56393  -0.56334
 Alpha  occ. eigenvalues --   -0.56183  -0.55228  -0.54730  -0.54636  -0.54469
 Alpha  occ. eigenvalues --   -0.53808  -0.53650  -0.53083  -0.52921  -0.52770
 Alpha  occ. eigenvalues --   -0.52634  -0.51995  -0.51671  -0.50652  -0.50336
 Alpha  occ. eigenvalues --   -0.50084  -0.49719  -0.49270  -0.49248  -0.49106
 Alpha  occ. eigenvalues --   -0.48572  -0.48430  -0.47972  -0.47668  -0.47577
 Alpha  occ. eigenvalues --   -0.46828  -0.45612  -0.44885  -0.44394  -0.43560
 Alpha  occ. eigenvalues --   -0.40998  -0.39929  -0.39647  -0.37398  -0.37359
 Alpha  occ. eigenvalues --   -0.37034  -0.36790  -0.36674  -0.36106  -0.34331
 Alpha  occ. eigenvalues --   -0.33991  -0.33717  -0.33435  -0.33292  -0.33167
 Alpha  occ. eigenvalues --   -0.32794  -0.32482  -0.32329  -0.31932  -0.30795
 Alpha  occ. eigenvalues --   -0.30250  -0.29033  -0.25592  -0.25531
 Alpha virt. eigenvalues --    0.02519   0.04993   0.07350   0.08163   0.08869
 Alpha virt. eigenvalues --    0.09022   0.09613   0.11110   0.11264   0.11806
 Alpha virt. eigenvalues --    0.12811   0.14162   0.14644   0.14661   0.15524

 Mulliken charges:
               1
     1  N   -0.311742
     2  C    0.180625
     3  C    0.047108
     4  N   -0.257495
     5  C    0.132365
     6  H    0.025634
     7  N   -0.292561
     8  C    0.132184
     9  H    0.010233
    10  N   -0.292131
    11  C    0.236559
    12  C    0.115385
    13  N   -0.048813
    14  H    0.111359
    15  H    0.091740
    16  H    0.025693
    17  H    0.033356
    18  H    0.024292
    19  N   -0.311641
    20  C    0.251990
    21  C    0.180462
    22  N   -0.119516
    23  H    0.113017
    24  H    0.116866
    25  N   -0.308357
    26  C    0.243522
    27  N   -0.140569
    28  H    0.115820
    29  C    0.173446
    30  O   -0.322260
    31  C   -0.000669
    32  N   -0.225370
    33  C    0.131443
    34  H    0.026274
    35  H    0.031573
    36  H    0.028256
    37  H    0.024040
    38  H    0.061242
    39  H    0.059787
    40  H    0.071831
    41  H    0.029946
    42  C   -0.116474
    43  O   -0.275829
    44  C    0.144263
    45  H    0.137048
    46  N   -0.115185
    47  O   -0.348041
    48  C    0.350885
    49  H    0.049977
    50  C    0.184406
    51  C    0.041164
    52  N   -0.285121
    53  H    0.033131
    54  H    0.041980
    55  H    0.022818
    56  H    0.129133
    57  H    0.111993
    58  N   -0.049992
    59  C    0.091316
    60  C    0.244943
    61  N   -0.270684
    62  H    0.038224
    63  C    0.167303
    64  N   -0.300165
    65  H    0.031613
    66  C    0.132097
    67  N   -0.265393
    68  C    0.012595
    69  C    0.179130
    70  N   -0.312058
 Sum of Mulliken charges =  -0.00000

 Dipole moment (field-independent basis, Debye):
    X=              7.9418    Y=              6.3061    Z=              1.8560  Tot=             10.3094
 Quadrupole moment (field-independent basis, Debye-Ang):
   XX=           -147.4487   YY=           -221.5465   ZZ=           -251.9591
   XY=              3.5808   XZ=              8.3782   YZ=             -3.7284

 Normal termination of Gaussian 16 at Tue Jan 23 01:58:49 2018.
