 Gaussian 16, Revision A.03,
 Gaussian 16:  EM64L-G16RevA.03 25-Dec-2016

 ---------------------------------------
 #p wb97xd/cc-pvdz sp scf=(maxcycles=20)
 ---------------------------------------

 ------------------
 Base pair stacking
 ------------------
 Symbolic Z-matrix:
 Charge =  0 Multiplicity = 1

                         Standard orientation:
 ---------------------------------------------------------------------
 Center     Atomic      Atomic             Coordinates (Angstroms)
 Number     Number       Type             X           Y           Z
 ---------------------------------------------------------------------
      1          7           0       -5.848639   -1.738310    0.958454
      2          6           0       -7.231912   -1.261665    1.151847
      3          6           0       -3.654097   -1.882265    0.934355
      4          7           0       -4.126588   -3.063015    0.379991
      5          6           0       -5.429808   -2.929025    0.416699
      6          1           0       -6.140076   -3.674830    0.058580
      7          7           0       -2.230432   -0.185655    1.745311
      8          6           0       -3.340277    0.499124    2.040089
      9          1           0       -3.177339    1.475614    2.494163
     10          7           0       -4.615175    0.160366    1.859047
     11          6           0       -4.703864   -1.055860    1.295703
     12          6           0       -2.353231   -1.406182    1.179331
     13          7           0       -1.246539   -2.091279    0.884341
     14          1           0       -1.289992   -2.998534    0.464552
     15          1           0       -0.336750   -1.721244    1.072781
     16          1           0       -7.724034   -1.895693    1.748495
     17          1           0       -7.217077   -0.354400    1.571089
     18          1           0       -7.695851   -1.210774    0.267443
     19          7           0       -3.773617    2.566084   -1.343468
     20          6           0       -2.413676    2.374091   -1.301364
     21          6           0       -4.464312    3.842837   -1.072258
     22          7           0        0.785398    3.621734   -0.780738
     23          1           0        1.723886    3.278338   -0.804010
     24          1           0        0.661057    4.587016   -0.549440
     25          7           0       -1.487363    3.311993   -1.007540
     26          6           0       -0.260060    2.824396   -1.047539
     27          7           0        0.039326    1.518521   -1.351790
     28          1           0        1.006674    1.233640   -1.358649
     29          6           0       -0.897617    0.536342   -1.657302
     30          8           0       -0.521947   -0.613340   -1.917758
     31          6           0       -2.220670    1.045159   -1.618355
     32          7           0       -3.434998    0.415514   -1.854699
     33          6           0       -4.325343    1.354217   -1.680544
     34          1           0       -5.401966    1.216163   -1.785839
     35          1           0       -5.087324    3.729015   -0.299148
     36          1           0       -3.788222    4.545153   -0.853398
     37          1           0       -4.983022    4.121206   -1.879883
     38          1           0        5.945500    0.296431   -0.595550
     39          1           0        6.031152    0.442812   -2.349366
     40          1           0        4.845241    1.383398   -1.443674
     41          1           0        4.236646   -4.000645   -1.922760
     42          6           0        3.902079   -2.965569   -1.852704
     43          8           0        1.597833   -3.506570   -2.010385
     44          6           0        2.500932   -2.678090   -1.897139
     45          1           0        1.205599   -1.095158   -1.828282
     46          7           0        2.185979   -1.337673   -1.800642
     47          8           0        2.686612    0.867572   -1.592144
     48          6           0        3.061764   -0.289066   -1.670351
     49          1           0        5.856467   -2.129579   -1.687490
     50          6           0        4.780604   -1.964171   -1.726216
     51          6           0        5.368388    0.440199   -1.496848
     52          7           0        4.395185   -0.646774   -1.635097
     53          1           0        4.674370    3.193254    3.639741
     54          1           0        3.409349    3.472885    2.647966
     55          1           0        4.934413    3.591349    2.078551
     56          1           0        2.255911   -3.200099    0.751567
     57          1           0        3.900095   -2.907372    1.099519
     58          7           0        2.965863   -2.554990    1.034329
     59          6           0        2.680527   -1.281235    1.312332
     60          6           0        3.192653    0.948315    1.967010
     61          7           0        1.929038    1.393801    1.870877
     62          1           0        0.067769    0.688896    1.381566
     63          6           0        1.116131    0.412342    1.485082
     64          7           0        1.399997   -0.864065    1.206161
     65          1           0        6.372793    1.090177    2.531593
     66          6           0        5.356108    0.783365    2.284299
     67          7           0        5.011211   -0.426778    1.917845
     68          6           0        3.641996   -0.335969    1.713556
     69          6           0        4.333044    3.095179    2.704932
     70          7           0        4.305439    1.666649    2.335401
 ---------------------------------------------------------------------

 SCF Done:  E(RwB97XD) =  -2048.74974199     A.U. after   15 cycles

 The electronic state is 1-A.
 Alpha  occ. eigenvalues --  -19.25916 -19.22339 -19.20641 -14.52449 -14.52243
 Alpha  occ. eigenvalues --  -14.48738 -14.48432 -14.47848 -14.47761 -14.46955
 Alpha  occ. eigenvalues --  -14.46660 -14.45348 -14.43964 -14.43946 -14.42024
 Alpha  occ. eigenvalues --  -14.41944 -14.40995 -14.40858 -14.40688 -14.39998
 Alpha  occ. eigenvalues --  -10.45506 -10.41235 -10.40375 -10.39598 -10.38242
 Alpha  occ. eigenvalues --  -10.37842 -10.37808 -10.36916 -10.35429 -10.35125
 Alpha  occ. eigenvalues --  -10.34962 -10.34309 -10.33786 -10.33701 -10.33316
 Alpha  occ. eigenvalues --  -10.33006 -10.32857 -10.32415 -10.31190 -10.30837
 Alpha  occ. eigenvalues --  -10.30826 -10.28148 -10.28080  -1.19471  -1.14970
 Alpha  occ. eigenvalues --   -1.13322  -1.13210  -1.10980  -1.10568  -1.09342
 Alpha  occ. eigenvalues --   -1.08953  -1.08567  -1.04736  -1.04494  -1.02557
 Alpha  occ. eigenvalues --   -1.00777  -1.00141  -0.99741  -0.98551  -0.96692
 Alpha  occ. eigenvalues --   -0.96563  -0.96427  -0.92403  -0.91109  -0.87384
 Alpha  occ. eigenvalues --   -0.85716  -0.84082  -0.83642  -0.83540  -0.82460
 Alpha  occ. eigenvalues --   -0.82049  -0.78916  -0.76760  -0.74635  -0.74500
 Alpha  occ. eigenvalues --   -0.73657  -0.73411  -0.72606  -0.70769  -0.70139
 Alpha  occ. eigenvalues --   -0.67381  -0.66565  -0.66516  -0.66005  -0.64504
 Alpha  occ. eigenvalues --   -0.64000  -0.63745  -0.62680  -0.62429  -0.61749
 Alpha  occ. eigenvalues --   -0.60414  -0.60205  -0.60114  -0.59487  -0.59200
 Alpha  occ. eigenvalues --   -0.59084  -0.58363  -0.56610  -0.56309  -0.56126
 Alpha  occ. eigenvalues --   -0.56009  -0.55257  -0.55009  -0.54443  -0.54279
 Alpha  occ. eigenvalues --   -0.53686  -0.53642  -0.53347  -0.53188  -0.52971
 Alpha  occ. eigenvalues --   -0.52544  -0.52390  -0.51542  -0.50491  -0.50200
 Alpha  occ. eigenvalues --   -0.49999  -0.49604  -0.49503  -0.48930  -0.48828
 Alpha  occ. eigenvalues --   -0.48656  -0.48403  -0.48327  -0.47618  -0.47413
 Alpha  occ. eigenvalues --   -0.46684  -0.45717  -0.44704  -0.44617  -0.43849
 Alpha  occ. eigenvalues --   -0.40822  -0.40488  -0.39473  -0.37505  -0.37311
 Alpha  occ. eigenvalues --   -0.37285  -0.37211  -0.36863  -0.36140  -0.34548
 Alpha  occ. eigenvalues --   -0.34117  -0.33937  -0.33459  -0.33181  -0.33102
 Alpha  occ. eigenvalues --   -0.32670  -0.32451  -0.32265  -0.31890  -0.30635
 Alpha  occ. eigenvalues --   -0.30193  -0.29492  -0.25623  -0.25166
 Alpha virt. eigenvalues --    0.02868   0.04250   0.07344   0.08172   0.08438
 Alpha virt. eigenvalues --    0.09279   0.09795   0.10709   0.11338   0.12036
 Alpha virt. eigenvalues --    0.12849   0.14482   0.14655   0.14708   0.15129

 Mulliken charges:
               1
     1  N   -0.313084
     2  C    0.180601
     3  C    0.058512
     4  N   -0.258195
     5  C    0.135504
     6  H    0.025256
     7  N   -0.294628
     8  C    0.134725
     9  H    0.009735
    10  N   -0.292350
    11  C    0.244960
    12  C    0.107542
    13  N   -0.050959
    14  H    0.112616
    15  H    0.085505
    16  H    0.025112
    17  H    0.031609
    18  H    0.024331
    19  N   -0.309434
    20  C    0.252366
    21  C    0.180429
    22  N   -0.116333
    23  H    0.113421
    24  H    0.116378
    25  N   -0.309701
    26  C    0.240491
    27  N   -0.147856
    28  H    0.123051
    29  C    0.185375
    30  O   -0.323109
    31  C   -0.010080
    32  N   -0.225538
    33  C    0.132584
    34  H    0.021144
    35  H    0.030913
    36  H    0.028342
    37  H    0.023505
    38  H    0.061676
    39  H    0.058914
    40  H    0.070774
    41  H    0.026621
    42  C   -0.113045
    43  O   -0.268817
    44  C    0.152545
    45  H    0.133189
    46  N   -0.112066
    47  O   -0.341140
    48  C    0.334270
    49  H    0.048418
    50  C    0.171257
    51  C    0.037841
    52  N   -0.278809
    53  H    0.034220
    54  H    0.040936
    55  H    0.026076
    56  H    0.128753
    57  H    0.115675
    58  N   -0.052624
    59  C    0.078386
    60  C    0.251685
    61  N   -0.273924
    62  H    0.039541
    63  C    0.160418
    64  N   -0.302403
    65  H    0.035812
    66  C    0.134244
    67  N   -0.265550
    68  C    0.024770
    69  C    0.179855
    70  N   -0.310238
 Sum of Mulliken charges =  -0.00000

 Dipole moment (field-independent basis, Debye):
    X=              7.8204    Y=              6.5103    Z=              1.9674  Tot=             10.3640
 Quadrupole moment (field-independent basis, Debye-Ang):
   XX=           -151.2461   YY=           -220.8182   ZZ=           -253.7278
   XY=              2.3989   XZ=              1.4635   YZ=             -4.6053

 Normal termination of Gaussian 16 at Mon Jan 22 20:20:38 2018.
