 Gaussian 16, Revision A.03,
 Gaussian 16:  EM64L-G16RevA.03 25-Dec-2016

 ---------------------------------------
 #p wb97xd/cc-pvdz sp scf=(maxcycles=20)
 ---------------------------------------

 ------------------
 Base pair stacking
 ------------------
 Symbolic Z-matrix:
 Charge =  0 Multiplicity = 1

                         Standard orientation:
 ---------------------------------------------------------------------
 Center     Atomic      Atomic             Coordinates (Angstroms)
 Number     Number       Type             X           Y           Z
 ---------------------------------------------------------------------
      1          7           0       -7.183074   -1.334161    0.133435
      2          6           0       -8.542479   -0.769737    0.026480
      3          6           0       -5.020048   -1.572125    0.452848
      4          7           0       -5.498275   -2.822215    0.087726
      5          6           0       -6.782273   -2.628813   -0.090090
      6          1           0       -7.490528   -3.402765   -0.387255
      7          7           0       -3.598331    0.195833    1.097814
      8          6           0       -4.685904    0.973399    1.085951
      9          1           0       -4.515108    2.015892    1.351085
     10          7           0       -5.946858    0.658026    0.797095
     11          6           0       -6.046901   -0.644740    0.485322
     12          6           0       -3.732057   -1.110255    0.779489
     13          7           0       -2.647586   -1.888049    0.790764
     14          1           0       -2.699833   -2.860720    0.561868
     15          1           0       -1.746433   -1.525204    1.028273
     16          1           0       -9.152204   -1.242588    0.662735
     17          1           0       -8.518473    0.204040    0.250759
     18          1           0       -8.881774   -0.886813   -0.906889
     19          7           0       -2.263532    2.434618   -1.717482
     20          6           0       -0.931267    2.203257   -1.473353
     21          6           0       -2.937483    3.743659   -1.603916
     22          7           0        2.206598    3.376021   -0.556751
     23          1           0        3.125520    3.003267   -0.430764
     24          1           0        2.086959    4.354787   -0.388156
     25          7           0       -0.021357    3.125497   -1.091780
     26          6           0        1.180255    2.599097   -0.934776
     27          7           0        1.470667    1.271370   -1.135589
     28          1           0        2.417985    0.956939   -0.991810
     29          6           0        0.550238    0.304685   -1.528283
     30          8           0        0.915765   -0.867308   -1.681767
     31          6           0       -0.745157    0.855159   -1.700921
     32          7           0       -1.936608    0.252306   -2.080293
     33          6           0       -2.806977    1.225264   -2.076342
     34          1           0       -3.862365    1.115342   -2.328046
     35          1           0       -3.667177    3.686820   -0.923389
     36          1           0       -2.273326    4.434736   -1.321840
     37          1           0       -3.326280    3.998128   -2.488723
     38          1           0        7.161267   -0.093083    0.508690
     39          1           0        7.498973   -0.035051   -1.219674
     40          1           0        6.233029    0.984509   -0.534643
     41          1           0        5.497738   -4.395274   -0.858948
     42          6           0        5.195476   -3.348227   -0.882850
     43          8           0        2.917988   -3.825310   -1.343871
     44          6           0        3.826329   -3.020399   -1.139366
     45          1           0        2.594200   -1.396985   -1.325599
     46          7           0        3.551129   -1.667833   -1.147718
     47          8           0        4.099238    0.528545   -0.966874
     48          6           0        4.438266   -0.641494   -0.939923
     49          1           0        7.136798   -2.565563   -0.477256
     50          6           0        6.084093   -2.369289   -0.676352
     51          6           0        6.722894    0.024223   -0.471172
     52          7           0        5.739077   -1.037823   -0.699060
     53          1           0        3.220609    3.604555    3.234425
     54          1           0        2.119441    3.721939    2.036195
     55          1           0        3.710490    3.653565    1.678463
     56          1           0        0.754643   -3.146238    1.387440
     57          1           0        2.355640   -2.856192    1.900078
     58          7           0        1.465327   -2.486482    1.631979
     59          6           0        1.236975   -1.171898    1.602228
     60          6           0        1.815552    1.121967    1.857495
     61          7           0        0.610182    1.589943    1.493490
     62          1           0       -1.216151    0.876710    0.896471
     63          6           0       -0.212633    0.584319    1.202630
     64          7           0        0.014182   -0.732977    1.231814
     65          1           0        4.896301    1.245715    2.830053
     66          6           0        3.901621    0.936718    2.507441
     67          7           0        3.522863   -0.307854    2.348555
     68          6           0        2.202116   -0.204620    1.936608
     69          6           0        2.998618    3.326206    2.299952
     70          7           0        2.918539    1.854348    2.227709
 ---------------------------------------------------------------------

 SCF Done:  E(RwB97XD) =  -2048.73661378     A.U. after   15 cycles

 The electronic state is 1-A.
 Alpha  occ. eigenvalues --  -19.25972 -19.22115 -19.20701 -14.52502 -14.51382
 Alpha  occ. eigenvalues --  -14.49345 -14.48789 -14.47954 -14.47266 -14.46832
 Alpha  occ. eigenvalues --  -14.46493 -14.44303 -14.42685 -14.42616 -14.42517
 Alpha  occ. eigenvalues --  -14.42080 -14.42028 -14.41512 -14.40816 -14.40720
 Alpha  occ. eigenvalues --  -10.45593 -10.41413 -10.40221 -10.38383 -10.38336
 Alpha  occ. eigenvalues --  -10.37839 -10.36898 -10.35957 -10.35773 -10.35523
 Alpha  occ. eigenvalues --  -10.34679 -10.34415 -10.34185 -10.33983 -10.33690
 Alpha  occ. eigenvalues --  -10.33331 -10.33269 -10.31410 -10.31292 -10.31128
 Alpha  occ. eigenvalues --  -10.30792 -10.29163 -10.28248  -1.19514  -1.14055
 Alpha  occ. eigenvalues --   -1.13321  -1.13128  -1.11949  -1.10654  -1.09397
 Alpha  occ. eigenvalues --   -1.08824  -1.07691  -1.05554  -1.03264  -1.02582
 Alpha  occ. eigenvalues --   -1.00964  -1.00341  -0.99674  -0.98597  -0.97513
 Alpha  occ. eigenvalues --   -0.96605  -0.95292  -0.93191  -0.91108  -0.86468
 Alpha  occ. eigenvalues --   -0.84946  -0.84506  -0.84205  -0.83824  -0.82849
 Alpha  occ. eigenvalues --   -0.82527  -0.78944  -0.75692  -0.74745  -0.73959
 Alpha  occ. eigenvalues --   -0.73464  -0.73454  -0.73366  -0.71640  -0.69102
 Alpha  occ. eigenvalues --   -0.67653  -0.66839  -0.66637  -0.65442  -0.64555
 Alpha  occ. eigenvalues --   -0.63871  -0.63299  -0.62929  -0.62795  -0.62096
 Alpha  occ. eigenvalues --   -0.60692  -0.59792  -0.59602  -0.59299  -0.59289
 Alpha  occ. eigenvalues --   -0.58597  -0.58354  -0.56995  -0.56914  -0.56764
 Alpha  occ. eigenvalues --   -0.56079  -0.55869  -0.54917  -0.54485  -0.54226
 Alpha  occ. eigenvalues --   -0.53738  -0.53487  -0.53037  -0.52675  -0.52634
 Alpha  occ. eigenvalues --   -0.52216  -0.52137  -0.51640  -0.51305  -0.50706
 Alpha  occ. eigenvalues --   -0.50224  -0.49598  -0.49530  -0.48919  -0.48705
 Alpha  occ. eigenvalues --   -0.48684  -0.48342  -0.47920  -0.47588  -0.47508
 Alpha  occ. eigenvalues --   -0.47440  -0.45625  -0.45317  -0.44102  -0.42954
 Alpha  occ. eigenvalues --   -0.41762  -0.39561  -0.39379  -0.37768  -0.37502
 Alpha  occ. eigenvalues --   -0.37311  -0.36334  -0.36257  -0.35927  -0.34924
 Alpha  occ. eigenvalues --   -0.34100  -0.34047  -0.33306  -0.33053  -0.32847
 Alpha  occ. eigenvalues --   -0.32561  -0.32221  -0.32025  -0.31917  -0.31541
 Alpha  occ. eigenvalues --   -0.30900  -0.28505  -0.26349  -0.25479
 Alpha virt. eigenvalues --    0.03063   0.05182   0.07352   0.08116   0.08326
 Alpha virt. eigenvalues --    0.09416   0.09572   0.10349   0.11253   0.12306
 Alpha virt. eigenvalues --    0.12713   0.13522   0.14487   0.14628   0.15066

 Mulliken charges:
               1
     1  N   -0.311215
     2  C    0.180768
     3  C    0.032393
     4  N   -0.258305
     5  C    0.134025
     6  H    0.028425
     7  N   -0.285526
     8  C    0.121840
     9  H    0.014639
    10  N   -0.287578
    11  C    0.239300
    12  C    0.117874
    13  N   -0.050767
    14  H    0.107775
    15  H    0.088766
    16  H    0.026808
    17  H    0.035287
    18  H    0.026472
    19  N   -0.306249
    20  C    0.233303
    21  C    0.181696
    22  N   -0.114239
    23  H    0.116520
    24  H    0.116692
    25  N   -0.285494
    26  C    0.219742
    27  N   -0.116246
    28  H    0.118551
    29  C    0.150538
    30  O   -0.321154
    31  C   -0.004995
    32  N   -0.220666
    33  C    0.131077
    34  H    0.030570
    35  H    0.029615
    36  H    0.027780
    37  H    0.024378
    38  H    0.059960
    39  H    0.061154
    40  H    0.070893
    41  H    0.031375
    42  C   -0.111516
    43  O   -0.270108
    44  C    0.173147
    45  H    0.135664
    46  N   -0.136156
    47  O   -0.353356
    48  C    0.366677
    49  H    0.047965
    50  C    0.176904
    51  C    0.041403
    52  N   -0.295263
    53  H    0.032464
    54  H    0.041313
    55  H    0.006310
    56  H    0.121814
    57  H    0.117163
    58  N   -0.056903
    59  C    0.116256
    60  C    0.229600
    61  N   -0.259963
    62  H    0.050900
    63  C    0.147839
    64  N   -0.298904
    65  H    0.026071
    66  C    0.130231
    67  N   -0.264846
    68  C    0.020888
    69  C    0.176413
    70  N   -0.307792
 Sum of Mulliken charges =  -0.00000

 Dipole moment (field-independent basis, Debye):
    X=              7.0781    Y=              5.7981    Z=              2.6765  Tot=              9.5331
 Quadrupole moment (field-independent basis, Debye-Ang):
   XX=           -141.3719   YY=           -223.5502   ZZ=           -252.2217
   XY=              9.0912   XZ=             15.6426   YZ=             -8.5588

 Normal termination of Gaussian 16 at Mon Jan 22 19:45:41 2018.
