 Gaussian 16, Revision A.03,
 Gaussian 16:  EM64L-G16RevA.03 25-Dec-2016

 ---------------------------------------
 #p wb97xd/cc-pvdz sp scf=(maxcycles=20)
 ---------------------------------------

 ------------------
 Base pair stacking
 ------------------
 Symbolic Z-matrix:
 Charge =  0 Multiplicity = 1

                         Standard orientation:
 ---------------------------------------------------------------------
 Center     Atomic      Atomic             Coordinates (Angstroms)
 Number     Number       Type             X           Y           Z
 ---------------------------------------------------------------------
      1          7           0       -5.538652   -1.833774    1.162557
      2          6           0       -6.921261   -1.379807    1.408116
      3          6           0       -3.344404   -1.943818    1.060124
      4          7           0       -3.818287   -3.127790    0.513881
      5          6           0       -5.121269   -3.014110    0.597452
      6          1           0       -5.832388   -3.768210    0.258980
      7          7           0       -1.918778   -0.231241    1.833167
      8          6           0       -3.027730    0.434333    2.171992
      9          1           0       -2.863643    1.410022    2.627366
     10          7           0       -4.302968    0.077305    2.033405
     11          6           0       -4.393112   -1.136178    1.464406
     12          6           0       -2.043040   -1.449522    1.262702
     13          7           0       -0.937219   -2.115459    0.923781
     14          1           0       -0.981773   -3.020319    0.498975
     15          1           0       -0.027051   -1.732809    1.082855
     16          1           0       -7.382376   -2.025469    2.016951
     17          1           0       -6.905342   -0.475361    1.833385
     18          1           0       -7.416875   -1.329885    0.541015
     19          7           0       -4.109076    2.516236   -1.202574
     20          6           0       -2.745751    2.344875   -1.209838
     21          6           0       -4.808970    3.780292   -0.897630
     22          7           0        0.450490    3.637860   -0.792810
     23          1           0        1.392661    3.309102   -0.851697
     24          1           0        0.319838    4.599476   -0.550038
     25          7           0       -1.823916    3.294826   -0.941773
     26          6           0       -0.591564    2.826438   -1.028629
     27          7           0       -0.283413    1.527473   -1.353033
     28          1           0        0.687275    1.257540   -1.396092
     29          6           0       -1.215614    0.533169   -1.632737
     30          8           0       -0.832049   -0.608759   -1.914906
     31          6           0       -2.544003    1.021310   -1.543411
     32          7           0       -3.756269    0.374745   -1.741575
     33          6           0       -4.653990    1.298416   -1.529124
     34          1           0       -5.731459    1.144567   -1.597466
     35          1           0       -5.402497    3.651524   -0.103939
     36          1           0       -4.136265    4.491377   -0.697430
     37          1           0       -5.360037    4.056296   -1.684372
     38          1           0        5.663582    0.391037   -0.814447
     39          1           0        5.685006    0.550956   -2.569051
     40          1           0        4.517751    1.466862   -1.615105
     41          1           0        3.974041   -3.922422   -2.112926
     42          6           0        3.626553   -2.893123   -2.023363
     43          8           0        1.326605   -3.468360   -2.103868
     44          6           0        2.220519   -2.626912   -2.016258
     45          1           0        0.904664   -1.064586   -1.889933
     46          7           0        1.888960   -1.292193   -1.898666
     47          8           0        2.363265    0.918975   -1.691344
     48          6           0        2.752855   -0.231188   -1.791416
     49          1           0        5.572702   -2.028374   -1.920781
     50          6           0        4.493765   -1.879251   -1.920364
     51          6           0        5.052877    0.532203   -1.693756
     52          7           0        4.091943   -0.568601   -1.805818
     53          1           0        4.996790    3.240082    3.508639
     54          1           0        3.693440    3.507143    2.564145
     55          1           0        5.195474    3.653000    1.942287
     56          1           0        2.574711   -3.169373    0.659434
     57          1           0        4.225547   -2.853851    0.951455
     58          7           0        3.284369   -2.515425    0.921854
     59          6           0        2.989820   -1.248163    1.219310
     60          6           0        3.491007    0.984361    1.872280
     61          7           0        2.218189    1.411031    1.824056
     62          1           0        0.351671    0.681046    1.395304
     63          6           0        1.407086    0.419913    1.459767
     64          7           0        1.700172   -0.849994    1.161426
     65          1           0        6.686590    1.171125    2.325582
     66          6           0        5.666557    0.850460    2.111942
     67          7           0        5.327265   -0.362248    1.748773
     68          6           0        3.950474   -0.291066    1.593523
     69          6           0        4.624181    3.143292    2.585707
     70          7           0        4.605116    1.717125    2.206650
 ---------------------------------------------------------------------

 SCF Done:  E(RwB97XD) =  -2048.74848108     A.U. after   15 cycles

 The electronic state is 1-A.
 Alpha  occ. eigenvalues --  -19.25841 -19.22291 -19.20629 -14.52422 -14.52369
 Alpha  occ. eigenvalues --  -14.48783 -14.48285 -14.48056 -14.47813 -14.46939
 Alpha  occ. eigenvalues --  -14.46659 -14.45465 -14.44142 -14.44114 -14.42027
 Alpha  occ. eigenvalues --  -14.41929 -14.40932 -14.40844 -14.40625 -14.39987
 Alpha  occ. eigenvalues --  -10.45430 -10.41253 -10.40292 -10.39813 -10.38244
 Alpha  occ. eigenvalues --  -10.37956 -10.37721 -10.37067 -10.35596 -10.35083
 Alpha  occ. eigenvalues --  -10.34873 -10.34347 -10.33834 -10.33573 -10.33378
 Alpha  occ. eigenvalues --  -10.32914 -10.32797 -10.32578 -10.31127 -10.30894
 Alpha  occ. eigenvalues --  -10.30713 -10.28118 -10.28059  -1.19404  -1.15107
 Alpha  occ. eigenvalues --   -1.13252  -1.13207  -1.10843  -1.10595  -1.09340
 Alpha  occ. eigenvalues --   -1.09125  -1.08572  -1.04726  -1.04660  -1.02498
 Alpha  occ. eigenvalues --   -1.00921  -1.00087  -0.99742  -0.98561  -0.96754
 Alpha  occ. eigenvalues --   -0.96605  -0.96444  -0.92366  -0.91057  -0.87519
 Alpha  occ. eigenvalues --   -0.85818  -0.84120  -0.83533  -0.83484  -0.82501
 Alpha  occ. eigenvalues --   -0.81950  -0.78880  -0.76931  -0.74720  -0.74615
 Alpha  occ. eigenvalues --   -0.73657  -0.73355  -0.72530  -0.70693  -0.70307
 Alpha  occ. eigenvalues --   -0.67394  -0.66739  -0.66483  -0.65927  -0.64494
 Alpha  occ. eigenvalues --   -0.64162  -0.63760  -0.62676  -0.62357  -0.61771
 Alpha  occ. eigenvalues --   -0.60525  -0.60320  -0.60164  -0.59456  -0.59289
 Alpha  occ. eigenvalues --   -0.59123  -0.58365  -0.56638  -0.56249  -0.55999
 Alpha  occ. eigenvalues --   -0.55966  -0.55287  -0.55039  -0.54394  -0.54077
 Alpha  occ. eigenvalues --   -0.53685  -0.53662  -0.53523  -0.53292  -0.52989
 Alpha  occ. eigenvalues --   -0.52692  -0.52337  -0.51449  -0.50396  -0.50204
 Alpha  occ. eigenvalues --   -0.49977  -0.49675  -0.49462  -0.48920  -0.48768
 Alpha  occ. eigenvalues --   -0.48731  -0.48466  -0.48396  -0.47653  -0.47385
 Alpha  occ. eigenvalues --   -0.46600  -0.45794  -0.45099  -0.44478  -0.43604
 Alpha  occ. eigenvalues --   -0.40742  -0.40620  -0.39416  -0.37628  -0.37458
 Alpha  occ. eigenvalues --   -0.37304  -0.37282  -0.36763  -0.36098  -0.34616
 Alpha  occ. eigenvalues --   -0.34245  -0.33960  -0.33403  -0.33109  -0.33004
 Alpha  occ. eigenvalues --   -0.32714  -0.32543  -0.32357  -0.31916  -0.30542
 Alpha  occ. eigenvalues --   -0.30140  -0.29429  -0.25618  -0.25174
 Alpha virt. eigenvalues --    0.02947   0.04068   0.07195   0.08177   0.08466
 Alpha virt. eigenvalues --    0.09315   0.09773   0.10549   0.11393   0.12150
 Alpha virt. eigenvalues --    0.12830   0.14382   0.14661   0.14799   0.14962

 Mulliken charges:
               1
     1  N   -0.312703
     2  C    0.180738
     3  C    0.059473
     4  N   -0.257937
     5  C    0.138304
     6  H    0.025216
     7  N   -0.296965
     8  C    0.134257
     9  H    0.009825
    10  N   -0.291406
    11  C    0.248933
    12  C    0.102264
    13  N   -0.051628
    14  H    0.113492
    15  H    0.083152
    16  H    0.024573
    17  H    0.030902
    18  H    0.024529
    19  N   -0.308944
    20  C    0.253502
    21  C    0.180736
    22  N   -0.118707
    23  H    0.114752
    24  H    0.116971
    25  N   -0.310512
    26  C    0.242815
    27  N   -0.148816
    28  H    0.122049
    29  C    0.191353
    30  O   -0.322827
    31  C   -0.014676
    32  N   -0.224922
    33  C    0.130568
    34  H    0.020118
    35  H    0.030224
    36  H    0.028747
    37  H    0.023627
    38  H    0.062383
    39  H    0.059045
    40  H    0.071844
    41  H    0.025490
    42  C   -0.112573
    43  O   -0.267974
    44  C    0.154698
    45  H    0.131442
    46  N   -0.111041
    47  O   -0.341215
    48  C    0.333396
    49  H    0.047082
    50  C    0.167837
    51  C    0.036342
    52  N   -0.276321
    53  H    0.034281
    54  H    0.040921
    55  H    0.027198
    56  H    0.127633
    57  H    0.114506
    58  N   -0.048812
    59  C    0.078945
    60  C    0.249986
    61  N   -0.274353
    62  H    0.037205
    63  C    0.164856
    64  N   -0.304851
    65  H    0.036808
    66  C    0.134264
    67  N   -0.265105
    68  C    0.023894
    69  C    0.180517
    70  N   -0.309400
 Sum of Mulliken charges =  -0.00000

 Dipole moment (field-independent basis, Debye):
    X=              7.8072    Y=              6.6632    Z=              1.7586  Tot=             10.4136
 Quadrupole moment (field-independent basis, Debye-Ang):
   XX=           -152.9455   YY=           -220.4804   ZZ=           -253.8369
   XY=              1.5628   XZ=             -2.4697   YZ=             -4.5137

 Normal termination of Gaussian 16 at Mon Jan 22 21:07:30 2018.
