 Gaussian 16, Revision A.03,
 Gaussian 16:  EM64L-G16RevA.03 25-Dec-2016

 ---------------------------------------
 #p wb97xd/cc-pvdz sp scf=(maxcycles=20)
 ---------------------------------------

 ------------------
 Base pair stacking
 ------------------
 Symbolic Z-matrix:
 Charge =  0 Multiplicity = 1

                         Standard orientation:
 ---------------------------------------------------------------------
 Center     Atomic      Atomic             Coordinates (Angstroms)
 Number     Number       Type             X           Y           Z
 ---------------------------------------------------------------------
      1          7           0       -7.207470   -1.335712    0.093381
      2          6           0       -8.576344   -0.784572    0.072884
      3          6           0       -5.037254   -1.576565    0.356962
      4          7           0       -5.501527   -2.778599   -0.157140
      5          6           0       -6.790416   -2.585389   -0.295360
      6          1           0       -7.490856   -3.327381   -0.679755
      7          7           0       -3.633771    0.119436    1.203575
      8          6           0       -4.732808    0.874510    1.301249
      9          1           0       -4.574119    1.878147    1.693421
     10          7           0       -5.992539    0.577361    0.988696
     11          6           0       -6.077239   -0.677454    0.516805
     12          6           0       -3.752191   -1.138392    0.725117
     13          7           0       -2.656246   -1.893663    0.626853
     14          1           0       -2.696992   -2.830651    0.278126
     15          1           0       -1.757614   -1.548848    0.898322
     16          1           0       -9.170827   -1.343391    0.651242
     17          1           0       -8.563912    0.153638    0.417478
     18          1           0       -8.925756   -0.789141   -0.864067
     19          7           0       -2.206223    2.544074   -1.743133
     20          6           0       -0.873827    2.297369   -1.515257
     21          6           0       -2.855150    3.868138   -1.662949
     22          7           0        2.300477    3.444455   -0.696882
     23          1           0        3.214994    3.059801   -0.574659
     24          1           0        2.200981    4.430428   -0.560253
     25          7           0        0.058895    3.215705   -1.182487
     26          6           0        1.253937    2.673527   -1.029049
     27          7           0        1.517497    1.334677   -1.188825
     28          1           0        2.461750    1.008417   -1.051378
     29          6           0        0.573281    0.371734   -1.530983
     30          8           0        0.915513   -0.811227   -1.650238
     31          6           0       -0.715389    0.939112   -1.699175
     32          7           0       -1.923991    0.345053   -2.035746
     33          6           0       -2.777154    1.333041   -2.049861
     34          1           0       -3.838802    1.233496   -2.278459
     35          1           0       -3.572867    3.847883   -0.967759
     36          1           0       -2.173968    4.556476   -1.417111
     37          1           0       -3.255960    4.098945   -2.548882
     38          1           0        7.213363   -0.074347    0.398645
     39          1           0        7.519644   -0.081912   -1.336522
     40          1           0        6.284582    0.983191   -0.664540
     41          1           0        5.450282   -4.390489   -0.788365
     42          6           0        5.165807   -3.339633   -0.843158
     43          8           0        2.872173   -3.791317   -1.246050
     44          6           0        3.797989   -2.996287   -1.086094
     45          1           0        2.590895   -1.358383   -1.306305
     46          7           0        3.546151   -1.640092   -1.136458
     47          8           0        4.135500    0.551016   -1.041994
     48          6           0        4.454656   -0.623305   -0.980538
     49          1           0        7.127638   -2.578449   -0.500193
     50          6           0        6.074954   -2.370282   -0.686914
     51          6           0        6.758843    0.017024   -0.576613
     52          7           0        5.752692   -1.034393   -0.749626
     53          1           0        3.160624    3.343886    3.677735
     54          1           0        2.042629    3.592704    2.515723
     55          1           0        3.629815    3.595711    2.135058
     56          1           0        0.771601   -3.161135    1.023902
     57          1           0        2.374533   -2.911636    1.551593
     58          7           0        1.475484   -2.525779    1.341714
     59          6           0        1.227321   -1.221738    1.479844
     60          6           0        1.775045    1.031095    2.015043
     61          7           0        0.558323    1.521329    1.725774
     62          1           0       -1.264708    0.858953    1.063642
     63          6           0       -0.253147    0.546859    1.319768
     64          7           0       -0.006473   -0.759815    1.180754
     65          1           0        4.865785    1.082051    2.962098
     66          6           0        3.871757    0.799807    2.613984
     67          7           0        3.509495   -0.421012    2.304072
     68          6           0        2.182213   -0.288452    1.922661
     69          6           0        2.930867    3.181392    2.718149
     70          7           0        2.871695    1.729124    2.462397
 ---------------------------------------------------------------------

 SCF Done:  E(RwB97XD) =  -2048.74660688     A.U. after   15 cycles

 The electronic state is 1-A.
 Alpha  occ. eigenvalues --  -19.26035 -19.22345 -19.20851 -14.52592 -14.51121
 Alpha  occ. eigenvalues --  -14.49204 -14.48871 -14.48075 -14.47388 -14.47151
 Alpha  occ. eigenvalues --  -14.46056 -14.44119 -14.42467 -14.42400 -14.42378
 Alpha  occ. eigenvalues --  -14.42281 -14.41884 -14.41307 -14.40902 -14.40525
 Alpha  occ. eigenvalues --  -10.45674 -10.41552 -10.40415 -10.38486 -10.38069
 Alpha  occ. eigenvalues --  -10.37953 -10.36687 -10.35758 -10.35584 -10.35564
 Alpha  occ. eigenvalues --  -10.34534 -10.34521 -10.34045 -10.33817 -10.33483
 Alpha  occ. eigenvalues --  -10.33388 -10.32996 -10.31303 -10.31232 -10.31048
 Alpha  occ. eigenvalues --  -10.30870 -10.28990 -10.28332  -1.19587  -1.13795
 Alpha  occ. eigenvalues --   -1.13441  -1.13340  -1.11800  -1.10752  -1.09492
 Alpha  occ. eigenvalues --   -1.08921  -1.07389  -1.05360  -1.02967  -1.02704
 Alpha  occ. eigenvalues --   -1.00759  -1.00266  -0.99512  -0.98741  -0.97356
 Alpha  occ. eigenvalues --   -0.96697  -0.94999  -0.92988  -0.91210  -0.86177
 Alpha  occ. eigenvalues --   -0.84639  -0.84351  -0.84283  -0.83895  -0.82704
 Alpha  occ. eigenvalues --   -0.82599  -0.79051  -0.75416  -0.74821  -0.74013
 Alpha  occ. eigenvalues --   -0.73565  -0.73280  -0.73119  -0.71452  -0.68795
 Alpha  occ. eigenvalues --   -0.67710  -0.66740  -0.66660  -0.65137  -0.64655
 Alpha  occ. eigenvalues --   -0.63954  -0.63097  -0.62902  -0.62564  -0.62108
 Alpha  occ. eigenvalues --   -0.60503  -0.59766  -0.59696  -0.58987  -0.58953
 Alpha  occ. eigenvalues --   -0.58624  -0.58072  -0.56803  -0.56797  -0.56727
 Alpha  occ. eigenvalues --   -0.56176  -0.55670  -0.54620  -0.54574  -0.53956
 Alpha  occ. eigenvalues --   -0.53841  -0.53564  -0.53121  -0.52702  -0.52470
 Alpha  occ. eigenvalues --   -0.52155  -0.51994  -0.51372  -0.51149  -0.50539
 Alpha  occ. eigenvalues --   -0.50357  -0.49648  -0.49424  -0.49069  -0.48818
 Alpha  occ. eigenvalues --   -0.48482  -0.48440  -0.47922  -0.47674  -0.47463
 Alpha  occ. eigenvalues --   -0.47337  -0.45479  -0.45202  -0.44226  -0.43026
 Alpha  occ. eigenvalues --   -0.41572  -0.39631  -0.39226  -0.37617  -0.37541
 Alpha  occ. eigenvalues --   -0.37437  -0.36201  -0.36116  -0.35894  -0.34893
 Alpha  occ. eigenvalues --   -0.33932  -0.33903  -0.33508  -0.32977  -0.32934
 Alpha  occ. eigenvalues --   -0.32512  -0.32272  -0.32153  -0.32011  -0.31387
 Alpha  occ. eigenvalues --   -0.30704  -0.28273  -0.26154  -0.25654
 Alpha virt. eigenvalues --    0.02910   0.05498   0.07567   0.08259   0.08445
 Alpha virt. eigenvalues --    0.09308   0.09453   0.10558   0.11404   0.12307
 Alpha virt. eigenvalues --    0.12674   0.13649   0.14464   0.14624   0.15669

 Mulliken charges:
               1
     1  N   -0.310843
     2  C    0.180812
     3  C    0.030463
     4  N   -0.257771
     5  C    0.133113
     6  H    0.027750
     7  N   -0.287694
     8  C    0.126059
     9  H    0.012844
    10  N   -0.288252
    11  C    0.238079
    12  C    0.116833
    13  N   -0.048435
    14  H    0.108075
    15  H    0.089265
    16  H    0.026598
    17  H    0.035322
    18  H    0.025823
    19  N   -0.308610
    20  C    0.244149
    21  C    0.181411
    22  N   -0.121830
    23  H    0.115505
    24  H    0.117468
    25  N   -0.297121
    26  C    0.234747
    27  N   -0.125867
    28  H    0.117637
    29  C    0.160059
    30  O   -0.322342
    31  C   -0.008861
    32  N   -0.221329
    33  C    0.132291
    34  H    0.030778
    35  H    0.031398
    36  H    0.028062
    37  H    0.024498
    38  H    0.059966
    39  H    0.061114
    40  H    0.072051
    41  H    0.031594
    42  C   -0.108768
    43  O   -0.274704
    44  C    0.165103
    45  H    0.136023
    46  N   -0.133096
    47  O   -0.353990
    48  C    0.367117
    49  H    0.048591
    50  C    0.178855
    51  C    0.041527
    52  N   -0.295450
    53  H    0.031727
    54  H    0.043199
    55  H    0.011171
    56  H    0.122516
    57  H    0.117403
    58  N   -0.046602
    59  C    0.108209
    60  C    0.237456
    61  N   -0.262732
    62  H    0.042431
    63  C    0.152092
    64  N   -0.299370
    65  H    0.025491
    66  C    0.129691
    67  N   -0.266076
    68  C    0.018628
    69  C    0.177135
    70  N   -0.308384
 Sum of Mulliken charges =  -0.00000

 Dipole moment (field-independent basis, Debye):
    X=              7.5085    Y=              5.8822    Z=              2.0300  Tot=              9.7519
 Quadrupole moment (field-independent basis, Debye-Ang):
   XX=           -141.2224   YY=           -222.7791   ZZ=           -250.5706
   XY=              8.0847   XZ=             15.9704   YZ=             -6.3270

 Normal termination of Gaussian 16 at Tue Jan 23 00:02:00 2018.
