 Gaussian 16, Revision A.03,
 Gaussian 16:  EM64L-G16RevA.03 25-Dec-2016

 ---------------------------------------
 #p wb97xd/cc-pvdz sp scf=(maxcycles=20)
 ---------------------------------------

 ------------------
 Base pair stacking
 ------------------
 Symbolic Z-matrix:
 Charge =  0 Multiplicity = 1

                         Standard orientation:
 ---------------------------------------------------------------------
 Center     Atomic      Atomic             Coordinates (Angstroms)
 Number     Number       Type             X           Y           Z
 ---------------------------------------------------------------------
      1          7           0       -6.973447   -1.404293    0.170887
      2          6           0       -8.353263   -0.891054    0.274261
      3          6           0       -4.792085   -1.630739    0.337330
      4          7           0       -5.246450   -2.745353   -0.352527
      5          6           0       -6.542460   -2.564316   -0.425195
      6          1           0       -7.238470   -3.251789   -0.906737
      7          7           0       -3.399532   -0.059093    1.411426
      8          6           0       -4.510424    0.642986    1.657564
      9          1           0       -4.360922    1.573950    2.202737
     10          7           0       -5.772350    0.369013    1.332890
     11          6           0       -5.845095   -0.795103    0.666581
     12          6           0       -3.506108   -1.225958    0.739008
     13          7           0       -2.398325   -1.928213    0.492348
     14          1           0       -2.430057   -2.797511   -0.002160
     15          1           0       -1.499430   -1.609527    0.793291
     16          1           0       -8.919328   -1.550263    0.769423
     17          1           0       -8.349982   -0.020592    0.765594
     18          1           0       -8.729383   -0.753258   -0.642005
     19          7           0       -2.445967    2.721455   -1.681216
     20          6           0       -1.109023    2.459471   -1.502331
     21          6           0       -3.076740    4.052446   -1.575045
     22          7           0        2.105505    3.569426   -0.797641
     23          1           0        3.019501    3.174384   -0.709432
     24          1           0        2.022038    4.556131   -0.655662
     25          7           0       -0.154645    3.366649   -1.201947
     26          6           0        1.039055    2.810903   -1.093022
     27          7           0        1.281685    1.469585   -1.264766
     28          1           0        2.226609    1.132557   -1.162308
     29          6           0        0.314980    0.517955   -1.574200
     30          8           0        0.639429   -0.668463   -1.708007
     31          6           0       -0.972533    1.099964   -1.694422
     32          7           0       -2.199106    0.520099   -1.987986
     33          6           0       -3.041141    1.517515   -1.969270
     34          1           0       -4.111437    1.430271   -2.159334
     35          1           0       -3.768936    4.038565   -0.854292
     36          1           0       -2.379441    4.732631   -1.352827
     37          1           0       -3.506839    4.289693   -2.445405
     38          1           0        7.015329   -0.006103    0.112168
     39          1           0        7.258323   -0.013138   -1.632976
     40          1           0        6.060436    1.064072   -0.914602
     41          1           0        5.162261   -4.299730   -1.018070
     42          6           0        4.887728   -3.245666   -1.060539
     43          8           0        2.576072   -3.670975   -1.380702
     44          6           0        3.515907   -2.886634   -1.253002
     45          1           0        2.319970   -1.234940   -1.426175
     46          7           0        3.277562   -1.527611   -1.291660
     47          8           0        3.894382    0.656609   -1.214573
     48          6           0        4.202423   -0.521316   -1.166930
     49          1           0        6.869090   -2.507060   -0.787634
     50          6           0        5.812709   -2.286807   -0.935601
     51          6           0        6.526755    0.092508   -0.845765
     52          7           0        5.503316   -0.947296   -0.984086
     53          1           0        3.396428    2.891639    4.202553
     54          1           0        2.240569    3.296686    3.124586
     55          1           0        3.815724    3.400198    2.709580
     56          1           0        1.064599   -3.157965    0.592785
     57          1           0        2.676682   -2.957185    1.113340
     58          7           0        1.764297   -2.564898    0.991319
     59          6           0        1.493759   -1.306676    1.344704
     60          6           0        2.010785    0.843363    2.223188
     61          7           0        0.776505    1.343562    2.047718
     62          1           0       -1.051018    0.751639    1.333310
     63          6           0       -0.026351    0.427468    1.510053
     64          7           0        0.242721   -0.833250    1.155402
     65          1           0        5.125875    0.817484    3.087885
     66          6           0        4.128165    0.570516    2.723854
     67          7           0        3.781999   -0.593017    2.229833
     68          6           0        2.441853   -0.433593    1.908417
     69          6           0        3.142454    2.880220    3.235410
     70          7           0        3.105464    1.487104    2.749770
 ---------------------------------------------------------------------

 SCF Done:  E(RwB97XD) =  -2048.74326251     A.U. after   15 cycles

 The electronic state is 1-A.
 Alpha  occ. eigenvalues --  -19.26142 -19.22643 -19.20902 -14.52750 -14.51124
 Alpha  occ. eigenvalues --  -14.48920 -14.48916 -14.48286 -14.47261 -14.47231
 Alpha  occ. eigenvalues --  -14.45733 -14.44202 -14.42543 -14.42360 -14.42336
 Alpha  occ. eigenvalues --  -14.41991 -14.41572 -14.40967 -14.40963 -14.40167
 Alpha  occ. eigenvalues --  -10.45812 -10.41593 -10.40700 -10.38533 -10.38188
 Alpha  occ. eigenvalues --  -10.37947 -10.36742 -10.35610 -10.35590 -10.35392
 Alpha  occ. eigenvalues --  -10.34593 -10.34228 -10.34035 -10.33490 -10.33407
 Alpha  occ. eigenvalues --  -10.33142 -10.32943 -10.31433 -10.31106 -10.31074
 Alpha  occ. eigenvalues --  -10.30940 -10.28639 -10.28362  -1.19728  -1.13799
 Alpha  occ. eigenvalues --   -1.13730  -1.13506  -1.11496  -1.10794  -1.09648
 Alpha  occ. eigenvalues --   -1.08925  -1.07345  -1.05003  -1.03038  -1.02831
 Alpha  occ. eigenvalues --   -1.00400  -1.00194  -0.99532  -0.98809  -0.97052
 Alpha  occ. eigenvalues --   -0.96746  -0.94964  -0.92630  -0.91407  -0.86167
 Alpha  occ. eigenvalues --   -0.84617  -0.84316  -0.84059  -0.83994  -0.82645
 Alpha  occ. eigenvalues --   -0.82422  -0.79246  -0.75402  -0.74857  -0.74017
 Alpha  occ. eigenvalues --   -0.73769  -0.73120  -0.72946  -0.71115  -0.68770
 Alpha  occ. eigenvalues --   -0.67718  -0.66925  -0.66335  -0.65144  -0.64811
 Alpha  occ. eigenvalues --   -0.64041  -0.62951  -0.62795  -0.62470  -0.62073
 Alpha  occ. eigenvalues --   -0.60201  -0.59924  -0.59873  -0.58911  -0.58816
 Alpha  occ. eigenvalues --   -0.58545  -0.58050  -0.56760  -0.56544  -0.56517
 Alpha  occ. eigenvalues --   -0.56284  -0.55336  -0.54776  -0.54515  -0.53983
 Alpha  occ. eigenvalues --   -0.53898  -0.53652  -0.53186  -0.52805  -0.52513
 Alpha  occ. eigenvalues --   -0.52165  -0.51807  -0.51349  -0.50858  -0.50475
 Alpha  occ. eigenvalues --   -0.50247  -0.49833  -0.49300  -0.49177  -0.49097
 Alpha  occ. eigenvalues --   -0.48517  -0.48301  -0.47839  -0.47821  -0.47567
 Alpha  occ. eigenvalues --   -0.47023  -0.45326  -0.45143  -0.44420  -0.42955
 Alpha  occ. eigenvalues --   -0.41227  -0.39738  -0.39275  -0.37561  -0.37484
 Alpha  occ. eigenvalues --   -0.37249  -0.36406  -0.36070  -0.35976  -0.34734
 Alpha  occ. eigenvalues --   -0.33824  -0.33631  -0.33595  -0.33052  -0.32874
 Alpha  occ. eigenvalues --   -0.32600  -0.32437  -0.32341  -0.32049  -0.31053
 Alpha  occ. eigenvalues --   -0.30380  -0.28157  -0.25862  -0.25658
 Alpha virt. eigenvalues --    0.02552   0.05494   0.07919   0.07980   0.08543
 Alpha virt. eigenvalues --    0.09312   0.09481   0.10932   0.11541   0.12243
 Alpha virt. eigenvalues --    0.12727   0.13889   0.14520   0.14641   0.15939

 Mulliken charges:
               1
     1  N   -0.310759
     2  C    0.180818
     3  C    0.032622
     4  N   -0.256957
     5  C    0.131665
     6  H    0.026481
     7  N   -0.289603
     8  C    0.128845
     9  H    0.011810
    10  N   -0.289918
    11  C    0.235764
    12  C    0.119178
    13  N   -0.047519
    14  H    0.109272
    15  H    0.090093
    16  H    0.026150
    17  H    0.034799
    18  H    0.024794
    19  N   -0.311060
    20  C    0.248139
    21  C    0.181080
    22  N   -0.125562
    23  H    0.113771
    24  H    0.117894
    25  N   -0.306243
    26  C    0.246273
    27  N   -0.134253
    28  H    0.115696
    29  C    0.168609
    30  O   -0.323172
    31  C   -0.003179
    32  N   -0.223142
    33  C    0.132001
    34  H    0.030238
    35  H    0.031621
    36  H    0.028352
    37  H    0.024618
    38  H    0.060913
    39  H    0.060885
    40  H    0.073069
    41  H    0.031675
    42  C   -0.106243
    43  O   -0.281102
    44  C    0.144125
    45  H    0.138665
    46  N   -0.123846
    47  O   -0.352723
    48  C    0.362976
    49  H    0.049912
    50  C    0.184492
    51  C    0.041616
    52  N   -0.291713
    53  H    0.030906
    54  H    0.042785
    55  H    0.018696
    56  H    0.127898
    57  H    0.114756
    58  N   -0.035922
    59  C    0.096925
    60  C    0.243634
    61  N   -0.269064
    62  H    0.040803
    63  C    0.155800
    64  N   -0.299571
    65  H    0.026791
    66  C    0.129708
    67  N   -0.268876
    68  C    0.014601
    69  C    0.180691
    70  N   -0.312476
 Sum of Mulliken charges =  -0.00000

 Dipole moment (field-independent basis, Debye):
    X=              8.0291    Y=              6.0334    Z=              1.5219  Tot=             10.1580
 Quadrupole moment (field-independent basis, Debye-Ang):
   XX=           -143.1657   YY=           -222.0571   ZZ=           -249.6104
   XY=              5.0226   XZ=             13.9493   YZ=             -3.4448

 Normal termination of Gaussian 16 at Tue Jan 23 07:37:45 2018.
