 Gaussian 16, Revision A.03,
 Gaussian 16:  EM64L-G16RevA.03 25-Dec-2016

 ---------------------------------------
 #p wb97xd/cc-pvdz sp scf=(maxcycles=20)
 ---------------------------------------

 ------------------
 Base pair stacking
 ------------------
 Symbolic Z-matrix:
 Charge =  0 Multiplicity = 1

                         Standard orientation:
 ---------------------------------------------------------------------
 Center     Atomic      Atomic             Coordinates (Angstroms)
 Number     Number       Type             X           Y           Z
 ---------------------------------------------------------------------
      1          7           0        5.514869   -1.671507   -1.237060
      2          6           0        6.899242   -1.167365   -1.322850
      3          6           0        3.319916   -1.811148   -1.238511
      4          7           0        3.789822   -3.087709   -0.965938
      5          6           0        5.093394   -2.952487   -0.975970
      6          1           0        5.802042   -3.761739   -0.797455
      7          7           0        1.899920    0.028436   -1.641637
      8          6           0        3.011321    0.758967   -1.778416
      9          1           0        2.850533    1.813079   -2.000323
     10          7           0        4.285531    0.384620   -1.682657
     11          6           0        4.371543   -0.927476   -1.408021
     12          6           0        2.020040   -1.288534   -1.365517
     13          7           0        0.911781   -2.019414   -1.228629
     14          1           0        0.953249   -2.998028   -1.024103
     15          1           0        0.002773   -1.613935   -1.325781
     16          1           0        7.387563   -1.652065   -2.048646
     17          1           0        6.886404   -0.188940   -1.526930
     18          1           0        7.365746   -1.318254   -0.451299
     19          7           0        4.147828    2.312142    1.268774
     20          6           0        2.784527    2.143844    1.235044
     21          6           0        4.860169    3.571162    0.971907
     22          7           0       -0.393748    3.439038    0.703218
     23          1           0       -1.338129    3.113009    0.736095
     24          1           0       -0.253081    4.397572    0.453941
     25          7           0        1.873980    3.092734    0.927499
     26          6           0        0.638321    2.628044    0.980758
     27          7           0        0.316833    1.333483    1.309812
     28          1           0       -0.655420    1.066170    1.325315
     29          6           0        1.237255    0.340366    1.629806
     30          8           0        0.842115   -0.797477    1.912502
     31          6           0        2.569032    0.824564    1.576869
     32          7           0        3.772818    0.177622    1.820300
     33          6           0        4.679120    1.096888    1.625897
     34          1           0        5.753508    0.941472    1.729836
     35          1           0        5.478026    3.432176    0.198764
     36          1           0        4.195893    4.281415    0.742705
     37          1           0        5.386926    3.854795    1.772460
     38          1           0       -5.613145    0.204042    0.597072
     39          1           0       -5.689320    0.383733    2.348231
     40          1           0       -4.490336    1.286298    1.421313
     41          1           0       -3.976202   -4.098220    1.996199
     42          6           0       -3.623465   -3.070754    1.906115
     43          8           0       -1.328651   -3.650062    2.065380
     44          6           0       -2.217243   -2.807707    1.940288
     45          1           0       -0.894101   -1.249773    1.837986
     46          7           0       -1.878754   -1.475114    1.818281
     47          8           0       -2.340707    0.734606    1.571442
     48          6           0       -2.736161   -0.413504    1.672048
     49          1           0       -5.563228   -2.202970    1.732686
     50          6           0       -4.484433   -2.056210    1.764553
     51          6           0       -5.030041    0.353754    1.493528
     52          7           0       -4.075895   -0.747821    1.648072
     53          1           0       -4.998267    3.766236   -2.702806
     54          1           0       -3.729611    3.811813   -1.677847
     55          1           0       -5.252712    3.803184   -1.091180
     56          1           0       -2.594099   -3.119995   -1.337040
     57          1           0       -4.238199   -2.751889   -1.604507
     58          7           0       -3.302582   -2.425823   -1.464815
     59          6           0       -3.013606   -1.122966   -1.449767
     60          6           0       -3.519796    1.198148   -1.583721
     61          7           0       -2.254392    1.607046   -1.394052
     62          1           0       -0.394250    0.804927   -1.082427
     63          6           0       -1.443841    0.561681   -1.241990
     64          7           0       -1.731349   -0.743967   -1.256744
     65          1           0       -6.700942    1.472289   -2.090994
     66          6           0       -5.684660    1.114859   -1.922627
     67          7           0       -5.342956   -0.147672   -1.839316
     68          6           0       -3.972886   -0.108979   -1.624509
     69          6           0       -4.654763    3.459181   -1.815274
     70          7           0       -4.631077    1.984063   -1.777064
 ---------------------------------------------------------------------

 SCF Done:  E(RwB97XD) =  -2048.75301032     A.U. after   15 cycles

 The electronic state is 1-A.
 Alpha  occ. eigenvalues --  -19.25537 -19.21768 -19.20440 -14.52704 -14.52132
 Alpha  occ. eigenvalues --  -14.48533 -14.48507 -14.48419 -14.47513 -14.46664
 Alpha  occ. eigenvalues --  -14.46234 -14.45709 -14.44438 -14.44435 -14.42384
 Alpha  occ. eigenvalues --  -14.41784 -14.41137 -14.40935 -14.40711 -14.40244
 Alpha  occ. eigenvalues --  -10.45132 -10.40973 -10.40151 -10.39866 -10.38222
 Alpha  occ. eigenvalues --  -10.38030 -10.37530 -10.37387 -10.35884 -10.35425
 Alpha  occ. eigenvalues --  -10.34595 -10.34168 -10.34087 -10.33846 -10.33194
 Alpha  occ. eigenvalues --  -10.33162 -10.33046 -10.32855 -10.30908 -10.30856
 Alpha  occ. eigenvalues --  -10.30648 -10.28350 -10.27872  -1.19155  -1.15422
 Alpha  occ. eigenvalues --   -1.12974  -1.12778  -1.11106  -1.10350  -1.09456
 Alpha  occ. eigenvalues --   -1.09020  -1.08303  -1.05020  -1.04953  -1.02169
 Alpha  occ. eigenvalues --   -1.01222  -1.00440  -0.99395  -0.98328  -0.97047
 Alpha  occ. eigenvalues --   -0.96735  -0.96359  -0.92686  -0.90771  -0.87833
 Alpha  occ. eigenvalues --   -0.86136  -0.83876  -0.83774  -0.83240  -0.82253
 Alpha  occ. eigenvalues --   -0.82207  -0.78591  -0.77224  -0.75044  -0.74369
 Alpha  occ. eigenvalues --   -0.73368  -0.73043  -0.72829  -0.70982  -0.70604
 Alpha  occ. eigenvalues --   -0.67109  -0.66991  -0.66261  -0.66205  -0.64465
 Alpha  occ. eigenvalues --   -0.64203  -0.63521  -0.62682  -0.62476  -0.61478
 Alpha  occ. eigenvalues --   -0.60777  -0.60634  -0.60459  -0.59596  -0.59249
 Alpha  occ. eigenvalues --   -0.58990  -0.58014  -0.56683  -0.56459  -0.56079
 Alpha  occ. eigenvalues --   -0.55734  -0.55623  -0.55384  -0.54297  -0.54010
 Alpha  occ. eigenvalues --   -0.53892  -0.53599  -0.53390  -0.53247  -0.52887
 Alpha  occ. eigenvalues --   -0.52706  -0.52101  -0.51703  -0.50637  -0.50191
 Alpha  occ. eigenvalues --   -0.50012  -0.49893  -0.49211  -0.49049  -0.48801
 Alpha  occ. eigenvalues --   -0.48588  -0.48312  -0.48105  -0.47363  -0.47141
 Alpha  occ. eigenvalues --   -0.46845  -0.45724  -0.44986  -0.44568  -0.43472
 Alpha  occ. eigenvalues --   -0.41033  -0.40902  -0.39192  -0.37835  -0.37783
 Alpha  occ. eigenvalues --   -0.37271  -0.37074  -0.36888  -0.35887  -0.34839
 Alpha  occ. eigenvalues --   -0.34553  -0.33725  -0.33409  -0.33230  -0.32953
 Alpha  occ. eigenvalues --   -0.32498  -0.32282  -0.32084  -0.31714  -0.30801
 Alpha  occ. eigenvalues --   -0.30442  -0.29762  -0.25720  -0.25106
 Alpha virt. eigenvalues --    0.03225   0.03823   0.06797   0.07883   0.08890
 Alpha virt. eigenvalues --    0.09412   0.09950   0.10223   0.11180   0.12127
 Alpha virt. eigenvalues --    0.12584   0.14239   0.14349   0.14764   0.15122

 Mulliken charges:
               1
     1  N   -0.312714
     2  C    0.180614
     3  C    0.061230
     4  N   -0.260215
     5  C    0.139176
     6  H    0.026265
     7  N   -0.293773
     8  C    0.134938
     9  H    0.011483
    10  N   -0.288296
    11  C    0.252237
    12  C    0.099414
    13  N   -0.053448
    14  H    0.110612
    15  H    0.082786
    16  H    0.025034
    17  H    0.029606
    18  H    0.026538
    19  N   -0.299693
    20  C    0.242114
    21  C    0.181041
    22  N   -0.107609
    23  H    0.112638
    24  H    0.114460
    25  N   -0.306078
    26  C    0.227456
    27  N   -0.144186
    28  H    0.121170
    29  C    0.185294
    30  O   -0.323271
    31  C   -0.013295
    32  N   -0.223729
    33  C    0.128653
    34  H    0.017495
    35  H    0.029283
    36  H    0.027634
    37  H    0.022506
    38  H    0.062925
    39  H    0.058439
    40  H    0.071738
    41  H    0.026558
    42  C   -0.110061
    43  O   -0.266441
    44  C    0.166951
    45  H    0.131111
    46  N   -0.118243
    47  O   -0.337589
    48  C    0.332001
    49  H    0.046151
    50  C    0.165149
    51  C    0.033621
    52  N   -0.278114
    53  H    0.035427
    54  H    0.037852
    55  H    0.028709
    56  H    0.124728
    57  H    0.116477
    58  N   -0.055765
    59  C    0.086902
    60  C    0.246457
    61  N   -0.273076
    62  H    0.042942
    63  C    0.157677
    64  N   -0.302114
    65  H    0.037914
    66  C    0.129761
    67  N   -0.259892
    68  C    0.021892
    69  C    0.181135
    70  N   -0.304589
 Sum of Mulliken charges =  -0.00000

 Dipole moment (field-independent basis, Debye):
    X=             -7.6685    Y=              6.4681    Z=             -2.5378  Tot=             10.3481
 Quadrupole moment (field-independent basis, Debye-Ang):
   XX=           -152.5818   YY=           -221.9252   ZZ=           -255.6908
   XY=             -1.8676   XZ=             -3.4820   YZ=              9.4371

 Normal termination of Gaussian 16 at Tue Jan 23 09:22:31 2018.
