 Gaussian 16, Revision A.03,
 Gaussian 16:  EM64L-G16RevA.03 25-Dec-2016

 ---------------------------------------
 #p wb97xd/cc-pvdz sp scf=(maxcycles=20)
 ---------------------------------------

 ------------------
 Base pair stacking
 ------------------
 Symbolic Z-matrix:
 Charge =  0 Multiplicity = 1

                         Standard orientation:
 ---------------------------------------------------------------------
 Center     Atomic      Atomic             Coordinates (Angstroms)
 Number     Number       Type             X           Y           Z
 ---------------------------------------------------------------------
      1          7           0       -5.952951   -1.858226    0.902281
      2          6           0       -7.360659   -1.446515    1.066133
      3          6           0       -3.754120   -1.901186    0.927296
      4          7           0       -4.159248   -3.099678    0.357893
      5          6           0       -5.467753   -3.025826    0.365616
      6          1           0       -6.134746   -3.801706   -0.011302
      7          7           0       -2.428544   -0.144966    1.776692
      8          6           0       -3.575040    0.486722    2.048893
      9          1           0       -3.467420    1.467451    2.510243
     10          7           0       -4.828627    0.090685    1.837763
     11          6           0       -4.848627   -1.125587    1.267940
     12          6           0       -2.482352   -1.367092    1.203442
     13          7           0       -1.338972   -1.999240    0.930971
     14          1           0       -1.331236   -2.905484    0.506860
     15          1           0       -0.451630   -1.588747    1.141349
     16          1           0       -7.836369   -2.105338    1.649093
     17          1           0       -7.396983   -0.541558    1.489052
     18          1           0       -7.806510   -1.412696    0.171666
     19          7           0       -3.033201    3.331777   -1.566961
     20          6           0       -1.748037    2.846512   -1.536520
     21          6           0       -3.411830    4.753921   -1.445194
     22          7           0        1.670114    3.399167   -1.267187
     23          1           0        2.507994    2.854012   -1.270721
     24          1           0        1.772901    4.388408   -1.159680
     25          7           0       -0.624250    3.581442   -1.391433
     26          6           0        0.462513    2.830125   -1.400543
     27          7           0        0.451742    1.463485   -1.540887
     28          1           0        1.331426    0.970436   -1.536503
     29          6           0       -0.692723    0.686711   -1.691545
     30          8           0       -0.592599   -0.540681   -1.810756
     31          6           0       -1.868186    1.479874   -1.683685
     32          7           0       -3.201948    1.114504   -1.804084
     33          6           0       -3.854373    2.242765   -1.729393
     34          1           0       -4.939224    2.337754   -1.787243
     35          1           0       -4.001371    4.876503   -0.647548
     36          1           0       -2.587482    5.308055   -1.337219
     37          1           0       -3.900461    5.042116   -2.267992
     38          1           0        5.979609   -0.950451   -0.790033
     39          1           0        5.999081   -1.039240   -2.549682
     40          1           0        5.099166    0.245132   -1.742265
     41          1           0        3.301740   -4.883225   -1.503394
     42          6           0        3.206156   -3.798798   -1.559165
     43          8           0        0.834278   -3.824803   -1.584098
     44          6           0        1.901613   -3.212244   -1.603197
     45          1           0        0.989862   -1.382887   -1.705580
     46          7           0        1.893405   -1.833722   -1.672839
     47          8           0        2.875168    0.211961   -1.765193
     48          6           0        2.983235   -1.000106   -1.702840
     49          1           0        5.302167   -3.408231   -1.555686
     50          6           0        4.288116   -3.011902   -1.586903
     51          6           0        5.399496   -0.790656   -1.686686
     52          7           0        4.205923   -1.640519   -1.657010
     53          1           0        4.269321    3.538098    3.839697
     54          1           0        3.015337    3.764160    2.820624
     55          1           0        4.545722    3.955256    2.286313
     56          1           0        2.212862   -2.945475    0.873263
     57          1           0        3.833633   -2.579279    1.259433
     58          7           0        2.885870   -2.269846    1.174456
     59          6           0        2.536085   -1.011873    1.450780
     60          6           0        2.930311    1.235632    2.125338
     61          7           0        1.650015    1.623108    2.002343
     62          1           0       -0.165413    0.835895    1.468366
     63          6           0        0.891972    0.607248    1.594534
     64          7           0        1.240424   -0.653412    1.317246
     65          1           0        6.087095    1.520568    2.762266
     66          6           0        5.091406    1.168611    2.490868
     67          7           0        4.810841   -0.054288    2.112107
     68          6           0        3.443821   -0.025436    1.877252
     69          6           0        3.953916    3.428977    2.897034
     70          7           0        4.000339    2.002497    2.521544
 ---------------------------------------------------------------------

 SCF Done:  E(RwB97XD) =  -2048.74236543     A.U. after   15 cycles

 The electronic state is 1-A.
 Alpha  occ. eigenvalues --  -19.26253 -19.22849 -19.20798 -14.52874 -14.51976
 Alpha  occ. eigenvalues --  -14.48927 -14.48210 -14.48019 -14.47841 -14.47172
 Alpha  occ. eigenvalues --  -14.46993 -14.45081 -14.43799 -14.43749 -14.42238
 Alpha  occ. eigenvalues --  -14.41407 -14.40952 -14.40630 -14.40143 -14.39494
 Alpha  occ. eigenvalues --  -10.45879 -10.41471 -10.40807 -10.39450 -10.38421
 Alpha  occ. eigenvalues --  -10.38401 -10.37585 -10.36672 -10.35310 -10.35177
 Alpha  occ. eigenvalues --  -10.34645 -10.34504 -10.33494 -10.33402 -10.33326
 Alpha  occ. eigenvalues --  -10.32581 -10.32366 -10.32208 -10.31746 -10.31063
 Alpha  occ. eigenvalues --  -10.30372 -10.28261 -10.27733  -1.19826  -1.14712
 Alpha  occ. eigenvalues --   -1.13776  -1.13401  -1.10742  -1.10576  -1.09793
 Alpha  occ. eigenvalues --   -1.08833  -1.08779  -1.04411  -1.04231  -1.02950
 Alpha  occ. eigenvalues --   -1.00545  -1.00021  -0.99645  -0.98736  -0.96739
 Alpha  occ. eigenvalues --   -0.96416  -0.96134  -0.91894  -0.91647  -0.87138
 Alpha  occ. eigenvalues --   -0.85460  -0.84278  -0.83913  -0.83212  -0.82662
 Alpha  occ. eigenvalues --   -0.81616  -0.79417  -0.76588  -0.74813  -0.74311
 Alpha  occ. eigenvalues --   -0.73931  -0.73779  -0.72166  -0.70316  -0.69993
 Alpha  occ. eigenvalues --   -0.67621  -0.66973  -0.66407  -0.65558  -0.64840
 Alpha  occ. eigenvalues --   -0.64034  -0.63877  -0.62902  -0.61975  -0.61951
 Alpha  occ. eigenvalues --   -0.60323  -0.60071  -0.59950  -0.59807  -0.59201
 Alpha  occ. eigenvalues --   -0.58941  -0.58642  -0.56766  -0.56315  -0.55891
 Alpha  occ. eigenvalues --   -0.55714  -0.54916  -0.54818  -0.54655  -0.54373
 Alpha  occ. eigenvalues --   -0.53915  -0.53676  -0.53335  -0.53203  -0.53073
 Alpha  occ. eigenvalues --   -0.52727  -0.52330  -0.51115  -0.50441  -0.50010
 Alpha  occ. eigenvalues --   -0.49855  -0.49576  -0.49302  -0.49252  -0.48907
 Alpha  occ. eigenvalues --   -0.48550  -0.48507  -0.48140  -0.47889  -0.47621
 Alpha  occ. eigenvalues --   -0.46239  -0.45804  -0.44769  -0.44307  -0.44251
 Alpha  occ. eigenvalues --   -0.40350  -0.40219  -0.39780  -0.37493  -0.37447
 Alpha  occ. eigenvalues --   -0.37429  -0.37049  -0.36407  -0.36221  -0.34563
 Alpha  occ. eigenvalues --   -0.34127  -0.33919  -0.33742  -0.32945  -0.32789
 Alpha  occ. eigenvalues --   -0.32691  -0.32619  -0.32403  -0.31995  -0.30178
 Alpha  occ. eigenvalues --   -0.29730  -0.29580  -0.25747  -0.24856
 Alpha virt. eigenvalues --    0.02218   0.04443   0.07556   0.07985   0.08726
 Alpha virt. eigenvalues --    0.09105   0.09581   0.10977   0.11731   0.11813
 Alpha virt. eigenvalues --    0.12745   0.14384   0.14465   0.15048   0.15134

 Mulliken charges:
               1
     1  N   -0.312363
     2  C    0.181435
     3  C    0.042507
     4  N   -0.257222
     5  C    0.133855
     6  H    0.024009
     7  N   -0.299281
     8  C    0.139473
     9  H    0.007333
    10  N   -0.293059
    11  C    0.249849
    12  C    0.118063
    13  N   -0.054225
    14  H    0.114306
    15  H    0.084912
    16  H    0.023394
    17  H    0.032732
    18  H    0.025127
    19  N   -0.312218
    20  C    0.249076
    21  C    0.180893
    22  N   -0.120784
    23  H    0.114592
    24  H    0.116481
    25  N   -0.310433
    26  C    0.245669
    27  N   -0.147391
    28  H    0.117539
    29  C    0.188561
    30  O   -0.320175
    31  C   -0.008430
    32  N   -0.225016
    33  C    0.130944
    34  H    0.026628
    35  H    0.029029
    36  H    0.028670
    37  H    0.025060
    38  H    0.064308
    39  H    0.059325
    40  H    0.074995
    41  H    0.032783
    42  C   -0.110328
    43  O   -0.262264
    44  C    0.138431
    45  H    0.133967
    46  N   -0.111598
    47  O   -0.343493
    48  C    0.340287
    49  H    0.049145
    50  C    0.155349
    51  C    0.040815
    52  N   -0.277496
    53  H    0.033380
    54  H    0.043902
    55  H    0.025076
    56  H    0.129809
    57  H    0.115306
    58  N   -0.065250
    59  C    0.084625
    60  C    0.243758
    61  N   -0.268366
    62  H    0.040742
    63  C    0.169091
    64  N   -0.307888
    65  H    0.034963
    66  C    0.137598
    67  N   -0.272030
    68  C    0.034893
    69  C    0.179310
    70  N   -0.312684
 Sum of Mulliken charges =  -0.00000

 Dipole moment (field-independent basis, Debye):
    X=              9.4902    Y=              5.5657    Z=              0.5893  Tot=             11.0176
 Quadrupole moment (field-independent basis, Debye-Ang):
   XX=           -160.5521   YY=           -211.7443   ZZ=           -249.3880
   XY=             -5.3430   XZ=              0.2266   YZ=             -1.3625

 Normal termination of Gaussian 16 at Fri Jan 26 08:35:11 2018.
