 Gaussian 16, Revision A.03,
 Gaussian 16:  EM64L-G16RevA.03 25-Dec-2016

 ---------------------------------------
 #p wb97xd/cc-pvdz sp scf=(maxcycles=20)
 ---------------------------------------

 ------------------
 Base pair stacking
 ------------------
 Symbolic Z-matrix:
 Charge =  0 Multiplicity = 1

                         Standard orientation:
 ---------------------------------------------------------------------
 Center     Atomic      Atomic             Coordinates (Angstroms)
 Number     Number       Type             X           Y           Z
 ---------------------------------------------------------------------
      1          7           0       -7.157087   -1.590831    0.132006
      2          6           0       -8.535265   -1.133445   -0.131527
      3          6           0       -5.000971   -1.642916    0.562988
      4          7           0       -5.405136   -2.964806    0.444693
      5          6           0       -6.687944   -2.880522    0.189788
      6          1           0       -7.346516   -3.735416    0.033626
      7          7           0       -3.690924    0.292565    0.880236
      8          6           0       -4.811665    0.992182    0.675156
      9          1           0       -4.700515    2.074365    0.727927
     10          7           0       -6.043316    0.557748    0.415896
     11          6           0       -6.069893   -0.784586    0.372771
     12          6           0       -3.750696   -1.056138    0.830268
     13          7           0       -2.633021   -1.756257    1.034723
     14          1           0       -2.630613   -2.756487    1.007030
     15          1           0       -1.760453   -1.305091    1.222426
     16          1           0       -9.149103   -1.500334    0.567603
     17          1           0       -8.565701   -0.134590   -0.109496
     18          1           0       -8.828757   -1.454399   -1.031989
     19          7           0       -1.733748    2.885853   -1.759582
     20          6           0       -0.469841    2.426653   -1.477242
     21          6           0       -2.174183    4.291578   -1.656297
     22          7           0        2.793709    3.036011   -0.457590
     23          1           0        3.629901    2.509412   -0.306860
     24          1           0        2.840089    4.020299   -0.285142
     25          7           0        0.573681    3.176432   -1.061361
     26          6           0        1.660617    2.449490   -0.872315
     27          7           0        1.722945    1.092011   -1.074495
     28          1           0        2.596651    0.617901   -0.904686
     29          6           0        0.661745    0.300307   -1.502155
     30          8           0        0.823501   -0.916924   -1.653575
     31          6           0       -0.512877    1.067231   -1.709474
     32          7           0       -1.778335    0.680769   -2.129165
     33          6           0       -2.466898    1.789762   -2.143949
     34          1           0       -3.517068    1.864910   -2.428142
     35          1           0       -2.923431    4.360380   -0.998499
     36          1           0       -1.409511    4.856493   -1.349033
     37          1           0       -2.485464    4.611635   -2.550427
     38          1           0        7.037840   -1.241384    0.729824
     39          1           0        7.433881   -1.238630   -0.987097
     40          1           0        6.342871   -0.016835   -0.332666
     41          1           0        4.698080   -5.187155   -0.720360
     42          6           0        4.582459   -4.103532   -0.745287
     43          8           0        2.272169   -4.177808   -1.278327
     44          6           0        3.299320   -3.542897   -1.040378
     45          1           0        2.373092   -1.730159   -1.251123
     46          7           0        3.262742   -2.163090   -1.046604
     47          8           0        4.176805   -0.095279   -0.832437
     48          6           0        4.307230   -1.306421   -0.804291
     49          1           0        6.616428   -3.669906   -0.275415
     50          6           0        5.620250   -3.293798   -0.504594
     51          6           0        6.656951   -1.047596   -0.261862
     52          7           0        5.511732   -1.922639   -0.527434
     53          1           0        2.866620    4.423487    2.497743
     54          1           0        1.813243    4.237488    1.265712
     55          1           0        3.419531    4.183961    0.981053
     56          1           0        0.795051   -2.683621    1.984761
     57          1           0        2.357706   -2.210559    2.479155
     58          7           0        1.463541   -1.950892    2.112753
     59          6           0        1.176367   -0.683514    1.808667
     60          6           0        1.637294    1.642401    1.610251
     61          7           0        0.428241    1.961897    1.119802
     62          1           0       -1.336221    1.045845    0.621692
     63          6           0       -0.334254    0.875557    1.013263
     64          7           0       -0.048460   -0.394670    1.317300
     65          1           0        4.664862    2.125077    2.636417
     66          6           0        3.700113    1.704388    2.351437
     67          7           0        3.386183    0.434819    2.437051
     68          6           0        2.080822    0.381752    1.970197
     69          6           0        2.697683    3.950891    1.632800
     70          7           0        2.688613    2.492575    1.859114
 ---------------------------------------------------------------------

 SCF Done:  E(RwB97XD) =  -2048.64959843     A.U. after   15 cycles

 The electronic state is 1-A.
 Alpha  occ. eigenvalues --  -19.25973 -19.22104 -19.20844 -14.52564 -14.51379
 Alpha  occ. eigenvalues --  -14.49118 -14.49047 -14.48029 -14.46952 -14.46887
 Alpha  occ. eigenvalues --  -14.46607 -14.44352 -14.42815 -14.42552 -14.42281
 Alpha  occ. eigenvalues --  -14.42047 -14.41828 -14.41263 -14.41015 -14.40496
 Alpha  occ. eigenvalues --  -10.45616 -10.41367 -10.40230 -10.38615 -10.38490
 Alpha  occ. eigenvalues --  -10.37915 -10.36897 -10.35803 -10.35785 -10.35397
 Alpha  occ. eigenvalues --  -10.34479 -10.34456 -10.34216 -10.33745 -10.33602
 Alpha  occ. eigenvalues --  -10.33492 -10.33463 -10.31375 -10.31218 -10.31190
 Alpha  occ. eigenvalues --  -10.31090 -10.28943 -10.28532  -1.19551  -1.14864
 Alpha  occ. eigenvalues --   -1.13316  -1.13128  -1.11723  -1.10867  -1.09456
 Alpha  occ. eigenvalues --   -1.09263  -1.08017  -1.05345  -1.03559  -1.02656
 Alpha  occ. eigenvalues --   -1.01987  -1.00800  -0.99142  -0.98790  -0.97323
 Alpha  occ. eigenvalues --   -0.96863  -0.95546  -0.92992  -0.91174  -0.87352
 Alpha  occ. eigenvalues --   -0.85584  -0.84330  -0.84286  -0.83795  -0.82784
 Alpha  occ. eigenvalues --   -0.82641  -0.79013  -0.75989  -0.75040  -0.74604
 Alpha  occ. eigenvalues --   -0.73664  -0.73500  -0.73272  -0.71428  -0.69574
 Alpha  occ. eigenvalues --   -0.68043  -0.66738  -0.66663  -0.66034  -0.64708
 Alpha  occ. eigenvalues --   -0.64225  -0.63962  -0.63242  -0.62998  -0.62966
 Alpha  occ. eigenvalues --   -0.60598  -0.60380  -0.59733  -0.59683  -0.59634
 Alpha  occ. eigenvalues --   -0.59130  -0.58564  -0.56929  -0.56747  -0.56668
 Alpha  occ. eigenvalues --   -0.56139  -0.55744  -0.55059  -0.54610  -0.54184
 Alpha  occ. eigenvalues --   -0.53762  -0.53451  -0.53273  -0.52956  -0.52567
 Alpha  occ. eigenvalues --   -0.52095  -0.51993  -0.51594  -0.51062  -0.50514
 Alpha  occ. eigenvalues --   -0.50367  -0.49569  -0.49462  -0.49002  -0.48829
 Alpha  occ. eigenvalues --   -0.48537  -0.48534  -0.48159  -0.47588  -0.47327
 Alpha  occ. eigenvalues --   -0.47283  -0.45493  -0.45445  -0.44119  -0.42601
 Alpha  occ. eigenvalues --   -0.41548  -0.39979  -0.39585  -0.38028  -0.37548
 Alpha  occ. eigenvalues --   -0.37487  -0.36618  -0.36005  -0.35481  -0.35209
 Alpha  occ. eigenvalues --   -0.33908  -0.33835  -0.33320  -0.33211  -0.32892
 Alpha  occ. eigenvalues --   -0.32200  -0.32170  -0.32083  -0.31972  -0.31280
 Alpha  occ. eigenvalues --   -0.30706  -0.28369  -0.26165  -0.25275
 Alpha virt. eigenvalues --    0.03000   0.04974   0.07241   0.07609   0.08304
 Alpha virt. eigenvalues --    0.08877   0.10230   0.10576   0.10890   0.12564
 Alpha virt. eigenvalues --    0.13370   0.13642   0.14210   0.14380   0.14836

 Mulliken charges:
               1
     1  N   -0.311225
     2  C    0.181038
     3  C    0.029471
     4  N   -0.259802
     5  C    0.134636
     6  H    0.027796
     7  N   -0.289197
     8  C    0.131693
     9  H    0.007388
    10  N   -0.288083
    11  C    0.244111
    12  C    0.124086
    13  N   -0.058237
    14  H    0.107482
    15  H    0.088635
    16  H    0.025859
    17  H    0.035374
    18  H    0.026920
    19  N   -0.307994
    20  C    0.239414
    21  C    0.182977
    22  N   -0.086721
    23  H    0.113616
    24  H    0.113970
    25  N   -0.246030
    26  C    0.141665
    27  N   -0.094089
    28  H    0.119943
    29  C    0.154894
    30  O   -0.318538
    31  C   -0.013929
    32  N   -0.214883
    33  C    0.128838
    34  H    0.031524
    35  H    0.029742
    36  H    0.026695
    37  H    0.025298
    38  H    0.061516
    39  H    0.059661
    40  H    0.073753
    41  H    0.032369
    42  C   -0.112512
    43  O   -0.265203
    44  C    0.176696
    45  H    0.134887
    46  N   -0.140996
    47  O   -0.348833
    48  C    0.364055
    49  H    0.048400
    50  C    0.171472
    51  C    0.043677
    52  N   -0.298647
    53  H    0.014203
    54  H    0.034794
    55  H   -0.010588
    56  H    0.121815
    57  H    0.113851
    58  N   -0.067365
    59  C    0.103487
    60  C    0.206501
    61  N   -0.254036
    62  H    0.050634
    63  C    0.156376
    64  N   -0.296298
    65  H    0.026936
    66  C    0.110261
    67  N   -0.259628
    68  C    0.038858
    69  C    0.221353
    70  N   -0.295790
 Sum of Mulliken charges =  -0.00000

 Dipole moment (field-independent basis, Debye):
    X=              7.9514    Y=              5.0179    Z=              2.9709  Tot=              9.8606
 Quadrupole moment (field-independent basis, Debye-Ang):
   XX=           -149.0114   YY=           -216.4560   ZZ=           -252.8866
   XY=              1.3119   XZ=             13.5304   YZ=            -11.7838

 Normal termination of Gaussian 16 at Fri Jan 26 01:48:59 2018.
