 Gaussian 16, Revision A.03,
 Gaussian 16:  EM64L-G16RevA.03 25-Dec-2016

 ---------------------------------------
 #p wb97xd/cc-pvdz sp scf=(maxcycles=20)
 ---------------------------------------

 ------------------
 Base pair stacking
 ------------------
 Symbolic Z-matrix:
 Charge =  0 Multiplicity = 1

                         Standard orientation:
 ---------------------------------------------------------------------
 Center     Atomic      Atomic             Coordinates (Angstroms)
 Number     Number       Type             X           Y           Z
 ---------------------------------------------------------------------
      1          7           0       -5.921495   -1.819256    0.961223
      2          6           0       -7.328315   -1.381629    1.046945
      3          6           0       -3.723785   -1.871755    1.029354
      4          7           0       -4.129260   -3.130715    0.610635
      5          6           0       -5.437071   -3.048700    0.586347
      6          1           0       -6.104087   -3.862382    0.300071
      7          7           0       -2.398059   -0.029351    1.670436
      8          6           0       -3.543690    0.638734    1.840031
      9          1           0       -3.435678    1.669696    2.174268
     10          7           0       -4.796838    0.226445    1.659612
     11          6           0       -4.817382   -1.052500    1.249365
     12          6           0       -2.452403   -1.314333    1.256950
     13          7           0       -1.309890   -1.982889    1.087078
     14          1           0       -1.302574   -2.935913    0.782251
     15          1           0       -0.422800   -1.554180    1.258612
     16          1           0       -7.818782   -1.957770    1.700922
     17          1           0       -7.364196   -0.429876    1.350261
     18          1           0       -7.759218   -1.459671    0.147931
     19          7           0       -3.093375    3.215588   -1.570395
     20          6           0       -1.805054    2.741463   -1.511545
     21          6           0       -3.489715    4.630703   -1.425249
     22          7           0        1.597357    3.318300   -1.120855
     23          1           0        2.440288    2.781072   -1.111535
     24          1           0        1.686911    4.305415   -0.985544
     25          7           0       -0.693706    3.482714   -1.312813
     26          6           0        0.400207    2.741810   -1.306360
     27          7           0        0.407372    1.379109   -1.480980
     28          1           0        1.291338    0.894143   -1.461129
     29          6           0       -0.724053    0.595967   -1.686962
     30          8           0       -0.608104   -0.627066   -1.833490
     31          6           0       -1.906997    1.377919   -1.696417
     32          7           0       -3.232646    1.003561   -1.867880
     33          6           0       -3.898230    2.123578   -1.785733
     34          1           0       -4.981636    2.210092   -1.875377
     35          1           0       -4.105112    4.727746   -0.643787
     36          1           0       -2.674677    5.189434   -1.277556
     37          1           0       -3.955184    4.935073   -2.255613
     38          1           0        5.932681   -1.002481   -0.616503
     39          1           0        6.008098   -1.046697   -2.376342
     40          1           0        5.070671    0.208642   -1.565962
     41          1           0        3.317558   -4.940282   -1.511724
     42          6           0        3.213019   -3.855712   -1.543451
     43          8           0        0.843462   -3.902715   -1.643810
     44          6           0        1.904740   -3.280154   -1.613974
     45          1           0        0.978561   -1.457185   -1.699467
     46          7           0        1.885072   -1.900445   -1.649480
     47          8           0        2.848920    0.155781   -1.659839
     48          6           0        2.966984   -1.056428   -1.624327
     49          1           0        5.303919   -3.446254   -1.464134
     50          6           0        4.287464   -3.058532   -1.517438
     51          6           0        5.379363   -0.825425   -1.526752
     52          7           0        4.193928   -1.686620   -1.555914
     53          1           0        4.294849    3.847118    3.361652
     54          1           0        3.059524    3.948642    2.300620
     55          1           0        4.599928    4.060827    1.772721
     56          1           0        2.234640   -2.949858    1.211720
     57          1           0        3.851797   -2.546983    1.575857
     58          7           0        2.908088   -2.245301    1.435798
     59          6           0        2.564042   -0.960288    1.543289
     60          6           0        2.965396    1.352568    1.932272
     61          7           0        1.690455    1.728777    1.738817
     62          1           0       -0.122337    0.890639    1.278484
     63          6           0        0.930958    0.673686    1.450968
     64          7           0        1.273669   -0.614115    1.342837
     65          1           0        6.113570    1.697745    2.581890
     66          6           0        5.119617    1.319933    2.340510
     67          7           0        4.835382    0.060360    2.116099
     68          6           0        3.472656    0.067116    1.855974
     69          6           0        3.993992    3.620389    2.435328
     70          7           0        4.034982    2.157380    2.245749
 ---------------------------------------------------------------------

 SCF Done:  E(RwB97XD) =  -2048.74552029     A.U. after   15 cycles

 The electronic state is 1-A.
 Alpha  occ. eigenvalues --  -19.26031 -19.22394 -19.20674 -14.52629 -14.52165
 Alpha  occ. eigenvalues --  -14.48821 -14.48164 -14.48115 -14.48013 -14.47011
 Alpha  occ. eigenvalues --  -14.46774 -14.45238 -14.43960 -14.43903 -14.42097
 Alpha  occ. eigenvalues --  -14.41724 -14.40845 -14.40799 -14.40319 -14.39692
 Alpha  occ. eigenvalues --  -10.45653 -10.41287 -10.40452 -10.39642 -10.38271
 Alpha  occ. eigenvalues --  -10.38149 -10.37740 -10.36839 -10.35344 -10.35115
 Alpha  occ. eigenvalues --  -10.34873 -10.34378 -10.33729 -10.33491 -10.33303
 Alpha  occ. eigenvalues --  -10.32748 -10.32537 -10.32353 -10.31477 -10.30980
 Alpha  occ. eigenvalues --  -10.30477 -10.28137 -10.27918  -1.19601  -1.14887
 Alpha  occ. eigenvalues --   -1.13370  -1.13266  -1.10733  -1.10629  -1.09531
 Alpha  occ. eigenvalues --   -1.09003  -1.08619  -1.04575  -1.04426  -1.02686
 Alpha  occ. eigenvalues --   -1.00723  -0.99872  -0.99832  -0.98606  -0.96628
 Alpha  occ. eigenvalues --   -0.96583  -0.96309  -0.92102  -0.91357  -0.87314
 Alpha  occ. eigenvalues --   -0.85662  -0.84153  -0.83688  -0.83364  -0.82555
 Alpha  occ. eigenvalues --   -0.81771  -0.79139  -0.76752  -0.74687  -0.74484
 Alpha  occ. eigenvalues --   -0.73743  -0.73545  -0.72358  -0.70496  -0.70155
 Alpha  occ. eigenvalues --   -0.67455  -0.66729  -0.66570  -0.65758  -0.64615
 Alpha  occ. eigenvalues --   -0.64025  -0.63876  -0.62769  -0.62163  -0.61812
 Alpha  occ. eigenvalues --   -0.60332  -0.60056  -0.60001  -0.59712  -0.59338
 Alpha  occ. eigenvalues --   -0.59125  -0.58463  -0.56689  -0.56126  -0.56068
 Alpha  occ. eigenvalues --   -0.55831  -0.55111  -0.54859  -0.54603  -0.54419
 Alpha  occ. eigenvalues --   -0.53762  -0.53680  -0.53298  -0.53134  -0.53054
 Alpha  occ. eigenvalues --   -0.52508  -0.52487  -0.51259  -0.50274  -0.50156
 Alpha  occ. eigenvalues --   -0.49734  -0.49608  -0.49458  -0.49012  -0.48929
 Alpha  occ. eigenvalues --   -0.48454  -0.48359  -0.48323  -0.47789  -0.47459
 Alpha  occ. eigenvalues --   -0.46399  -0.45706  -0.44821  -0.44413  -0.44126
 Alpha  occ. eigenvalues --   -0.40553  -0.40399  -0.39577  -0.37573  -0.37376
 Alpha  occ. eigenvalues --   -0.37332  -0.37135  -0.36580  -0.36054  -0.34700
 Alpha  occ. eigenvalues --   -0.34117  -0.33768  -0.33473  -0.32978  -0.32892
 Alpha  occ. eigenvalues --   -0.32693  -0.32419  -0.32277  -0.31884  -0.30338
 Alpha  occ. eigenvalues --   -0.29902  -0.29741  -0.25677  -0.24992
 Alpha virt. eigenvalues --    0.02602   0.04300   0.07470   0.08151   0.08568
 Alpha virt. eigenvalues --    0.09209   0.09670   0.10832   0.11636   0.11673
 Alpha virt. eigenvalues --    0.12348   0.14224   0.14471   0.14892   0.15158

 Mulliken charges:
               1
     1  N   -0.312571
     2  C    0.181535
     3  C    0.042659
     4  N   -0.258361
     5  C    0.134663
     6  H    0.024740
     7  N   -0.297333
     8  C    0.140706
     9  H    0.007205
    10  N   -0.292169
    11  C    0.252330
    12  C    0.118677
    13  N   -0.056615
    14  H    0.112525
    15  H    0.083871
    16  H    0.023527
    17  H    0.032584
    18  H    0.025929
    19  N   -0.312390
    20  C    0.248223
    21  C    0.180918
    22  N   -0.112627
    23  H    0.113955
    24  H    0.114642
    25  N   -0.308820
    26  C    0.238382
    27  N   -0.144955
    28  H    0.119677
    29  C    0.182898
    30  O   -0.320390
    31  C   -0.004853
    32  N   -0.225396
    33  C    0.131305
    34  H    0.025759
    35  H    0.028950
    36  H    0.028445
    37  H    0.024727
    38  H    0.062658
    39  H    0.058829
    40  H    0.074142
    41  H    0.031603
    42  C   -0.111919
    43  O   -0.263341
    44  C    0.154105
    45  H    0.133610
    46  N   -0.118315
    47  O   -0.343957
    48  C    0.340928
    49  H    0.047840
    50  C    0.159234
    51  C    0.040879
    52  N   -0.281610
    53  H    0.034548
    54  H    0.042452
    55  H    0.025257
    56  H    0.127444
    57  H    0.115490
    58  N   -0.063388
    59  C    0.081172
    60  C    0.239902
    61  N   -0.266808
    62  H    0.040720
    63  C    0.165619
    64  N   -0.304964
    65  H    0.035707
    66  C    0.137609
    67  N   -0.271039
    68  C    0.038970
    69  C    0.177635
    70  N   -0.313359
 Sum of Mulliken charges =  -0.00000

 Dipole moment (field-independent basis, Debye):
    X=              9.2400    Y=              5.4903    Z=              1.2422  Tot=             10.8196
 Quadrupole moment (field-independent basis, Debye-Ang):
   XX=           -160.2473   YY=           -211.9473   ZZ=           -251.6025
   XY=             -4.8846   XZ=             -0.1499   YZ=             -4.2397

 Normal termination of Gaussian 16 at Thu Jan 25 22:36:00 2018.
