 Gaussian 16, Revision A.03,
 Gaussian 16:  EM64L-G16RevA.03 25-Dec-2016

 ---------------------------------------
 #p wb97xd/cc-pvdz sp scf=(maxcycles=20)
 ---------------------------------------

 ------------------
 Base pair stacking
 ------------------
 Symbolic Z-matrix:
 Charge =  0 Multiplicity = 1

                         Standard orientation:
 ---------------------------------------------------------------------
 Center     Atomic      Atomic             Coordinates (Angstroms)
 Number     Number       Type             X           Y           Z
 ---------------------------------------------------------------------
      1          7           0       -7.176987   -1.586116    0.110780
      2          6           0       -8.560290   -1.125563   -0.118045
      3          6           0       -5.017061   -1.644985    0.521349
      4          7           0       -5.413446   -2.961916    0.338877
      5          6           0       -6.698857   -2.873738    0.098832
      6          1           0       -7.353042   -3.724157   -0.095559
      7          7           0       -3.717239    0.280928    0.926651
      8          6           0       -4.844248    0.982214    0.766527
      9          1           0       -4.739810    2.061043    0.873654
     10          7           0       -6.075111    0.552942    0.495226
     11          6           0       -6.093172   -0.785584    0.383760
     12          6           0       -3.768512   -1.063848    0.808306
     13          7           0       -2.644565   -1.765625    0.967798
     14          1           0       -2.635790   -2.763086    0.889013
     15          1           0       -1.773477   -1.318509    1.171361
     16          1           0       -9.165866   -1.531963    0.566275
     17          1           0       -8.597144   -0.129371   -0.044763
     18          1           0       -8.859131   -1.402182   -1.031376
     19          7           0       -1.693951    2.914416   -1.792548
     20          6           0       -0.430363    2.450597   -1.516370
     21          6           0       -2.120324    4.326278   -1.717991
     22          7           0        2.852455    3.054564   -0.557165
     23          1           0        3.685940    2.524106   -0.404989
     24          1           0        2.910037    4.042332   -0.409769
     25          7           0        0.625523    3.200683   -1.133580
     26          6           0        1.708461    2.468562   -0.941604
     27          7           0        1.755839    1.105996   -1.110990
     28          1           0        2.627564    0.628125   -0.941570
     29          6           0        0.681721    0.313880   -1.504285
     30          8           0        0.830463   -0.908157   -1.627766
     31          6           0       -0.488788    1.086340   -1.714300
     32          7           0       -1.763405    0.701410   -2.106832
     33          6           0       -2.442174    1.816055   -2.139541
     34          1           0       -3.495508    1.893915   -2.411021
     35          1           0       -2.859647    4.418196   -1.051836
     36          1           0       -1.346409    4.891474   -1.435368
     37          1           0       -2.441230    4.627119   -2.615390
     38          1           0        7.074419   -1.231492    0.677082
     39          1           0        7.446390   -1.274657   -1.044667
     40          1           0        6.375612   -0.027062   -0.405692
     41          1           0        4.679439   -5.189880   -0.642685
     42          6           0        4.573158   -4.106172   -0.692821
     43          8           0        2.255058   -4.172112   -1.191985
     44          6           0        3.291074   -3.541091   -0.983975
     45          1           0        2.378213   -1.725577   -1.226720
     46          7           0        3.266738   -2.161571   -1.023820
     47          8           0        4.202139   -0.097690   -0.873483
     48          6           0        4.322123   -1.308924   -0.817193
     49          1           0        6.617299   -3.680001   -0.261882
     50          6           0        5.621406   -3.300415   -0.486552
     51          6           0        6.681435   -1.058635   -0.313757
     52          7           0        5.524839   -1.929289   -0.541798
     53          1           0        2.826085    4.369860    2.700873
     54          1           0        1.763749    4.239599    1.469386
     55          1           0        3.367938    4.211964    1.169579
     56          1           0        0.797331   -2.716170    1.841871
     57          1           0        2.360882   -2.258001    2.347333
     58          7           0        1.462002   -1.986252    2.001818
     59          6           0        1.163947   -0.707062    1.765192
     60          6           0        1.607827    1.629141    1.682241
     61          7           0        0.392653    1.964754    1.218397
     62          1           0       -1.369798    1.062951    0.688202
     63          6           0       -0.363508    0.879938    1.062563
     64          7           0       -0.066803   -0.402113    1.298998
     65          1           0        4.640567    2.080057    2.707583
     66          6           0        3.676278    1.667692    2.409173
     67          7           0        3.371467    0.393241    2.432284
     68          6           0        2.062652    0.354897    1.973752
     69          6           0        2.653089    3.940861    1.814291
     70          7           0        2.655542    2.472862    1.965849
 ---------------------------------------------------------------------

 SCF Done:  E(RwB97XD) =  -2048.70085857     A.U. after   15 cycles

 The electronic state is 1-A.
 Alpha  occ. eigenvalues --  -19.26015 -19.22198 -19.20937 -14.52617 -14.51207
 Alpha  occ. eigenvalues --  -14.49062 -14.49059 -14.48093 -14.47194 -14.47141
 Alpha  occ. eigenvalues --  -14.46795 -14.44265 -14.42692 -14.42449 -14.42352
 Alpha  occ. eigenvalues --  -14.42244 -14.41766 -14.41183 -14.41025 -14.40419
 Alpha  occ. eigenvalues --  -10.45666 -10.41546 -10.40316 -10.38577 -10.38479
 Alpha  occ. eigenvalues --  -10.37979 -10.36781 -10.35705 -10.35703 -10.35435
 Alpha  occ. eigenvalues --  -10.34520 -10.34417 -10.34179 -10.33677 -10.33574
 Alpha  occ. eigenvalues --  -10.33377 -10.33178 -10.31278 -10.31235 -10.31146
 Alpha  occ. eigenvalues --  -10.31089 -10.28872 -10.28509  -1.19598  -1.14369
 Alpha  occ. eigenvalues --   -1.13393  -1.13214  -1.11661  -1.10891  -1.09509
 Alpha  occ. eigenvalues --   -1.09182  -1.07824  -1.05266  -1.03406  -1.02711
 Alpha  occ. eigenvalues --   -1.01160  -1.00714  -0.99398  -0.98843  -0.97257
 Alpha  occ. eigenvalues --   -0.96870  -0.95379  -0.92910  -0.91234  -0.86680
 Alpha  occ. eigenvalues --   -0.85127  -0.84402  -0.84224  -0.83842  -0.82801
 Alpha  occ. eigenvalues --   -0.82581  -0.79071  -0.75782  -0.75022  -0.74397
 Alpha  occ. eigenvalues --   -0.73560  -0.73463  -0.73195  -0.71351  -0.69247
 Alpha  occ. eigenvalues --   -0.67966  -0.66765  -0.66588  -0.65643  -0.64703
 Alpha  occ. eigenvalues --   -0.64052  -0.63370  -0.63097  -0.62928  -0.62777
 Alpha  occ. eigenvalues --   -0.60473  -0.60143  -0.59732  -0.59673  -0.59467
 Alpha  occ. eigenvalues --   -0.59002  -0.58424  -0.56903  -0.56735  -0.56621
 Alpha  occ. eigenvalues --   -0.56183  -0.55667  -0.54939  -0.54573  -0.54218
 Alpha  occ. eigenvalues --   -0.53892  -0.53508  -0.53250  -0.52719  -0.52614
 Alpha  occ. eigenvalues --   -0.51975  -0.51917  -0.51618  -0.50999  -0.50443
 Alpha  occ. eigenvalues --   -0.50419  -0.49619  -0.49390  -0.49041  -0.48818
 Alpha  occ. eigenvalues --   -0.48614  -0.48562  -0.48240  -0.47669  -0.47326
 Alpha  occ. eigenvalues --   -0.47242  -0.45466  -0.45379  -0.44198  -0.42923
 Alpha  occ. eigenvalues --   -0.41470  -0.39776  -0.39624  -0.37870  -0.37555
 Alpha  occ. eigenvalues --   -0.37462  -0.36575  -0.36035  -0.35526  -0.35376
 Alpha  occ. eigenvalues --   -0.33837  -0.33771  -0.33404  -0.33133  -0.32961
 Alpha  occ. eigenvalues --   -0.32309  -0.32282  -0.32154  -0.32085  -0.31225
 Alpha  occ. eigenvalues --   -0.30623  -0.28368  -0.26085  -0.25608
 Alpha virt. eigenvalues --    0.02929   0.05213   0.07539   0.07753   0.08260
 Alpha virt. eigenvalues --    0.08979   0.09920   0.10676   0.10972   0.12531
 Alpha virt. eigenvalues --    0.13270   0.13685   0.14297   0.14468   0.14817

 Mulliken charges:
               1
     1  N   -0.311102
     2  C    0.181037
     3  C    0.029097
     4  N   -0.259538
     5  C    0.134314
     6  H    0.027555
     7  N   -0.289847
     8  C    0.131832
     9  H    0.007870
    10  N   -0.288423
    11  C    0.243513
    12  C    0.123795
    13  N   -0.057386
    14  H    0.107779
    15  H    0.088848
    16  H    0.025799
    17  H    0.035347
    18  H    0.026658
    19  N   -0.307881
    20  C    0.246421
    21  C    0.183103
    22  N   -0.095469
    23  H    0.115464
    24  H    0.116867
    25  N   -0.260277
    26  C    0.164477
    27  N   -0.102538
    28  H    0.120597
    29  C    0.159192
    30  O   -0.318920
    31  C   -0.017117
    32  N   -0.215100
    33  C    0.128610
    34  H    0.031414
    35  H    0.029964
    36  H    0.026869
    37  H    0.025222
    38  H    0.061692
    39  H    0.059866
    40  H    0.074067
    41  H    0.032488
    42  C   -0.112635
    43  O   -0.266254
    44  C    0.174752
    45  H    0.134875
    46  N   -0.140126
    47  O   -0.349333
    48  C    0.364105
    49  H    0.048740
    50  C    0.172082
    51  C    0.043440
    52  N   -0.298564
    53  H    0.024514
    54  H    0.042547
    55  H   -0.004209
    56  H    0.122790
    57  H    0.113332
    58  N   -0.065341
    59  C    0.101854
    60  C    0.211603
    61  N   -0.254135
    62  H    0.046741
    63  C    0.157955
    64  N   -0.296287
    65  H    0.026243
    66  C    0.113248
    67  N   -0.260728
    68  C    0.034524
    69  C    0.188469
    70  N   -0.290360
 Sum of Mulliken charges =  -0.00000

 Dipole moment (field-independent basis, Debye):
    X=              8.1875    Y=              5.0360    Z=              2.6239  Tot=              9.9640
 Quadrupole moment (field-independent basis, Debye-Ang):
   XX=           -148.7247   YY=           -215.8351   ZZ=           -251.9592
   XY=              1.2404   XZ=             13.6281   YZ=            -10.7428

 Normal termination of Gaussian 16 at Fri Jan 26 17:39:41 2018.
