 Gaussian 16, Revision A.03,
 Gaussian 16:  EM64L-G16RevA.03 25-Dec-2016

 ---------------------------------------
 #p wb97xd/cc-pvdz sp scf=(maxcycles=20)
 ---------------------------------------

 ------------------
 Base pair stacking
 ------------------
 Symbolic Z-matrix:
 Charge =  0 Multiplicity = 1

                         Standard orientation:
 ---------------------------------------------------------------------
 Center     Atomic      Atomic             Coordinates (Angstroms)
 Number     Number       Type             X           Y           Z
 ---------------------------------------------------------------------
      1          7           0        4.921502   -1.986805   -1.588424
      2          6           0        6.334754   -1.572586   -1.684121
      3          6           0        2.723687   -1.974681   -1.506125
      4          7           0        3.109221   -3.301973   -1.386231
      5          6           0        4.417890   -3.256159   -1.440606
      6          1           0        5.071900   -4.126334   -1.377249
      7          7           0        1.427396   -0.009973   -1.656028
      8          6           0        2.583158    0.652918   -1.767151
      9          1           0        2.491407    1.733015   -1.873147
     10          7           0        3.829406    0.184120   -1.766990
     11          6           0        3.829818   -1.152320   -1.631527
     12          6           0        1.461493   -1.353737   -1.521108
     13          7           0        0.308832   -2.017215   -1.410041
     14          1           0        0.286515   -3.012388   -1.308313
     15          1           0       -0.571224   -1.542413   -1.424728
     16          1           0        6.759064   -2.010926   -2.476578
     17          1           0        6.385601   -0.579603   -1.786710
     18          1           0        6.821213   -1.845577   -0.854165
     19          7           0        4.186660    3.006006    1.021856
     20          6           0        2.880063    2.583821    1.073122
     21          6           0        4.627932    4.381614    0.715760
     22          7           0       -0.513912    3.263939    0.790154
     23          1           0       -1.375833    2.764907    0.875618
     24          1           0       -0.573141    4.235747    0.560383
     25          7           0        1.788590    3.348554    0.854238
     26          6           0        0.668691    2.658033    0.975159
     27          7           0        0.619288    1.320833    1.286550
     28          1           0       -0.282147    0.874474    1.358243
     29          6           0        1.729603    0.514322    1.515901
     30          8           0        1.575438   -0.682159    1.790512
     31          6           0        2.940045    1.242147    1.389550
     32          7           0        4.257783    0.830323    1.534026
     33          6           0        4.959913    1.907279    1.307377
     34          1           0        6.049008    1.955907    1.335670
     35          1           0        5.205018    4.374526   -0.100161
     36          1           0        3.827940    4.957273    0.551773
     37          1           0        5.147148    4.746453    1.487840
     38          1           0       -5.029346   -0.896478    0.933327
     39          1           0       -5.014612   -0.763165    2.690222
     40          1           0       -4.074032    0.364701    1.713191
     41          1           0       -2.521374   -4.834484    2.094680
     42          6           0       -2.374532   -3.757549    2.011737
     43          8           0       -0.006415   -3.895519    2.002346
     44          6           0       -1.043597   -3.234228    1.960866
     45          1           0       -0.046198   -1.452956    1.817350
     46          7           0       -0.970134   -1.859877    1.855966
     47          8           0       -1.853984    0.226573    1.705065
     48          6           0       -2.019328   -0.977061    1.797779
     49          1           0       -4.449815   -3.269037    1.992060
     50          6           0       -3.418076   -2.921705    1.957057
     51          6           0       -4.423085   -0.654050    1.793412
     52          7           0       -3.271037   -1.557964    1.852351
     53          1           0       -5.215053    4.282622   -2.022061
     54          1           0       -3.909105    4.133465   -1.055440
     55          1           0       -5.405836    4.167890   -0.405311
     56          1           0       -3.269487   -2.857358   -1.473411
     57          1           0       -4.891244   -2.351394   -1.628340
     58          7           0       -3.929810   -2.106688   -1.498072
     59          6           0       -3.546358   -0.835469   -1.363319
     60          6           0       -3.886817    1.516124   -1.237455
     61          7           0       -2.588803    1.815162   -1.063786
     62          1           0       -0.781695    0.859150   -0.918813
     63          6           0       -1.851429    0.706508   -1.055314
     64          7           0       -2.233604   -0.567595   -1.190118
     65          1           0       -7.056251    2.059395   -1.571682
     66          6           0       -6.063125    1.617447   -1.486124
     67          7           0       -5.811406    0.332694   -1.547161
     68          6           0       -4.435098    0.254621   -1.390894
     69          6           0       -4.861953    3.861455   -1.186634
     70          7           0       -4.944348    2.392311   -1.299958
 ---------------------------------------------------------------------

 SCF Done:  E(RwB97XD) =  -2048.74876766     A.U. after   15 cycles

 The electronic state is 1-A.
 Alpha  occ. eigenvalues --  -19.25270 -19.21501 -19.20316 -14.52775 -14.52035
 Alpha  occ. eigenvalues --  -14.49090 -14.48619 -14.48173 -14.47323 -14.46490
 Alpha  occ. eigenvalues --  -14.45926 -14.45720 -14.44923 -14.44883 -14.42713
 Alpha  occ. eigenvalues --  -14.41720 -14.40890 -14.40681 -14.40560 -14.40194
 Alpha  occ. eigenvalues --  -10.44967 -10.40841 -10.40579 -10.39633 -10.38291
 Alpha  occ. eigenvalues --  -10.37932 -10.37642 -10.37561 -10.36381 -10.35435
 Alpha  occ. eigenvalues --  -10.34654 -10.34210 -10.34112 -10.33598 -10.33166
 Alpha  occ. eigenvalues --  -10.33095 -10.32923 -10.32782 -10.30871 -10.30846
 Alpha  occ. eigenvalues --  -10.30290 -10.28182 -10.27835  -1.18956  -1.15537
 Alpha  occ. eigenvalues --   -1.12877  -1.12515  -1.10810  -1.10357  -1.09901
 Alpha  occ. eigenvalues --   -1.08909  -1.08177  -1.05471  -1.04915  -1.01974
 Alpha  occ. eigenvalues --   -1.01339  -1.00406  -0.99205  -0.98252  -0.97453
 Alpha  occ. eigenvalues --   -0.96525  -0.96383  -0.92599  -0.90750  -0.88049
 Alpha  occ. eigenvalues --   -0.86270  -0.83880  -0.83471  -0.83172  -0.82324
 Alpha  occ. eigenvalues --   -0.81850  -0.78513  -0.77516  -0.75382  -0.74354
 Alpha  occ. eigenvalues --   -0.73218  -0.72888  -0.72711  -0.70961  -0.70746
 Alpha  occ. eigenvalues --   -0.67414  -0.66949  -0.66120  -0.66112  -0.64770
 Alpha  occ. eigenvalues --   -0.64153  -0.63487  -0.62568  -0.62419  -0.61349
 Alpha  occ. eigenvalues --   -0.60985  -0.60654  -0.60311  -0.59719  -0.59313
 Alpha  occ. eigenvalues --   -0.59135  -0.57835  -0.56655  -0.56318  -0.55722
 Alpha  occ. eigenvalues --   -0.55698  -0.55647  -0.55449  -0.54697  -0.54143
 Alpha  occ. eigenvalues --   -0.53925  -0.53500  -0.53360  -0.53130  -0.52786
 Alpha  occ. eigenvalues --   -0.52649  -0.52008  -0.51339  -0.50400  -0.50252
 Alpha  occ. eigenvalues --   -0.49901  -0.49822  -0.49734  -0.49017  -0.48712
 Alpha  occ. eigenvalues --   -0.48529  -0.48024  -0.47904  -0.47434  -0.47012
 Alpha  occ. eigenvalues --   -0.46567  -0.45696  -0.45313  -0.44220  -0.43591
 Alpha  occ. eigenvalues --   -0.41245  -0.40957  -0.38973  -0.38169  -0.38049
 Alpha  occ. eigenvalues --   -0.37225  -0.37023  -0.36547  -0.35453  -0.35112
 Alpha  occ. eigenvalues --   -0.34980  -0.33612  -0.33261  -0.33111  -0.32703
 Alpha  occ. eigenvalues --   -0.32374  -0.32225  -0.31676  -0.31645  -0.30609
 Alpha  occ. eigenvalues --   -0.30507  -0.30165  -0.25769  -0.25010
 Alpha virt. eigenvalues --    0.02888   0.04086   0.06256   0.08214   0.09073
 Alpha virt. eigenvalues --    0.09503   0.10030   0.10269   0.11155   0.11412
 Alpha virt. eigenvalues --    0.12941   0.14246   0.14731   0.14962   0.15331

 Mulliken charges:
               1
     1  N   -0.313740
     2  C    0.183982
     3  C    0.051953
     4  N   -0.261572
     5  C    0.140551
     6  H    0.026396
     7  N   -0.293697
     8  C    0.130512
     9  H    0.013806
    10  N   -0.278925
    11  C    0.263632
    12  C    0.100297
    13  N   -0.067814
    14  H    0.109900
    15  H    0.079841
    16  H    0.021203
    17  H    0.032063
    18  H    0.030258
    19  N   -0.308602
    20  C    0.244635
    21  C    0.180613
    22  N   -0.102788
    23  H    0.111130
    24  H    0.113145
    25  N   -0.309138
    26  C    0.229438
    27  N   -0.136319
    28  H    0.112992
    29  C    0.187263
    30  O   -0.323234
    31  C   -0.015343
    32  N   -0.225584
    33  C    0.128303
    34  H    0.020666
    35  H    0.027979
    36  H    0.028523
    37  H    0.024009
    38  H    0.055957
    39  H    0.059861
    40  H    0.074979
    41  H    0.029354
    42  C   -0.116003
    43  O   -0.260053
    44  C    0.176117
    45  H    0.133824
    46  N   -0.128667
    47  O   -0.343274
    48  C    0.349469
    49  H    0.042941
    50  C    0.162744
    51  C    0.038920
    52  N   -0.281910
    53  H    0.035660
    54  H    0.036288
    55  H    0.031475
    56  H    0.118805
    57  H    0.119016
    58  N   -0.060315
    59  C    0.079431
    60  C    0.256805
    61  N   -0.282412
    62  H    0.036268
    63  C    0.180782
    64  N   -0.309598
    65  H    0.040051
    66  C    0.139705
    67  N   -0.260825
    68  C    0.021828
    69  C    0.180706
    70  N   -0.314263
 Sum of Mulliken charges =  -0.00000

 Dipole moment (field-independent basis, Debye):
    X=             -9.0480    Y=              5.5929    Z=             -1.8339  Tot=             10.7940
 Quadrupole moment (field-independent basis, Debye-Ang):
   XX=           -166.8848   YY=           -212.4537   ZZ=           -253.4842
   XY=              6.5941   XZ=            -12.8529   YZ=              7.6526

 Normal termination of Gaussian 16 at Fri Jan 26 00:30:31 2018.
