 Gaussian 16, Revision A.03,
 Gaussian 16:  EM64L-G16RevA.03 25-Dec-2016

 ---------------------------------------
 #p wb97xd/cc-pvdz sp scf=(maxcycles=20)
 ---------------------------------------

 ------------------
 Base pair stacking
 ------------------
 Symbolic Z-matrix:
 Charge =  0 Multiplicity = 1

                         Standard orientation:
 ---------------------------------------------------------------------
 Center     Atomic      Atomic             Coordinates (Angstroms)
 Number     Number       Type             X           Y           Z
 ---------------------------------------------------------------------
      1          7           0       -6.122104   -1.692165    0.828500
      2          6           0       -7.515979   -1.234502    0.668304
      3          6           0       -3.938513   -1.744468    1.086373
      4          7           0       -4.353650   -3.066757    1.023470
      5          6           0       -5.652572   -2.982317    0.870617
      6          1           0       -6.323334   -3.837436    0.782326
      7          7           0       -2.603172    0.191524    1.264589
      8          6           0       -3.735254    0.891474    1.137899
      9          1           0       -3.617927    1.974004    1.163059
     10          7           0       -4.984620    0.457015    0.985503
     11          6           0       -5.017413   -0.885755    0.967636
     12          6           0       -2.669613   -1.157622    1.242670
     13          7           0       -1.540630   -1.858074    1.368979
     14          1           0       -1.542573   -2.858623    1.358329
     15          1           0       -0.654894   -1.406842    1.478506
     16          1           0       -8.072646   -1.587381    1.420483
     17          1           0       -7.542433   -0.235319    0.675576
     18          1           0       -7.881301   -1.569608   -0.200170
     19          7           0       -2.917501    2.981941   -1.568035
     20          6           0       -1.632945    2.521105   -1.408074
     21          6           0       -3.358546    4.374088   -1.348704
     22          7           0        1.693419    3.105866   -0.598668
     23          1           0        2.542090    2.580719   -0.542035
     24          1           0        1.745849    4.078725   -0.371725
     25          7           0       -0.566413    3.256724   -1.026727
     26          6           0        0.536526    2.532148   -0.962489
     27          7           0        0.592829    1.189744   -1.249350
     28          1           0        1.479965    0.716278   -1.173378
     29          6           0       -0.491947    0.412771   -1.643616
     30          8           0       -0.333673   -0.791520   -1.878960
     31          6           0       -1.683952    1.177352   -1.717159
     32          7           0       -2.974567    0.802128   -2.064182
     33          6           0       -3.669840    1.902271   -1.961682
     34          1           0       -4.738781    1.982245   -2.162245
     35          1           0       -4.057038    4.395564   -0.634247
     36          1           0       -2.576929    4.928458   -1.065834
     37          1           0       -3.737904    4.742812   -2.196607
     38          1           0        6.043360   -1.186201    0.013530
     39          1           0        6.310063   -1.077749   -1.724790
     40          1           0        5.262680    0.090998   -0.919560
     41          1           0        3.628741   -5.065590   -1.491958
     42          6           0        3.504211   -3.983751   -1.443571
     43          8           0        1.161118   -4.052396   -1.807331
     44          6           0        2.198840   -3.421124   -1.608740
     45          1           0        1.247145   -1.609629   -1.641730
     46          7           0        2.152506   -2.043852   -1.529922
     47          8           0        3.065923    0.017862   -1.261149
     48          6           0        3.206323   -1.191298   -1.315053
     49          1           0        5.564589   -3.555785   -1.100767
     50          6           0        4.551549   -3.178022   -1.232615
     51          6           0        5.588177   -0.938553   -0.933858
     52          7           0        4.432300   -1.809204   -1.165517
     53          1           0        4.071577    4.326329    2.281162
     54          1           0        2.922540    4.123197    1.140750
     55          1           0        4.500770    4.059278    0.729422
     56          1           0        1.950527   -2.781181    2.057399
     57          1           0        3.548748   -2.305274    2.416987
     58          7           0        2.628664   -2.048721    2.118926
     59          6           0        2.320757   -0.785674    1.817126
     60          6           0        2.769238    1.534936    1.542654
     61          7           0        1.525480    1.850304    1.145132
     62          1           0       -0.275142    0.932114    0.805575
     63          6           0        0.754602    0.764977    1.118577
     64          7           0        1.061130   -0.500907    1.420470
     65          1           0        5.870272    2.024337    2.314839
     66          6           0        4.884905    1.602255    2.115225
     67          7           0        4.576155    0.335417    2.247418
     68          6           0        3.237498    0.279011    1.887497
     69          6           0        3.832924    3.839773    1.440741
     70          7           0        3.838917    2.385523    1.691996
 ---------------------------------------------------------------------

 SCF Done:  E(RwB97XD) =  -2048.67314287     A.U. after   15 cycles

 The electronic state is 1-A.
 Alpha  occ. eigenvalues --  -19.25858 -19.21861 -19.20668 -14.52554 -14.52360
 Alpha  occ. eigenvalues --  -14.48760 -14.48602 -14.47994 -14.47781 -14.46787
 Alpha  occ. eigenvalues --  -14.45759 -14.45352 -14.43713 -14.42648 -14.42330
 Alpha  occ. eigenvalues --  -14.42106 -14.41297 -14.40749 -14.40709 -14.40065
 Alpha  occ. eigenvalues --  -10.45436 -10.40715 -10.39994 -10.39441 -10.38164
 Alpha  occ. eigenvalues --  -10.37829 -10.37755 -10.36776 -10.35368 -10.35092
 Alpha  occ. eigenvalues --  -10.34908 -10.34585 -10.34308 -10.33965 -10.33222
 Alpha  occ. eigenvalues --  -10.33207 -10.32965 -10.32170 -10.31090 -10.30935
 Alpha  occ. eigenvalues --  -10.30811 -10.28402 -10.28076  -1.19422  -1.15188
 Alpha  occ. eigenvalues --   -1.13386  -1.12903  -1.11190  -1.10614  -1.09305
 Alpha  occ. eigenvalues --   -1.09182  -1.08448  -1.04891  -1.04540  -1.02392
 Alpha  occ. eigenvalues --   -1.01088  -1.00387  -0.99880  -0.98622  -0.96877
 Alpha  occ. eigenvalues --   -0.96620  -0.96292  -0.92560  -0.90984  -0.87573
 Alpha  occ. eigenvalues --   -0.86186  -0.84096  -0.83798  -0.83441  -0.82522
 Alpha  occ. eigenvalues --   -0.82194  -0.78818  -0.76898  -0.74991  -0.74640
 Alpha  occ. eigenvalues --   -0.73557  -0.73260  -0.72829  -0.70959  -0.70403
 Alpha  occ. eigenvalues --   -0.67476  -0.66745  -0.66465  -0.66244  -0.64424
 Alpha  occ. eigenvalues --   -0.64334  -0.63724  -0.62979  -0.62663  -0.61927
 Alpha  occ. eigenvalues --   -0.60678  -0.60383  -0.60261  -0.59545  -0.59447
 Alpha  occ. eigenvalues --   -0.59366  -0.58418  -0.57165  -0.56402  -0.56205
 Alpha  occ. eigenvalues --   -0.56051  -0.55880  -0.55377  -0.55075  -0.54306
 Alpha  occ. eigenvalues --   -0.54118  -0.53595  -0.53105  -0.52985  -0.52894
 Alpha  occ. eigenvalues --   -0.52424  -0.52196  -0.51641  -0.50656  -0.50142
 Alpha  occ. eigenvalues --   -0.50102  -0.49465  -0.49324  -0.48991  -0.48780
 Alpha  occ. eigenvalues --   -0.48720  -0.48240  -0.48085  -0.47944  -0.47348
 Alpha  occ. eigenvalues --   -0.46781  -0.46202  -0.44922  -0.43862  -0.43738
 Alpha  occ. eigenvalues --   -0.41138  -0.40946  -0.39453  -0.38026  -0.37729
 Alpha  occ. eigenvalues --   -0.37262  -0.37072  -0.36661  -0.35879  -0.34945
 Alpha  occ. eigenvalues --   -0.34245  -0.33542  -0.33369  -0.33060  -0.32618
 Alpha  occ. eigenvalues --   -0.32409  -0.31886  -0.31812  -0.30700  -0.30436
 Alpha  occ. eigenvalues --   -0.29965  -0.28990  -0.25839  -0.24680
 Alpha virt. eigenvalues --    0.03138   0.04394   0.07333   0.08105   0.08359
 Alpha virt. eigenvalues --    0.09320   0.09480   0.10927   0.11316   0.11858
 Alpha virt. eigenvalues --    0.12348   0.13924   0.14427   0.14496   0.14917

 Mulliken charges:
               1
     1  N   -0.313070
     2  C    0.181649
     3  C    0.038845
     4  N   -0.261113
     5  C    0.135117
     6  H    0.026163
     7  N   -0.289715
     8  C    0.148153
     9  H    0.005196
    10  N   -0.291849
    11  C    0.252997
    12  C    0.121301
    13  N   -0.060593
    14  H    0.107636
    15  H    0.084376
    16  H    0.024269
    17  H    0.032595
    18  H    0.027326
    19  N   -0.307693
    20  C    0.238938
    21  C    0.181028
    22  N   -0.061999
    23  H    0.109890
    24  H    0.111081
    25  N   -0.293013
    26  C    0.202992
    27  N   -0.128558
    28  H    0.123290
    29  C    0.155960
    30  O   -0.317875
    31  C    0.018406
    32  N   -0.221820
    33  C    0.123383
    34  H    0.025369
    35  H    0.028470
    36  H    0.027789
    37  H    0.024797
    38  H    0.061730
    39  H    0.057683
    40  H    0.073881
    41  H    0.031334
    42  C   -0.111845
    43  O   -0.262197
    44  C    0.174375
    45  H    0.132782
    46  N   -0.128956
    47  O   -0.345745
    48  C    0.350353
    49  H    0.047062
    50  C    0.166010
    51  C    0.042148
    52  N   -0.291051
    53  H    0.040479
    54  H    0.022089
    55  H    0.033255
    56  H    0.120541
    57  H    0.115282
    58  N   -0.068230
    59  C    0.080288
    60  C    0.239227
    61  N   -0.301447
    62  H    0.034387
    63  C    0.176759
    64  N   -0.301057
    65  H    0.035022
    66  C    0.133796
    67  N   -0.264889
    68  C    0.046076
    69  C    0.169455
    70  N   -0.318317
 Sum of Mulliken charges =  -0.00000

 Dipole moment (field-independent basis, Debye):
    X=              8.4581    Y=              5.3215    Z=              2.9035  Tot=             10.4062
 Quadrupole moment (field-independent basis, Debye-Ang):
   XX=           -158.0335   YY=           -214.4414   ZZ=           -255.5537
   XY=             -3.6092   XZ=              2.0408   YZ=            -10.5854

 Normal termination of Gaussian 16 at Fri Jan 26 03:46:33 2018.
