 Gaussian 16, Revision A.03,
 Gaussian 16:  EM64L-G16RevA.03 25-Dec-2016

 ---------------------------------------
 #p wb97xd/cc-pvdz sp scf=(maxcycles=20)
 ---------------------------------------

 ------------------
 Base pair stacking
 ------------------
 Symbolic Z-matrix:
 Charge =  0 Multiplicity = 1

                         Standard orientation:
 ---------------------------------------------------------------------
 Center     Atomic      Atomic             Coordinates (Angstroms)
 Number     Number       Type             X           Y           Z
 ---------------------------------------------------------------------
      1          7           0        4.605143   -1.982403   -1.696809
      2          6           0        6.023511   -1.578240   -1.750681
      3          6           0        2.407801   -1.951330   -1.607155
      4          7           0        2.776216   -3.288577   -1.634739
      5          6           0        4.085287   -3.253776   -1.687651
      6          1           0        4.728012   -4.133927   -1.722082
      7          7           0        1.136939    0.034336   -1.536751
      8          6           0        2.301066    0.690621   -1.577905
      9          1           0        2.223197    1.776907   -1.564494
     10          7           0        3.541102    0.208770   -1.632877
     11          6           0        3.524342   -1.134362   -1.644856
     12          6           0        1.153770   -1.316442   -1.550172
     13          7           0       -0.007259   -1.973336   -1.509139
     14          1           0       -0.042351   -2.973303   -1.517138
     15          1           0       -0.881078   -1.488609   -1.469036
     16          1           0        6.440860   -1.932351   -2.587694
     17          1           0        6.087108   -0.580726   -1.743863
     18          1           0        6.507664   -1.946853   -0.957131
     19          7           0        4.501780    2.919762    0.823096
     20          6           0        3.193140    2.505912    0.888145
     21          6           0        4.950293    4.278519    0.457959
     22          7           0       -0.196739    3.187470    0.562630
     23          1           0       -1.061186    2.696448    0.666922
     24          1           0       -0.250800    4.148377    0.289787
     25          7           0        2.105888    3.264897    0.631500
     26          6           0        0.982478    2.585262    0.778732
     27          7           0        0.925985    1.263410    1.148907
     28          1           0        0.022310    0.824565    1.236946
     29          6           0        2.031857    0.463074    1.417934
     30          8           0        1.871356   -0.719374    1.744737
     31          6           0        3.245992    1.179347    1.263957
     32          7           0        4.561345    0.768636    1.431468
     33          6           0        5.269096    1.831441    1.159915
     34          1           0        6.358284    1.876568    1.190095
     35          1           0        5.530232    4.232769   -0.354679
     36          1           0        4.153485    4.849799    0.265635
     37          1           0        5.468410    4.674995    1.215048
     38          1           0       -4.731241   -0.942958    0.873242
     39          1           0       -4.722137   -0.731930    2.622532
     40          1           0       -3.773055    0.347426    1.599994
     41          1           0       -2.245064   -4.836388    2.217374
     42          6           0       -2.093116   -3.764831    2.087323
     43          8           0        0.274379   -3.913319    2.092899
     44          6           0       -0.759678   -3.250040    2.018274
     45          1           0        0.246200   -1.481216    1.799656
     46          7           0       -0.679680   -1.882016    1.852825
     47          8           0       -1.553633    0.199476    1.606283
     48          6           0       -1.724694   -0.998131    1.751638
     49          1           0       -4.166104   -3.268717    2.038263
     50          6           0       -3.132702   -2.927733    1.991742
     51          6           0       -4.126957   -0.665249    1.723994
     52          7           0       -2.979188   -1.570625    1.827233
     53          1           0       -5.449660    4.425574   -1.409906
     54          1           0       -4.144262    4.154595   -0.469363
     55          1           0       -5.639421    4.136566    0.185056
     56          1           0       -3.596300   -2.755733   -1.653675
     57          1           0       -5.211569   -2.215166   -1.747351
     58          7           0       -4.246828   -1.998513   -1.593867
     59          6           0       -3.846669   -0.754769   -1.321609
     60          6           0       -4.156315    1.572964   -0.937494
     61          7           0       -2.854245    1.834546   -0.735916
     62          1           0       -1.059507    0.845428   -0.702077
     63          6           0       -2.131340    0.722350   -0.851329
     64          7           0       -2.530272   -0.524287   -1.123961
     65          1           0       -7.318929    2.190027   -1.200690
     66          6           0       -6.331493    1.728726   -1.167083
     67          7           0       -6.096610    0.455323   -1.369458
     68          6           0       -4.721193    0.343024   -1.226773
     69          6           0       -5.100775    3.910797   -0.626781
     70          7           0       -5.202452    2.464144   -0.900351
 ---------------------------------------------------------------------

 SCF Done:  E(RwB97XD) =  -2048.74078043     A.U. after   15 cycles

 The electronic state is 1-A.
 Alpha  occ. eigenvalues --  -19.25133 -19.21263 -19.20347 -14.52822 -14.51852
 Alpha  occ. eigenvalues --  -14.49369 -14.48600 -14.48280 -14.47169 -14.46335
 Alpha  occ. eigenvalues --  -14.45841 -14.45734 -14.45184 -14.45094 -14.43121
 Alpha  occ. eigenvalues --  -14.41743 -14.41067 -14.40746 -14.40694 -14.40421
 Alpha  occ. eigenvalues --  -10.44779 -10.40796 -10.40763 -10.39401 -10.38276
 Alpha  occ. eigenvalues --  -10.37871 -10.37795 -10.37325 -10.36712 -10.35702
 Alpha  occ. eigenvalues --  -10.34387 -10.34210 -10.34007 -10.33761 -10.33208
 Alpha  occ. eigenvalues --  -10.33152 -10.33093 -10.32845 -10.30850 -10.30656
 Alpha  occ. eigenvalues --  -10.30224 -10.28406 -10.27786  -1.18870  -1.15610
 Alpha  occ. eigenvalues --   -1.12863  -1.12306  -1.10954  -1.10336  -1.10156
 Alpha  occ. eigenvalues --   -1.08741  -1.08150  -1.05718  -1.05197  -1.01799
 Alpha  occ. eigenvalues --   -1.01396  -1.00712  -0.99149  -0.98225  -0.97695
 Alpha  occ. eigenvalues --   -0.96681  -0.96367  -0.92866  -0.90547  -0.88202
 Alpha  occ. eigenvalues --   -0.86329  -0.83895  -0.83606  -0.83023  -0.82309
 Alpha  occ. eigenvalues --   -0.81927  -0.78322  -0.77687  -0.75598  -0.74335
 Alpha  occ. eigenvalues --   -0.73152  -0.72951  -0.72728  -0.71135  -0.70973
 Alpha  occ. eigenvalues --   -0.67612  -0.66895  -0.66344  -0.65966  -0.64918
 Alpha  occ. eigenvalues --   -0.64083  -0.63413  -0.62812  -0.62416  -0.61305
 Alpha  occ. eigenvalues --   -0.61117  -0.60848  -0.60413  -0.59960  -0.59264
 Alpha  occ. eigenvalues --   -0.58985  -0.57771  -0.56940  -0.56342  -0.55905
 Alpha  occ. eigenvalues --   -0.55713  -0.55691  -0.55627  -0.55011  -0.54165
 Alpha  occ. eigenvalues --   -0.53807  -0.53618  -0.53263  -0.53226  -0.52672
 Alpha  occ. eigenvalues --   -0.52480  -0.51867  -0.51421  -0.50564  -0.50414
 Alpha  occ. eigenvalues --   -0.49920  -0.49795  -0.49700  -0.48917  -0.48878
 Alpha  occ. eigenvalues --   -0.48480  -0.47906  -0.47817  -0.47473  -0.46960
 Alpha  occ. eigenvalues --   -0.46767  -0.45701  -0.45195  -0.44237  -0.43382
 Alpha  occ. eigenvalues --   -0.41431  -0.41149  -0.38955  -0.38291  -0.38233
 Alpha  occ. eigenvalues --   -0.37553  -0.37030  -0.36392  -0.35588  -0.35286
 Alpha  occ. eigenvalues --   -0.34974  -0.34064  -0.33395  -0.33073  -0.32647
 Alpha  occ. eigenvalues --   -0.32308  -0.32276  -0.31634  -0.31347  -0.30682
 Alpha  occ. eigenvalues --   -0.30561  -0.30141  -0.26301  -0.24712
 Alpha virt. eigenvalues --    0.03253   0.03782   0.06318   0.07872   0.09118
 Alpha virt. eigenvalues --    0.09488   0.09920   0.10303   0.10995   0.11487
 Alpha virt. eigenvalues --    0.13321   0.14243   0.14575   0.14910   0.15374

 Mulliken charges:
               1
     1  N   -0.313951
     2  C    0.185347
     3  C    0.058674
     4  N   -0.264106
     5  C    0.142332
     6  H    0.027278
     7  N   -0.283945
     8  C    0.113784
     9  H    0.021596
    10  N   -0.268137
    11  C    0.263089
    12  C    0.085538
    13  N   -0.070556
    14  H    0.107761
    15  H    0.080957
    16  H    0.019952
    17  H    0.032454
    18  H    0.032313
    19  N   -0.307812
    20  C    0.236167
    21  C    0.180952
    22  N   -0.104561
    23  H    0.111277
    24  H    0.113641
    25  N   -0.301935
    26  C    0.214280
    27  N   -0.112617
    28  H    0.112066
    29  C    0.162859
    30  O   -0.320204
    31  C    0.007346
    32  N   -0.228064
    33  C    0.123758
    34  H    0.020486
    35  H    0.027134
    36  H    0.028557
    37  H    0.023987
    38  H    0.059837
    39  H    0.057417
    40  H    0.076354
    41  H    0.029109
    42  C   -0.114485
    43  O   -0.260092
    44  C    0.178493
    45  H    0.135679
    46  N   -0.129633
    47  O   -0.343948
    48  C    0.354995
    49  H    0.042945
    50  C    0.163174
    51  C    0.038323
    52  N   -0.281912
    53  H    0.035165
    54  H    0.036200
    55  H    0.032587
    56  H    0.118719
    57  H    0.121324
    58  N   -0.059503
    59  C    0.059168
    60  C    0.249643
    61  N   -0.286339
    62  H    0.009712
    63  C    0.210629
    64  N   -0.306938
    65  H    0.040276
    66  C    0.140422
    67  N   -0.257280
    68  C    0.024633
    69  C    0.181496
    70  N   -0.313873
 Sum of Mulliken charges =  -0.00000

 Dipole moment (field-independent basis, Debye):
    X=             -8.9750    Y=              5.5023    Z=             -2.1843  Tot=             10.7517
 Quadrupole moment (field-independent basis, Debye-Ang):
   XX=           -169.7583   YY=           -213.4917   ZZ=           -253.5737
   XY=              8.1705   XZ=            -16.7715   YZ=              9.7967

 Normal termination of Gaussian 16 at Fri Jan 26 11:19:19 2018.
