 Gaussian 16, Revision A.03,
 Gaussian 16:  EM64L-G16RevA.03 25-Dec-2016

 ---------------------------------------
 #p wb97xd/cc-pvdz sp scf=(maxcycles=20)
 ---------------------------------------

 ------------------
 Base pair stacking
 ------------------
 Symbolic Z-matrix:
 Charge =  0 Multiplicity = 1

                         Standard orientation:
 ---------------------------------------------------------------------
 Center     Atomic      Atomic             Coordinates (Angstroms)
 Number     Number       Type             X           Y           Z
 ---------------------------------------------------------------------
      1          7           0       -6.759798   -1.616048    0.300289
      2          6           0       -8.166920   -1.171103    0.305622
      3          6           0       -4.574256   -1.694323    0.533973
      4          7           0       -4.952063   -2.919696    0.004395
      5          6           0       -6.253646   -2.823498   -0.115193
      6          1           0       -6.900356   -3.610493   -0.504233
      7          7           0       -3.293432    0.089933    1.393541
      8          6           0       -4.445551    0.756900    1.517406
      9          1           0       -4.358844    1.763101    1.925203
     10          7           0       -5.682904    0.369352    1.214587
     11          6           0       -5.677699   -0.880280    0.721805
     12          6           0       -3.321698   -1.165169    0.894543
     13          7           0       -2.172657   -1.832552    0.770133
     14          1           0       -2.146278   -2.764007    0.405544
     15          1           0       -1.299496   -1.424466    1.036972
     16          1           0       -8.709344   -1.783320    0.881067
     17          1           0       -8.221667   -0.240538    0.666426
     18          1           0       -8.527213   -1.186890   -0.627080
     19          7           0       -2.071917    3.193080   -1.890521
     20          6           0       -0.806418    2.689191   -1.709729
     21          6           0       -2.427811    4.626264   -1.893069
     22          7           0        2.583815    3.200310   -1.155827
     23          1           0        3.405839    2.642020   -1.047024
     24          1           0        2.698630    4.192524   -1.100612
     25          7           0        0.315506    3.412866   -1.505695
     26          6           0        1.381119    2.644320   -1.366332
     27          7           0        1.352363    1.271887   -1.422181
     28          1           0        2.216451    0.765392   -1.304817
     29          6           0        0.209412    0.506452   -1.631098
     30          8           0        0.292253   -0.727554   -1.664171
     31          6           0       -0.943431    1.318166   -1.782610
     32          7           0       -2.268280    0.968355   -2.004671
     33          6           0       -2.899043    2.109897   -2.061492
     34          1           0       -3.971453    2.219241   -2.226575
     35          1           0       -3.085686    4.809346   -1.163349
     36          1           0       -1.604627    5.172207   -1.742804
     37          1           0       -2.831560    4.869588   -2.774325
     38          1           0        6.730842   -1.181926   -0.008307
     39          1           0        6.911005   -1.383040   -1.749501
     40          1           0        5.969633   -0.034841   -1.111098
     41          1           0        4.041899   -5.106565   -0.724746
     42          6           0        3.976511   -4.026446   -0.856268
     43          8           0        1.617137   -4.014081   -1.101824
     44          6           0        2.695287   -3.422029   -1.058653
     45          1           0        1.838673   -1.587844   -1.359141
     46          7           0        2.724846   -2.050810   -1.213976
     47          8           0        3.757117   -0.031986   -1.340353
     48          6           0        3.831415   -1.239257   -1.193217
     49          1           0        6.071533   -3.671771   -0.680466
     50          6           0        5.073977   -3.261234   -0.831104
     51          6           0        6.239947   -1.069884   -0.963580
     52          7           0        5.029779   -1.895922   -0.993376
     53          1           0        3.266703    3.783848    3.843446
     54          1           0        2.117831    3.965534    2.699244
     55          1           0        3.695028    4.096391    2.299988
     56          1           0        1.346889   -2.840171    1.104415
     57          1           0        2.932873   -2.477418    1.617423
     58          7           0        2.004305   -2.158120    1.424970
     59          6           0        1.659107   -0.879392    1.588860
     60          6           0        2.040132    1.399600    2.156955
     61          7           0        0.785839    1.799927    1.890695
     62          1           0       -0.989806    1.010935    1.238632
     63          6           0        0.045907    0.773039    1.477290
     64          7           0        0.389818   -0.508427    1.312495
     65          1           0        5.130111    1.671428    3.068191
     66          6           0        4.156061    1.319683    2.726947
     67          7           0        3.884059    0.080006    2.399997
     68          6           0        2.545646    0.116827    2.036655
     69          6           0        3.037467    3.620164    2.883936
     70          7           0        3.086041    2.172054    2.603490
 ---------------------------------------------------------------------

 SCF Done:  E(RwB97XD) =  -2048.73944085     A.U. after   15 cycles

 The electronic state is 1-A.
 Alpha  occ. eigenvalues --  -19.26298 -19.23016 -19.20930 -14.53052 -14.51306
 Alpha  occ. eigenvalues --  -14.49008 -14.48476 -14.48339 -14.47364 -14.47327
 Alpha  occ. eigenvalues --  -14.46510 -14.44376 -14.42893 -14.42778 -14.42405
 Alpha  occ. eigenvalues --  -14.41665 -14.41135 -14.41015 -14.40511 -14.39735
 Alpha  occ. eigenvalues --  -10.45962 -10.41677 -10.40984 -10.38565 -10.38554
 Alpha  occ. eigenvalues --  -10.38456 -10.36927 -10.35885 -10.35581 -10.34981
 Alpha  occ. eigenvalues --  -10.34647 -10.34292 -10.33796 -10.33457 -10.33026
 Alpha  occ. eigenvalues --  -10.32998 -10.32700 -10.31804 -10.31415 -10.31094
 Alpha  occ. eigenvalues --  -10.30720 -10.28413 -10.28180  -1.19927  -1.14019
 Alpha  occ. eigenvalues --   -1.13983  -1.13558  -1.11043  -1.10854  -1.09928
 Alpha  occ. eigenvalues --   -1.08985  -1.07843  -1.04570  -1.03567  -1.03015
 Alpha  occ. eigenvalues --   -1.00290  -0.99998  -0.99795  -0.98868  -0.96828
 Alpha  occ. eigenvalues --   -0.96639  -0.95398  -0.92205  -0.91742  -0.86409
 Alpha  occ. eigenvalues --   -0.84817  -0.84398  -0.84117  -0.83628  -0.82753
 Alpha  occ. eigenvalues --   -0.82007  -0.79535  -0.75783  -0.74945  -0.74119
 Alpha  occ. eigenvalues --   -0.73939  -0.73452  -0.72530  -0.70684  -0.69176
 Alpha  occ. eigenvalues --   -0.67808  -0.67152  -0.65927  -0.65513  -0.64981
 Alpha  occ. eigenvalues --   -0.64152  -0.63045  -0.63007  -0.62297  -0.62169
 Alpha  occ. eigenvalues --   -0.60147  -0.60101  -0.59856  -0.59280  -0.58913
 Alpha  occ. eigenvalues --   -0.58716  -0.58345  -0.56862  -0.56408  -0.56168
 Alpha  occ. eigenvalues --   -0.56126  -0.54987  -0.54972  -0.54686  -0.54139
 Alpha  occ. eigenvalues --   -0.54042  -0.53824  -0.53302  -0.52904  -0.52669
 Alpha  occ. eigenvalues --   -0.52431  -0.51644  -0.51448  -0.50578  -0.50394
 Alpha  occ. eigenvalues --   -0.50000  -0.49848  -0.49412  -0.49132  -0.48945
 Alpha  occ. eigenvalues --   -0.48591  -0.48352  -0.48020  -0.47908  -0.47792
 Alpha  occ. eigenvalues --   -0.46606  -0.45657  -0.44755  -0.44709  -0.43337
 Alpha  occ. eigenvalues --   -0.40761  -0.39883  -0.39486  -0.37664  -0.37577
 Alpha  occ. eigenvalues --   -0.37324  -0.36819  -0.36283  -0.35505  -0.34705
 Alpha  occ. eigenvalues --   -0.34109  -0.33475  -0.33167  -0.33109  -0.32926
 Alpha  occ. eigenvalues --   -0.32830  -0.32759  -0.32556  -0.32076  -0.30571
 Alpha  occ. eigenvalues --   -0.29982  -0.28645  -0.25800  -0.25352
 Alpha virt. eigenvalues --    0.02222   0.05190   0.07500   0.08346   0.08421
 Alpha virt. eigenvalues --    0.09262   0.09373   0.11362   0.11593   0.12030
 Alpha virt. eigenvalues --    0.12612   0.14160   0.14694   0.14773   0.15398

 Mulliken charges:
               1
     1  N   -0.310895
     2  C    0.181122
     3  C    0.032131
     4  N   -0.258068
     5  C    0.132280
     6  H    0.025210
     7  N   -0.294558
     8  C    0.134465
     9  H    0.008826
    10  N   -0.291771
    11  C    0.241418
    12  C    0.125737
    13  N   -0.052980
    14  H    0.111557
    15  H    0.092343
    16  H    0.024774
    17  H    0.034264
    18  H    0.025033
    19  N   -0.312296
    20  C    0.249276
    21  C    0.181508
    22  N   -0.124623
    23  H    0.115627
    24  H    0.117074
    25  N   -0.305180
    26  C    0.240618
    27  N   -0.134510
    28  H    0.114514
    29  C    0.168203
    30  O   -0.319967
    31  C   -0.000607
    32  N   -0.221905
    33  C    0.130834
    34  H    0.030515
    35  H    0.029718
    36  H    0.028267
    37  H    0.025331
    38  H    0.064969
    39  H    0.059851
    40  H    0.075778
    41  H    0.033404
    42  C   -0.103873
    43  O   -0.269539
    44  C    0.134970
    45  H    0.134656
    46  N   -0.113843
    47  O   -0.347590
    48  C    0.353751
    49  H    0.051747
    50  C    0.170172
    51  C    0.043457
    52  N   -0.291455
    53  H    0.031023
    54  H    0.044608
    55  H    0.018571
    56  H    0.129153
    57  H    0.109367
    58  N   -0.061615
    59  C    0.092703
    60  C    0.241732
    61  N   -0.264754
    62  H    0.046371
    63  C    0.157974
    64  N   -0.297984
    65  H    0.029792
    66  C    0.131181
    67  N   -0.270264
    68  C    0.023200
    69  C    0.181195
    70  N   -0.311991
 Sum of Mulliken charges =  -0.00000

 Dipole moment (field-independent basis, Debye):
    X=              9.4765    Y=              5.1697    Z=              0.9168  Tot=             10.8338
 Quadrupole moment (field-independent basis, Debye-Ang):
   XX=           -152.9955   YY=           -212.8752   ZZ=           -248.5874
   XY=             -3.2568   XZ=              9.3736   YZ=             -4.1856

 Normal termination of Gaussian 16 at Fri Jan 26 10:43:53 2018.
