 Gaussian 16, Revision A.03,
 Gaussian 16:  EM64L-G16RevA.03 25-Dec-2016

 ---------------------------------------
 #p wb97xd/cc-pvdz sp scf=(maxcycles=20)
 ---------------------------------------

 ------------------
 Base pair stacking
 ------------------
 Symbolic Z-matrix:
 Charge =  0 Multiplicity = 1

                         Standard orientation:
 ---------------------------------------------------------------------
 Center     Atomic      Atomic             Coordinates (Angstroms)
 Number     Number       Type             X           Y           Z
 ---------------------------------------------------------------------
      1          7           0       -6.176826   -1.713712    0.786698
      2          6           0       -7.578063   -1.252933    0.739455
      3          6           0       -3.986756   -1.781197    0.977370
      4          7           0       -4.392995   -3.079936    0.707263
      5          6           0       -5.696169   -2.987302    0.603199
      6          1           0       -6.362305   -3.824244    0.391697
      7          7           0       -2.662419    0.115009    1.439438
      8          6           0       -3.802974    0.812399    1.458694
      9          1           0       -3.693559    1.877284    1.659452
     10          7           0       -5.052517    0.393821    1.268068
     11          6           0       -5.075189   -0.927891    1.029365
     12          6           0       -2.718789   -1.212734    1.196537
     13          7           0       -1.581343   -1.910593    1.176906
     14          1           0       -1.575685   -2.895616    1.001098
     15          1           0       -0.696563   -1.472839    1.337187
     16          1           0       -8.111549   -1.731856    1.436731
     17          1           0       -7.612187   -0.269042    0.912431
     18          1           0       -7.963896   -1.444585   -0.162987
     19          7           0       -2.822960    3.097715   -1.657415
     20          6           0       -1.539584    2.625223   -1.524151
     21          6           0       -3.232895    4.508639   -1.509354
     22          7           0        1.827945    3.201120   -0.899776
     23          1           0        2.670345    2.665630   -0.846399
     24          1           0        1.904999    4.185395   -0.738575
     25          7           0       -0.446218    3.364564   -1.237862
     26          6           0        0.647526    2.626042   -1.175095
     27          7           0        0.670873    1.267287   -1.376942
     28          1           0        1.553334    0.783915   -1.309280
     29          6           0       -0.441920    0.486182   -1.672639
     30          8           0       -0.312339   -0.733297   -1.836467
     31          6           0       -1.624442    1.265614   -1.743377
     32          7           0       -2.934713    0.892055   -2.008936
     33          6           0       -3.608182    2.008684   -1.947441
     34          1           0       -4.683691    2.094726   -2.106010
     35          1           0       -3.898420    4.588081   -0.768026
     36          1           0       -2.431228    5.065920   -1.297150
     37          1           0       -3.644133    4.829222   -2.361957
     38          1           0        6.136139   -1.119891   -0.201977
     39          1           0        6.326624   -1.127322   -1.953638
     40          1           0        5.333817    0.108872   -1.180636
     41          1           0        3.598965   -5.043825   -1.347465
     42          6           0        3.492926   -3.959053   -1.363593
     43          8           0        1.135179   -4.009048   -1.619783
     44          6           0        2.190057   -3.384965   -1.507713
     45          1           0        1.265059   -1.562613   -1.616023
     46          7           0        2.167903   -2.004864   -1.515966
     47          8           0        3.123153    0.053202   -1.420803
     48          6           0        3.242901   -1.159231   -1.402650
     49          1           0        5.572718   -3.546845   -1.139166
     50          6           0        4.560574   -3.160285   -1.250871
     51          6           0        5.642904   -0.925125   -1.142642
     52          7           0        4.464948   -1.788067   -1.267085
     53          1           0        4.004383    4.106561    2.957151
     54          1           0        2.826808    4.080381    1.828123
     55          1           0        4.393891    4.104472    1.372322
     56          1           0        1.934199   -2.891956    1.615265
     57          1           0        3.537690   -2.462434    2.008235
     58          7           0        2.607952   -2.171469    1.779906
     59          6           0        2.282102   -0.879789    1.698845
     60          6           0        2.704761    1.459602    1.800474
     61          7           0        1.448335    1.821043    1.491953
     62          1           0       -0.353448    0.949552    1.050727
     63          6           0        0.685601    0.745646    1.305790
     64          7           0        1.010093   -0.548868    1.386523
     65          1           0        5.821438    1.852699    2.564664
     66          6           0        4.834430    1.457339    2.322896
     67          7           0        4.539325    0.182386    2.251621
     68          6           0        3.191976    0.169808    1.921122
     69          6           0        3.747119    3.762472    2.054154
     70          7           0        3.771312    2.286884    2.061377
 ---------------------------------------------------------------------

 SCF Done:  E(RwB97XD) =  -2048.73891070     A.U. after   15 cycles

 The electronic state is 1-A.
 Alpha  occ. eigenvalues --  -19.25971 -19.22168 -19.20669 -14.52533 -14.52183
 Alpha  occ. eigenvalues --  -14.48787 -14.48433 -14.47974 -14.47917 -14.46917
 Alpha  occ. eigenvalues --  -14.46607 -14.45180 -14.43779 -14.43536 -14.42089
 Alpha  occ. eigenvalues --  -14.42014 -14.41096 -14.40783 -14.40567 -14.39883
 Alpha  occ. eigenvalues --  -10.45574 -10.41164 -10.40262 -10.39501 -10.38236
 Alpha  occ. eigenvalues --  -10.37989 -10.37684 -10.36718 -10.35211 -10.35131
 Alpha  occ. eigenvalues --  -10.35060 -10.34360 -10.33927 -10.33772 -10.33251
 Alpha  occ. eigenvalues --  -10.33018 -10.32777 -10.32203 -10.31316 -10.30945
 Alpha  occ. eigenvalues --  -10.30687 -10.28196 -10.28116  -1.19532  -1.14855
 Alpha  occ. eigenvalues --   -1.13265  -1.13171  -1.11008  -1.10605  -1.09422
 Alpha  occ. eigenvalues --   -1.08898  -1.08553  -1.04677  -1.04425  -1.02570
 Alpha  occ. eigenvalues --   -1.00707  -1.00143  -0.99793  -0.98584  -0.96697
 Alpha  occ. eigenvalues --   -0.96591  -0.96334  -0.92340  -0.91199  -0.87283
 Alpha  occ. eigenvalues --   -0.85728  -0.84118  -0.83619  -0.83601  -0.82526
 Alpha  occ. eigenvalues --   -0.82018  -0.79005  -0.76681  -0.74658  -0.74421
 Alpha  occ. eigenvalues --   -0.73702  -0.73437  -0.72613  -0.70747  -0.70107
 Alpha  occ. eigenvalues --   -0.67414  -0.66625  -0.66490  -0.66023  -0.64521
 Alpha  occ. eigenvalues --   -0.63987  -0.63814  -0.62777  -0.62426  -0.61778
 Alpha  occ. eigenvalues --   -0.60309  -0.60124  -0.59976  -0.59605  -0.59407
 Alpha  occ. eigenvalues --   -0.59167  -0.58409  -0.56759  -0.56292  -0.56070
 Alpha  occ. eigenvalues --   -0.56055  -0.55302  -0.55090  -0.54755  -0.54432
 Alpha  occ. eigenvalues --   -0.53771  -0.53700  -0.53155  -0.53005  -0.52973
 Alpha  occ. eigenvalues --   -0.52426  -0.52380  -0.51486  -0.50416  -0.50207
 Alpha  occ. eigenvalues --   -0.49921  -0.49499  -0.49411  -0.48896  -0.48842
 Alpha  occ. eigenvalues --   -0.48551  -0.48371  -0.48267  -0.47914  -0.47420
 Alpha  occ. eigenvalues --   -0.46632  -0.45733  -0.44727  -0.44248  -0.44048
 Alpha  occ. eigenvalues --   -0.40826  -0.40378  -0.39519  -0.37675  -0.37391
 Alpha  occ. eigenvalues --   -0.37290  -0.36913  -0.36845  -0.35948  -0.34733
 Alpha  occ. eigenvalues --   -0.34083  -0.33404  -0.33298  -0.33213  -0.32898
 Alpha  occ. eigenvalues --   -0.32655  -0.32419  -0.32117  -0.31836  -0.30544
 Alpha  occ. eigenvalues --   -0.30102  -0.29492  -0.25756  -0.25133
 Alpha virt. eigenvalues --    0.02865   0.04435   0.07505   0.08318   0.08360
 Alpha virt. eigenvalues --    0.09180   0.09563   0.10930   0.11439   0.11686
 Alpha virt. eigenvalues --    0.12271   0.14050   0.14402   0.14669   0.15086

 Mulliken charges:
               1
     1  N   -0.312436
     2  C    0.181425
     3  C    0.039545
     4  N   -0.259680
     5  C    0.134511
     6  H    0.025545
     7  N   -0.294016
     8  C    0.141892
     9  H    0.006749
    10  N   -0.292447
    11  C    0.250553
    12  C    0.122702
    13  N   -0.057173
    14  H    0.110141
    15  H    0.085535
    16  H    0.024159
    17  H    0.032934
    18  H    0.026379
    19  N   -0.312526
    20  C    0.246817
    21  C    0.181115
    22  N   -0.099027
    23  H    0.114485
    24  H    0.113421
    25  N   -0.301802
    26  C    0.220985
    27  N   -0.131896
    28  H    0.116257
    29  C    0.164675
    30  O   -0.318450
    31  C    0.006638
    32  N   -0.224530
    33  C    0.129060
    34  H    0.026748
    35  H    0.028883
    36  H    0.028056
    37  H    0.024678
    38  H    0.063027
    39  H    0.058010
    40  H    0.073985
    41  H    0.031511
    42  C   -0.111251
    43  O   -0.263559
    44  C    0.162891
    45  H    0.133738
    46  N   -0.124690
    47  O   -0.345741
    48  C    0.347589
    49  H    0.048046
    50  C    0.163526
    51  C    0.041821
    52  N   -0.287928
    53  H    0.036368
    54  H    0.040003
    55  H    0.024500
    56  H    0.126186
    57  H    0.115188
    58  N   -0.066240
    59  C    0.079321
    60  C    0.224663
    61  N   -0.262829
    62  H    0.040615
    63  C    0.166430
    64  N   -0.302067
    65  H    0.034624
    66  C    0.135873
    67  N   -0.268881
    68  C    0.046909
    69  C    0.171495
    70  N   -0.313036
 Sum of Mulliken charges =  -0.00000

 Dipole moment (field-independent basis, Debye):
    X=              8.8933    Y=              5.3228    Z=              2.0532  Tot=             10.5659
 Quadrupole moment (field-independent basis, Debye-Ang):
   XX=           -158.0610   YY=           -213.0213   ZZ=           -253.1933
   XY=             -3.8919   XZ=              2.9269   YZ=             -7.5646

 Normal termination of Gaussian 16 at Thu Jan 25 19:16:22 2018.
