 Gaussian 16, Revision A.03,
 Gaussian 16:  EM64L-G16RevA.03 25-Dec-2016

 ---------------------------------------
 #p wb97xd/cc-pvdz sp scf=(maxcycles=20)
 ---------------------------------------

 ------------------
 Base pair stacking
 ------------------
 Symbolic Z-matrix:
 Charge =  0 Multiplicity = 1

                         Standard orientation:
 ---------------------------------------------------------------------
 Center     Atomic      Atomic             Coordinates (Angstroms)
 Number     Number       Type             X           Y           Z
 ---------------------------------------------------------------------
      1          7           0        5.236656   -1.883260   -1.409897
      2          6           0        6.647991   -1.451837   -1.407630
      3          6           0        3.037478   -1.894999   -1.438599
      4          7           0        3.431977   -3.223899   -1.382698
      5          6           0        4.741101   -3.163642   -1.367635
      6          1           0        5.401219   -4.030497   -1.325830
      7          7           0        1.727496    0.064186   -1.530681
      8          6           0        2.879569    0.742554   -1.541277
      9          1           0        2.780652    1.826370   -1.583921
     10          7           0        4.129631    0.285263   -1.507266
     11          6           0        4.138845   -1.057012   -1.455953
     12          6           0        1.770463   -1.285087   -1.478662
     13          7           0        0.621503   -1.964005   -1.467997
     14          1           0        0.605725   -2.963778   -1.430083
     15          1           0       -0.262191   -1.496715   -1.497531
     16          1           0        7.116559   -1.835635   -2.203454
     17          1           0        6.692334   -0.453967   -1.445096
     18          1           0        7.095413   -1.772574   -0.572804
     19          7           0        3.872755    2.997207    1.173021
     20          6           0        2.570084    2.560266    1.159766
     21          6           0        4.314660    4.373500    0.870970
     22          7           0       -0.810898    3.195856    0.683589
     23          1           0       -1.670587    2.687862    0.729660
     24          1           0       -0.868372    4.163549    0.436622
     25          7           0        1.483652    3.308774    0.870878
     26          6           0        0.366589    2.606753    0.941222
     27          7           0        0.315242    1.273596    1.269194
     28          1           0       -0.583739    0.817593    1.298601
     29          6           0        1.420376    0.483678    1.570163
     30          8           0        1.264843   -0.710542    1.853673
     31          6           0        2.627726    1.224009    1.498740
     32          7           0        3.940169    0.829978    1.720356
     33          6           0        4.641551    1.911904    1.516146
     34          1           0        5.726892    1.973887    1.602597
     35          1           0        4.935216    4.361749    0.087653
     36          1           0        3.518398    4.937222    0.655468
     37          1           0        4.787131    4.755381    1.664537
     38          1           0       -5.280900   -1.015569    0.643695
     39          1           0       -5.363011   -0.857264    2.396650
     40          1           0       -4.383394    0.267791    1.455387
     41          1           0       -2.796001   -4.906622    1.997047
     42          6           0       -2.656869   -3.829302    1.906263
     43          8           0       -0.290344   -3.939190    2.027048
     44          6           0       -1.331037   -3.290949    1.919755
     45          1           0       -0.347181   -1.500135    1.804112
     46          7           0       -1.267269   -1.917434    1.798701
     47          8           0       -2.164774    0.155993    1.569408
     48          6           0       -2.321511   -1.048088    1.670808
     49          1           0       -4.733321   -3.365862    1.767152
     50          6           0       -3.705134   -3.006795    1.782880
     51          6           0       -4.724936   -0.753806    1.531650
     52          7           0       -3.567810   -1.643022    1.666159
     53          1           0       -4.937877    4.314801   -1.963541
     54          1           0       -3.680341    4.115977   -0.943170
     55          1           0       -5.208069    4.096576   -0.368927
     56          1           0       -2.939108   -2.828805   -1.765325
     57          1           0       -4.556863   -2.327844   -1.970335
     58          7           0       -3.606069   -2.083701   -1.776379
     59          6           0       -3.244704   -0.820329   -1.542966
     60          6           0       -3.618446    1.515637   -1.287445
     61          7           0       -2.334329    1.814119   -1.029760
     62          1           0       -0.525734    0.866227   -0.853472
     63          6           0       -1.585428    0.713436   -1.053373
     64          7           0       -1.945485   -0.552804   -1.286943
     65          1           0       -6.773273    2.052019   -1.747330
     66          6           0       -5.780598    1.613995   -1.639357
     67          7           0       -5.511166    0.337844   -1.767927
     68          6           0       -4.143602    0.261746   -1.547232
     69          6           0       -4.622186    3.844720   -1.139306
     70          7           0       -4.681664    2.385024   -1.348488
 ---------------------------------------------------------------------

 SCF Done:  E(RwB97XD) =  -2048.73860290     A.U. after   15 cycles

 The electronic state is 1-A.
 Alpha  occ. eigenvalues --  -19.25327 -19.21565 -19.20225 -14.52899 -14.52107
 Alpha  occ. eigenvalues --  -14.49017 -14.48442 -14.48288 -14.47407 -14.46331
 Alpha  occ. eigenvalues --  -14.45822 -14.45232 -14.44797 -14.44706 -14.42620
 Alpha  occ. eigenvalues --  -14.41460 -14.41010 -14.40554 -14.40442 -14.40126
 Alpha  occ. eigenvalues --  -10.45033 -10.40558 -10.40553 -10.39700 -10.38389
 Alpha  occ. eigenvalues --  -10.37807 -10.37663 -10.37587 -10.36278 -10.35410
 Alpha  occ. eigenvalues --  -10.34710 -10.34443 -10.33907 -10.33694 -10.33106
 Alpha  occ. eigenvalues --  -10.32975 -10.32942 -10.32776 -10.30906 -10.30705
 Alpha  occ. eigenvalues --  -10.30453 -10.28219 -10.27613  -1.19053  -1.15626
 Alpha  occ. eigenvalues --   -1.12741  -1.12585  -1.10902  -1.10205  -1.09869
 Alpha  occ. eigenvalues --   -1.08985  -1.07983  -1.05477  -1.04887  -1.02052
 Alpha  occ. eigenvalues --   -1.01437  -1.00382  -0.98924  -0.98096  -0.97412
 Alpha  occ. eigenvalues --   -0.96614  -0.96209  -0.92573  -0.90791  -0.88123
 Alpha  occ. eigenvalues --   -0.86412  -0.83696  -0.83532  -0.83229  -0.82170
 Alpha  occ. eigenvalues --   -0.81945  -0.78576  -0.77543  -0.75477  -0.74174
 Alpha  occ. eigenvalues --   -0.73063  -0.72918  -0.72738  -0.71010  -0.70782
 Alpha  occ. eigenvalues --   -0.67479  -0.66750  -0.66163  -0.66132  -0.64850
 Alpha  occ. eigenvalues --   -0.64105  -0.63427  -0.62588  -0.62431  -0.61173
 Alpha  occ. eigenvalues --   -0.60958  -0.60666  -0.60431  -0.59763  -0.59389
 Alpha  occ. eigenvalues --   -0.59167  -0.57695  -0.56726  -0.56220  -0.55825
 Alpha  occ. eigenvalues --   -0.55818  -0.55750  -0.55463  -0.54647  -0.54391
 Alpha  occ. eigenvalues --   -0.53880  -0.53581  -0.53293  -0.53169  -0.52806
 Alpha  occ. eigenvalues --   -0.52513  -0.52024  -0.51420  -0.50518  -0.50131
 Alpha  occ. eigenvalues --   -0.49897  -0.49837  -0.49726  -0.49011  -0.48777
 Alpha  occ. eigenvalues --   -0.48442  -0.47954  -0.47852  -0.47187  -0.46960
 Alpha  occ. eigenvalues --   -0.46537  -0.45672  -0.45270  -0.44181  -0.43626
 Alpha  occ. eigenvalues --   -0.41385  -0.40909  -0.39061  -0.38209  -0.38105
 Alpha  occ. eigenvalues --   -0.37204  -0.36850  -0.36542  -0.35400  -0.35156
 Alpha  occ. eigenvalues --   -0.34878  -0.33364  -0.33280  -0.32802  -0.32710
 Alpha  occ. eigenvalues --   -0.32268  -0.31998  -0.31718  -0.31510  -0.30643
 Alpha  occ. eigenvalues --   -0.30537  -0.30219  -0.25637  -0.24779
 Alpha virt. eigenvalues --    0.02787   0.04061   0.06178   0.08281   0.08935
 Alpha virt. eigenvalues --    0.09494   0.10102   0.10308   0.11262   0.11489
 Alpha virt. eigenvalues --    0.12563   0.14049   0.14694   0.15092   0.15267

 Mulliken charges:
               1
     1  N   -0.314000
     2  C    0.183296
     3  C    0.047086
     4  N   -0.262426
     5  C    0.138594
     6  H    0.026075
     7  N   -0.296764
     8  C    0.138169
     9  H    0.014091
    10  N   -0.280881
    11  C    0.263690
    12  C    0.107040
    13  N   -0.064339
    14  H    0.108042
    15  H    0.079683
    16  H    0.022124
    17  H    0.031925
    18  H    0.029353
    19  N   -0.305070
    20  C    0.234411
    21  C    0.180609
    22  N   -0.083144
    23  H    0.108829
    24  H    0.109968
    25  N   -0.306051
    26  C    0.213018
    27  N   -0.144816
    28  H    0.117633
    29  C    0.191776
    30  O   -0.324670
    31  C   -0.021667
    32  N   -0.221045
    33  C    0.130384
    34  H    0.019396
    35  H    0.028162
    36  H    0.027876
    37  H    0.023650
    38  H    0.055664
    39  H    0.059999
    40  H    0.074407
    41  H    0.029876
    42  C   -0.114998
    43  O   -0.260766
    44  C    0.177699
    45  H    0.132792
    46  N   -0.128545
    47  O   -0.341133
    48  C    0.343455
    49  H    0.044003
    50  C    0.163814
    51  C    0.041712
    52  N   -0.283605
    53  H    0.036923
    54  H    0.033220
    55  H    0.032439
    56  H    0.119045
    57  H    0.118062
    58  N   -0.059392
    59  C    0.084188
    60  C    0.264550
    61  N   -0.293632
    62  H    0.055088
    63  C    0.167029
    64  N   -0.304897
    65  H    0.039946
    66  C    0.138138
    67  N   -0.260521
    68  C    0.019441
    69  C    0.180629
    70  N   -0.314635
 Sum of Mulliken charges =  -0.00000

 Dipole moment (field-independent basis, Debye):
    X=             -9.1417    Y=              5.3891    Z=             -2.5302  Tot=             10.9094
 Quadrupole moment (field-independent basis, Debye-Ang):
   XX=           -163.8005   YY=           -213.5247   ZZ=           -254.8619
   XY=              5.5759   XZ=             -9.4192   YZ=              8.9936

 Normal termination of Gaussian 16 at Fri Jan 26 04:44:05 2018.
