 Gaussian 16, Revision A.03,
 Gaussian 16:  EM64L-G16RevA.03 25-Dec-2016

 ---------------------------------------
 #p wb97xd/cc-pvdz sp scf=(maxcycles=20)
 ---------------------------------------

 ------------------
 Base pair stacking
 ------------------
 Symbolic Z-matrix:
 Charge =  0 Multiplicity = 1

                         Standard orientation:
 ---------------------------------------------------------------------
 Center     Atomic      Atomic             Coordinates (Angstroms)
 Number     Number       Type             X           Y           Z
 ---------------------------------------------------------------------
      1          7           0       -5.642623   -1.986061    1.122523
      2          6           0       -7.048084   -1.598768    1.352041
      3          6           0       -3.444234   -1.996685    1.057019
      4          7           0       -3.855451   -3.189467    0.480055
      5          6           0       -5.163447   -3.135325    0.542609
      6          1           0       -5.834347   -3.913386    0.177280
      7          7           0       -2.109800   -0.238204    1.887679
      8          6           0       -3.252950    0.370730    2.219318
      9          1           0       -3.140324    1.343536    2.695982
     10          7           0       -4.508440   -0.039677    2.051327
     11          6           0       -4.534662   -1.244477    1.457874
     12          6           0       -2.169857   -1.449282    1.292058
     13          7           0       -1.029827   -2.058729    0.960258
     14          1           0       -1.026730   -2.956097    0.517618
     15          1           0       -0.140471   -1.639323    1.142720
     16          1           0       -7.490134   -2.276143    1.940205
     17          1           0       -7.079774   -0.703090    1.794629
     18          1           0       -7.530703   -1.553732    0.477371
     19          7           0       -3.389472    3.338861   -1.390438
     20          6           0       -2.097423    2.872333   -1.422399
     21          6           0       -3.782796    4.752486   -1.224093
     22          7           0        1.320775    3.470447   -1.281243
     23          1           0        2.165403    2.938049   -1.330149
     24          1           0        1.413919    4.458764   -1.157678
     25          7           0       -0.979106    3.620899   -1.308113
     26          6           0        0.116849    2.886220   -1.376974
     27          7           0        0.119593    1.522661   -1.544869
     28          1           0        1.005581    1.042811   -1.586476
     29          6           0       -1.019027    0.732057   -1.664725
     30          8           0       -0.906586   -0.491085   -1.813159
     31          6           0       -2.204238    1.507260   -1.592636
     32          7           0       -3.536535    1.124501   -1.666083
     33          6           0       -4.201179    2.241186   -1.541671
     34          1           0       -5.288728    2.321108   -1.553288
     35          1           0       -4.340775    4.850270   -0.400741
     36          1           0       -2.962608    5.316583   -1.138422
     37          1           0       -4.308800    5.049737   -2.020188
     38          1           0        5.707103   -0.823025   -1.069732
     39          1           0        5.655585   -0.876316   -2.830178
     40          1           0        4.771550    0.378079   -1.960492
     41          1           0        3.057928   -4.780288   -1.754206
     42          6           0        2.944857   -3.696511   -1.783700
     43          8           0        0.574551   -3.757415   -1.712480
     44          6           0        1.631460   -3.128732   -1.762440
     45          1           0        0.690574   -1.311510   -1.789913
     46          7           0        1.600977   -1.749359   -1.803299
     47          8           0        2.549173    0.312178   -1.893455
     48          6           0        2.676794   -0.899135   -1.860527
     49          1           0        5.033521   -3.274846   -1.857589
     50          6           0        4.013560   -2.893153   -1.839284
     51          6           0        5.088483   -0.654003   -1.938524
     52          7           0        3.909243   -1.522022   -1.877740
     53          1           0        4.614504    3.502452    3.751428
     54          1           0        3.316686    3.730098    2.789160
     55          1           0        4.821006    3.954662    2.196979
     56          1           0        2.529631   -2.950495    0.738400
     57          1           0        4.159553   -2.567939    1.065665
     58          7           0        3.204844   -2.271040    1.025773
     59          6           0        2.848994   -1.024215    1.341951
     60          6           0        3.238853    1.214990    2.046019
     61          7           0        1.949249    1.585690    1.983289
     62          1           0        0.124717    0.782299    1.507649
     63          6           0        1.189504    0.566985    1.585881
     64          7           0        1.544019   -0.682538    1.268731
     65          1           0        6.414787    1.534227    2.559516
     66          6           0        5.413859    1.172941    2.321728
     67          7           0        5.135250   -0.046194    1.929609
     68          6           0        3.759472   -0.033062    1.751296
     69          6           0        4.262245    3.407503    2.820354
     70          7           0        4.313310    1.989666    2.413991
 ---------------------------------------------------------------------

 SCF Done:  E(RwB97XD) =  -2048.74226961     A.U. after   15 cycles

 The electronic state is 1-A.
 Alpha  occ. eigenvalues --  -19.26153 -19.22682 -19.20754 -14.52787 -14.52113
 Alpha  occ. eigenvalues --  -14.48929 -14.48210 -14.48107 -14.47892 -14.47132
 Alpha  occ. eigenvalues --  -14.46918 -14.45215 -14.44023 -14.43945 -14.42205
 Alpha  occ. eigenvalues --  -14.41409 -14.40967 -14.40489 -14.40087 -14.39499
 Alpha  occ. eigenvalues --  -10.45805 -10.41437 -10.40722 -10.39673 -10.38401
 Alpha  occ. eigenvalues --  -10.38365 -10.37727 -10.36854 -10.35364 -10.35266
 Alpha  occ. eigenvalues --  -10.34616 -10.34485 -10.33582 -10.33414 -10.33205
 Alpha  occ. eigenvalues --  -10.32487 -10.32389 -10.32314 -10.31682 -10.31072
 Alpha  occ. eigenvalues --  -10.30255 -10.28243 -10.27646  -1.19741  -1.14864
 Alpha  occ. eigenvalues --   -1.13636  -1.13368  -1.10730  -1.10457  -1.09735
 Alpha  occ. eigenvalues --   -1.09033  -1.08743  -1.04609  -1.04200  -1.02889
 Alpha  occ. eigenvalues --   -1.00699  -0.99966  -0.99602  -0.98712  -0.96737
 Alpha  occ. eigenvalues --   -0.96587  -0.96067  -0.91869  -0.91616  -0.87299
 Alpha  occ. eigenvalues --   -0.85588  -0.84266  -0.83863  -0.83110  -0.82657
 Alpha  occ. eigenvalues --   -0.81521  -0.79367  -0.76768  -0.74795  -0.74504
 Alpha  occ. eigenvalues --   -0.73882  -0.73724  -0.72104  -0.70277  -0.70139
 Alpha  occ. eigenvalues --   -0.67586  -0.66932  -0.66592  -0.65494  -0.64796
 Alpha  occ. eigenvalues --   -0.64048  -0.64010  -0.62866  -0.61940  -0.61891
 Alpha  occ. eigenvalues --   -0.60411  -0.60141  -0.59978  -0.59835  -0.59282
 Alpha  occ. eigenvalues --   -0.59008  -0.58588  -0.56761  -0.56255  -0.55844
 Alpha  occ. eigenvalues --   -0.55587  -0.55004  -0.54800  -0.54612  -0.54239
 Alpha  occ. eigenvalues --   -0.53885  -0.53639  -0.53488  -0.53225  -0.53175
 Alpha  occ. eigenvalues --   -0.52687  -0.52494  -0.51026  -0.50406  -0.49936
 Alpha  occ. eigenvalues --   -0.49804  -0.49610  -0.49340  -0.49180  -0.49009
 Alpha  occ. eigenvalues --   -0.48586  -0.48477  -0.48106  -0.47870  -0.47566
 Alpha  occ. eigenvalues --   -0.46165  -0.45812  -0.45222  -0.44169  -0.44061
 Alpha  occ. eigenvalues --   -0.40384  -0.40282  -0.39703  -0.37466  -0.37449
 Alpha  occ. eigenvalues --   -0.37409  -0.37260  -0.36317  -0.36212  -0.34619
 Alpha  occ. eigenvalues --   -0.34192  -0.33955  -0.33729  -0.32857  -0.32744
 Alpha  occ. eigenvalues --   -0.32684  -0.32579  -0.32359  -0.31999  -0.30111
 Alpha  occ. eigenvalues --   -0.29818  -0.29636  -0.25710  -0.24829
 Alpha virt. eigenvalues --    0.02141   0.04335   0.07446   0.07975   0.08790
 Alpha virt. eigenvalues --    0.09163   0.09618   0.10806   0.11495   0.11856
 Alpha virt. eigenvalues --    0.12969   0.14405   0.14552   0.14957   0.15161

 Mulliken charges:
               1
     1  N   -0.312845
     2  C    0.181706
     3  C    0.044394
     4  N   -0.256244
     5  C    0.135328
     6  H    0.023945
     7  N   -0.300669
     8  C    0.138924
     9  H    0.007381
    10  N   -0.292036
    11  C    0.253874
    12  C    0.114426
    13  N   -0.057525
    14  H    0.114218
    15  H    0.082173
    16  H    0.022816
    17  H    0.032359
    18  H    0.025585
    19  N   -0.311996
    20  C    0.248976
    21  C    0.180812
    22  N   -0.120637
    23  H    0.114540
    24  H    0.116780
    25  N   -0.311064
    26  C    0.246706
    27  N   -0.151031
    28  H    0.120585
    29  C    0.195348
    30  O   -0.320638
    31  C   -0.012166
    32  N   -0.225372
    33  C    0.130853
    34  H    0.025352
    35  H    0.028822
    36  H    0.028859
    37  H    0.025024
    38  H    0.062273
    39  H    0.060036
    40  H    0.075024
    41  H    0.032439
    42  C   -0.118498
    43  O   -0.262888
    44  C    0.153045
    45  H    0.132487
    46  N   -0.113345
    47  O   -0.343506
    48  C    0.337859
    49  H    0.047021
    50  C    0.155061
    51  C    0.039472
    52  N   -0.273278
    53  H    0.033699
    54  H    0.043471
    55  H    0.026431
    56  H    0.125537
    57  H    0.114484
    58  N   -0.060342
    59  C    0.090272
    60  C    0.246763
    61  N   -0.270806
    62  H    0.040703
    63  C    0.170026
    64  N   -0.310907
    65  H    0.036269
    66  C    0.138461
    67  N   -0.272230
    68  C    0.030818
    69  C    0.179336
    70  N   -0.312747
 Sum of Mulliken charges =  -0.00000

 Dipole moment (field-independent basis, Debye):
    X=              9.4225    Y=              5.7379    Z=              0.3489  Tot=             11.0376
 Quadrupole moment (field-independent basis, Debye-Ang):
   XX=           -162.7937   YY=           -211.5271   ZZ=           -249.2321
   XY=             -5.6020   XZ=             -3.6191   YZ=             -0.3548

 Normal termination of Gaussian 16 at Fri Jan 26 09:21:51 2018.
