 Gaussian 16, Revision A.03,
 Gaussian 16:  EM64L-G16RevA.03 25-Dec-2016

 ---------------------------------------
 #p wb97xd/cc-pvdz sp scf=(maxcycles=20)
 ---------------------------------------

 ------------------
 Base pair stacking
 ------------------
 Symbolic Z-matrix:
 Charge =  0 Multiplicity = 1

                         Standard orientation:
 ---------------------------------------------------------------------
 Center     Atomic      Atomic             Coordinates (Angstroms)
 Number     Number       Type             X           Y           Z
 ---------------------------------------------------------------------
      1          7           0       -6.102829   -1.685531    0.838739
      2          6           0       -7.493771   -1.233615    0.641144
      3          6           0       -3.921846   -1.729424    1.119283
      4          7           0       -4.340452   -3.052102    1.124091
      5          6           0       -5.637659   -2.972720    0.954884
      6          1           0       -6.310210   -3.829633    0.906722
      7          7           0       -2.582258    0.209926    1.204957
      8          6           0       -3.710976    0.904915    1.030148
      9          1           0       -3.590569    1.986910    0.997860
     10          7           0       -4.960234    0.466065    0.889907
     11          6           0       -4.996979   -0.875619    0.944328
     12          6           0       -2.652629   -1.138247    1.255372
     13          7           0       -1.527002   -1.833742    1.429810
     14          1           0       -1.531916   -2.833403    1.473231
     15          1           0       -0.640916   -1.379525    1.522987
     16          1           0       -8.058349   -1.543882    1.406110
     17          1           0       -7.517235   -0.235436    0.594171
     18          1           0       -7.852202   -1.614256   -0.211283
     19          7           0       -2.947783    2.948021   -1.535222
     20          6           0       -1.663433    2.489617   -1.366824
     21          6           0       -3.398827    4.332841   -1.291207
     22          7           0        1.647867    3.071303   -0.495795
     23          1           0        2.498206    2.548915   -0.438513
     24          1           0        1.692197    4.039040   -0.246338
     25          7           0       -0.606197    3.221360   -0.953460
     26          6           0        0.499240    2.500596   -0.889321
     27          7           0        0.566321    1.165260   -1.205376
     28          1           0        1.454590    0.694303   -1.127040
     29          6           0       -0.508749    0.392381   -1.632840
     30          8           0       -0.341137   -0.805564   -1.892792
     31          6           0       -1.703311    1.152940   -1.706683
     32          7           0       -2.986868    0.779685   -2.080926
     33          6           0       -3.688974    1.874029   -1.963983
     34          1           0       -4.755271    1.953588   -2.178359
     35          1           0       -4.107738    4.335016   -0.586754
     36          1           0       -2.624148    4.884290   -0.984536
     37          1           0       -3.767615    4.718803   -2.136095
     38          1           0        6.009543   -1.213402    0.083684
     39          1           0        6.300978   -1.064624   -1.647666
     40          1           0        5.236242    0.080871   -0.831862
     41          1           0        3.636241   -5.068990   -1.543722
     42          6           0        3.505694   -3.989095   -1.472898
     43          8           0        1.168508   -4.060312   -1.872441
     44          6           0        2.200105   -3.428910   -1.644537
     45          1           0        1.240080   -1.621527   -1.650829
     46          7           0        2.145845   -2.053980   -1.535520
     47          8           0        3.045073    0.005328   -1.207195
     48          6           0        3.192206   -1.201640   -1.286142
     49          1           0        5.558721   -3.559487   -1.090402
     50          6           0        4.545855   -3.183506   -1.228584
     51          6           0        5.566980   -0.946589   -0.864486
     52          7           0        4.418907   -1.817113   -1.132542
     53          1           0        4.095605    4.376485    2.058349
     54          1           0        2.956390    4.114940    0.919991
     55          1           0        4.538090    4.024814    0.527353
     56          1           0        1.954898   -2.727247    2.199409
     57          1           0        3.551228   -2.236709    2.547530
     58          7           0        2.634692   -1.994282    2.227537
     59          6           0        2.333417   -0.748620    1.855072
     60          6           0        2.791500    1.552603    1.459756
     61          7           0        1.552387    1.849209    1.034266
     62          1           0       -0.247877    0.918637    0.728175
     63          6           0        0.778457    0.766025    1.059266
     64          7           0        1.078332   -0.482472    1.431969
     65          1           0        5.886854    2.075068    2.233046
     66          6           0        4.902063    1.645349    2.047418
     67          7           0        4.588231    0.388308    2.245014
     68          6           0        3.252733    0.315959    1.876289
     69          6           0        3.863124    3.845818    1.243282
     70          7           0        3.862370    2.407268    1.572803
 ---------------------------------------------------------------------

 SCF Done:  E(RwB97XD) =  -2048.61191693     A.U. after   16 cycles

 The electronic state is 1-A.
 Alpha  occ. eigenvalues --  -19.25847 -19.21793 -19.20686 -14.52719 -14.52326
 Alpha  occ. eigenvalues --  -14.48743 -14.48636 -14.47931 -14.47749 -14.46761
 Alpha  occ. eigenvalues --  -14.45641 -14.45409 -14.43625 -14.42398 -14.42145
 Alpha  occ. eigenvalues --  -14.42137 -14.41341 -14.40775 -14.40688 -14.40088
 Alpha  occ. eigenvalues --  -10.45414 -10.40451 -10.39931 -10.39332 -10.38149
 Alpha  occ. eigenvalues --  -10.37865 -10.37699 -10.36773 -10.35414 -10.34939
 Alpha  occ. eigenvalues --  -10.34878 -10.34795 -10.34290 -10.34007 -10.33243
 Alpha  occ. eigenvalues --  -10.33218 -10.32985 -10.32124 -10.31035 -10.30940
 Alpha  occ. eigenvalues --  -10.30837 -10.28442 -10.28071  -1.19417  -1.15415
 Alpha  occ. eigenvalues --   -1.13575  -1.12846  -1.11227  -1.10651  -1.09637
 Alpha  occ. eigenvalues --   -1.09208  -1.08422  -1.04935  -1.04624  -1.02356
 Alpha  occ. eigenvalues --   -1.01312  -1.00449  -1.00225  -0.98685  -0.96912
 Alpha  occ. eigenvalues --   -0.96657  -0.96142  -0.92605  -0.90936  -0.87689
 Alpha  occ. eigenvalues --   -0.86378  -0.84145  -0.83835  -0.83410  -0.82556
 Alpha  occ. eigenvalues --   -0.82231  -0.78781  -0.77021  -0.75436  -0.74730
 Alpha  occ. eigenvalues --   -0.73504  -0.73223  -0.72876  -0.71009  -0.70568
 Alpha  occ. eigenvalues --   -0.67710  -0.66836  -0.66453  -0.66292  -0.64584
 Alpha  occ. eigenvalues --   -0.64386  -0.63722  -0.63186  -0.62726  -0.62171
 Alpha  occ. eigenvalues --   -0.60906  -0.60614  -0.60341  -0.59621  -0.59431
 Alpha  occ. eigenvalues --   -0.59400  -0.58832  -0.57277  -0.56404  -0.56241
 Alpha  occ. eigenvalues --   -0.56157  -0.55953  -0.55399  -0.55129  -0.54352
 Alpha  occ. eigenvalues --   -0.54138  -0.53568  -0.53136  -0.52997  -0.52860
 Alpha  occ. eigenvalues --   -0.52368  -0.52148  -0.51667  -0.50746  -0.50161
 Alpha  occ. eigenvalues --   -0.50130  -0.49510  -0.49298  -0.49020  -0.48846
 Alpha  occ. eigenvalues --   -0.48693  -0.48257  -0.48021  -0.47929  -0.47345
 Alpha  occ. eigenvalues --   -0.46912  -0.46406  -0.44954  -0.43815  -0.43575
 Alpha  occ. eigenvalues --   -0.41492  -0.40976  -0.39469  -0.38167  -0.37830
 Alpha  occ. eigenvalues --   -0.37278  -0.37126  -0.36614  -0.35895  -0.34915
 Alpha  occ. eigenvalues --   -0.34265  -0.33642  -0.33384  -0.33019  -0.32611
 Alpha  occ. eigenvalues --   -0.32390  -0.31834  -0.31812  -0.30718  -0.30386
 Alpha  occ. eigenvalues --   -0.29198  -0.28057  -0.25724  -0.23738
 Alpha virt. eigenvalues --    0.03198   0.04389   0.07146   0.08064   0.08354
 Alpha virt. eigenvalues --    0.09178   0.09600   0.10939   0.11330   0.11947
 Alpha virt. eigenvalues --    0.12397   0.13915   0.14396   0.14490   0.14771

 Mulliken charges:
               1
     1  N   -0.313333
     2  C    0.181744
     3  C    0.038496
     4  N   -0.261559
     5  C    0.135115
     6  H    0.026231
     7  N   -0.288225
     8  C    0.151723
     9  H    0.004442
    10  N   -0.291818
    11  C    0.253510
    12  C    0.120519
    13  N   -0.061669
    14  H    0.106807
    15  H    0.084035
    16  H    0.024251
    17  H    0.032435
    18  H    0.027570
    19  N   -0.305145
    20  C    0.234247
    21  C    0.180938
    22  N   -0.040787
    23  H    0.106457
    24  H    0.109880
    25  N   -0.289617
    26  C    0.204861
    27  N   -0.133457
    28  H    0.126224
    29  C    0.153757
    30  O   -0.317687
    31  C    0.022639
    32  N   -0.220108
    33  C    0.120631
    34  H    0.024752
    35  H    0.028506
    36  H    0.027708
    37  H    0.024895
    38  H    0.061499
    39  H    0.057589
    40  H    0.073942
    41  H    0.031408
    42  C   -0.111610
    43  O   -0.261845
    44  C    0.176702
    45  H    0.132524
    46  N   -0.129880
    47  O   -0.345935
    48  C    0.352218
    49  H    0.046867
    50  C    0.166547
    51  C    0.042311
    52  N   -0.292048
    53  H    0.041535
    54  H    0.008130
    55  H    0.037543
    56  H    0.119091
    57  H    0.115075
    58  N   -0.069502
    59  C    0.080216
    60  C    0.265906
    61  N   -0.339498
    62  H    0.033530
    63  C    0.181535
    64  N   -0.301258
    65  H    0.035092
    66  C    0.132174
    67  N   -0.262763
    68  C    0.041505
    69  C    0.176719
    70  N   -0.324286
 Sum of Mulliken charges =  -0.00000

 Dipole moment (field-independent basis, Debye):
    X=              8.3635    Y=              5.3672    Z=              3.1316  Tot=             10.4193
 Quadrupole moment (field-independent basis, Debye-Ang):
   XX=           -158.0619   YY=           -214.9407   ZZ=           -256.2767
   XY=             -3.4638   XZ=              1.6228   YZ=            -11.4594

 Normal termination of Gaussian 16 at Fri Jan 26 08:48:02 2018.
