 Gaussian 16, Revision A.03,
 Gaussian 16:  EM64L-G16RevA.03 25-Dec-2016

 ---------------------------------------
 #p wb97xd/cc-pvdz sp scf=(maxcycles=20)
 ---------------------------------------

 ------------------
 Base pair stacking
 ------------------
 Symbolic Z-matrix:
 Charge =  0 Multiplicity = 1

                         Standard orientation:
 ---------------------------------------------------------------------
 Center     Atomic      Atomic             Coordinates (Angstroms)
 Number     Number       Type             X           Y           Z
 ---------------------------------------------------------------------
      1          7           0        4.261623   -2.158177   -1.871367
      2          6           0        5.669449   -1.785502   -2.110460
      3          6           0        2.079334   -2.086914   -1.607066
      4          7           0        2.447834   -3.413485   -1.436318
      5          6           0        3.747833   -3.403319   -1.602383
      6          1           0        4.387852   -4.283835   -1.539049
      7          7           0        0.813340   -0.103734   -1.771903
      8          6           0        1.968179    0.522458   -2.020541
      9          1           0        1.888729    1.595977   -2.186381
     10          7           0        3.200629    0.023994   -2.094730
     11          6           0        3.186605   -1.301254   -1.875819
     12          6           0        0.832695   -1.437166   -1.555873
     13          7           0       -0.319062   -2.064019   -1.307523
     14          1           0       -0.351974   -3.050262   -1.141773
     15          1           0       -1.187819   -1.569484   -1.278684
     16          1           0        6.016509   -2.281806   -2.906325
     17          1           0        5.730671   -0.802207   -2.279307
     18          1           0        6.219103   -2.019113   -1.308398
     19          7           0        4.817283    2.947371    0.678915
     20          6           0        3.508693    2.559387    0.837366
     21          6           0        5.268808    4.315560    0.355037
     22          7           0        0.123312    3.334278    0.859340
     23          1           0       -0.741631    2.857060    1.012223
     24          1           0        0.071692    4.310952    0.649232
     25          7           0        2.424227    3.356430    0.724706
     26          6           0        1.300067    2.694115    0.932582
     27          7           0        1.240330    1.353774    1.228288
     28          1           0        0.336318    0.930486    1.371608
     29          6           0        2.343303    0.514297    1.349159
     30          8           0        2.179992   -0.681982    1.619286
     31          6           0        3.558206    1.211581    1.128541
     32          7           0        4.871453    0.762454    1.152411
     33          6           0        5.581262    1.823895    0.880853
     34          1           0        6.669661    1.842998    0.815286
     35          1           0        5.772896    4.306479   -0.507873
     36          1           0        4.474070    4.914957    0.269133
     37          1           0        5.862717    4.653728    1.084224
     38          1           0       -4.477525   -0.706082    1.335161
     39          1           0       -4.307508   -0.602047    3.085852
     40          1           0       -3.423564    0.516216    2.046858
     41          1           0       -1.989823   -4.728066    2.219283
     42          6           0       -1.820628   -3.654211    2.139037
     43          8           0        0.533054   -3.855082    1.922394
     44          6           0       -0.484937   -3.165787    1.980295
     45          1           0        0.545798   -1.409624    1.775827
     46          7           0       -0.382373   -1.792343    1.888713
     47          8           0       -1.217237    0.319110    1.844311
     48          6           0       -1.407570   -0.881043    1.934110
     49          1           0       -3.875378   -3.110300    2.306257
     50          6           0       -2.841203   -2.790058    2.186789
     51          6           0       -3.792753   -0.494045    2.142750
     52          7           0       -2.665665   -1.429190    2.088873
     53          1           0       -5.751737    4.320692   -1.852722
     54          1           0       -4.371716    4.198830   -0.990866
     55          1           0       -5.807042    4.309800   -0.221693
     56          1           0       -3.905501   -2.818097   -1.019294
     57          1           0       -5.524436   -2.282772   -1.070079
     58          7           0       -4.550857   -2.054308   -1.036079
     59          6           0       -4.132783   -0.787060   -1.014156
     60          6           0       -4.415691    1.575502   -1.008790
     61          7           0       -3.102082    1.852545   -0.963126
     62          1           0       -1.308060    0.862982   -0.909335
     63          6           0       -2.388269    0.728662   -0.946300
     64          7           0       -2.805129   -0.541501   -0.968216
     65          1           0       -7.590915    2.175189   -1.111218
     66          6           0       -6.602865    1.714978   -1.081061
     67          7           0       -6.382188    0.423094   -1.081785
     68          6           0       -4.999359    0.320861   -1.036181
     69          6           0       -5.337354    3.942848   -1.024763
     70          7           0       -5.457531    2.471997   -1.038004
 ---------------------------------------------------------------------

 SCF Done:  E(RwB97XD) =  -2048.74723763     A.U. after   15 cycles

 The electronic state is 1-A.
 Alpha  occ. eigenvalues --  -19.25173 -19.21232 -19.20519 -14.52621 -14.51753
 Alpha  occ. eigenvalues --  -14.49209 -14.48872 -14.48112 -14.47077 -14.46658
 Alpha  occ. eigenvalues --  -14.46436 -14.45554 -14.45044 -14.44934 -14.43067
 Alpha  occ. eigenvalues --  -14.41972 -14.41048 -14.40836 -14.40829 -14.40512
 Alpha  occ. eigenvalues --  -10.44756 -10.41098 -10.40631 -10.39350 -10.38135
 Alpha  occ. eigenvalues --  -10.38117 -10.37602 -10.37341 -10.36381 -10.35670
 Alpha  occ. eigenvalues --  -10.34350 -10.34330 -10.33989 -10.33566 -10.33475
 Alpha  occ. eigenvalues --  -10.33088 -10.33015 -10.32974 -10.31054 -10.30654
 Alpha  occ. eigenvalues --  -10.30006 -10.28330 -10.28096  -1.18730  -1.15427
 Alpha  occ. eigenvalues --   -1.13093  -1.12249  -1.10808  -1.10601  -1.10003
 Alpha  occ. eigenvalues --   -1.08647  -1.08424  -1.05509  -1.05164  -1.01726
 Alpha  occ. eigenvalues --   -1.01218  -1.00671  -0.99554  -0.98473  -0.97504
 Alpha  occ. eigenvalues --   -0.96638  -0.96504  -0.92851  -0.90513  -0.87988
 Alpha  occ. eigenvalues --   -0.86121  -0.84142  -0.83506  -0.82935  -0.82539
 Alpha  occ. eigenvalues --   -0.81761  -0.78274  -0.77511  -0.75327  -0.74581
 Alpha  occ. eigenvalues --   -0.73475  -0.72844  -0.72666  -0.70990  -0.70831
 Alpha  occ. eigenvalues --   -0.67366  -0.67242  -0.66238  -0.65926  -0.64710
 Alpha  occ. eigenvalues --   -0.64243  -0.63409  -0.62715  -0.62474  -0.61647
 Alpha  occ. eigenvalues --   -0.60989  -0.60659  -0.60089  -0.59774  -0.59088
 Alpha  occ. eigenvalues --   -0.58997  -0.58160  -0.56747  -0.56490  -0.55743
 Alpha  occ. eigenvalues --   -0.55565  -0.55537  -0.55473  -0.54973  -0.54035
 Alpha  occ. eigenvalues --   -0.53935  -0.53534  -0.53285  -0.53129  -0.52867
 Alpha  occ. eigenvalues --   -0.52381  -0.51836  -0.51279  -0.50393  -0.50295
 Alpha  occ. eigenvalues --   -0.50058  -0.49847  -0.49418  -0.48949  -0.48747
 Alpha  occ. eigenvalues --   -0.48661  -0.47965  -0.47777  -0.47632  -0.47046
 Alpha  occ. eigenvalues --   -0.46653  -0.45599  -0.45410  -0.44682  -0.43361
 Alpha  occ. eigenvalues --   -0.41173  -0.41052  -0.38906  -0.38197  -0.38012
 Alpha  occ. eigenvalues --   -0.37304  -0.37208  -0.36804  -0.35368  -0.35152
 Alpha  occ. eigenvalues --   -0.34961  -0.33965  -0.33354  -0.33224  -0.32836
 Alpha  occ. eigenvalues --   -0.32539  -0.32303  -0.31815  -0.31266  -0.30670
 Alpha  occ. eigenvalues --   -0.30533  -0.30299  -0.26162  -0.25149
 Alpha virt. eigenvalues --    0.03489   0.03699   0.06556   0.08058   0.09016
 Alpha virt. eigenvalues --    0.09338   0.09833   0.10303   0.10969   0.11358
 Alpha virt. eigenvalues --    0.13632   0.14522   0.14645   0.14731   0.14834

 Mulliken charges:
               1
     1  N   -0.312541
     2  C    0.185104
     3  C    0.062503
     4  N   -0.259774
     5  C    0.145632
     6  H    0.028030
     7  N   -0.291152
     8  C    0.122784
     9  H    0.015165
    10  N   -0.274524
    11  C    0.260415
    12  C    0.081523
    13  N   -0.071562
    14  H    0.111065
    15  H    0.082872
    16  H    0.019239
    17  H    0.032753
    18  H    0.033871
    19  N   -0.311287
    20  C    0.250213
    21  C    0.181046
    22  N   -0.119677
    23  H    0.120256
    24  H    0.116757
    25  N   -0.310756
    26  C    0.238233
    27  N   -0.133910
    28  H    0.116849
    29  C    0.174249
    30  O   -0.320209
    31  C    0.002142
    32  N   -0.232912
    33  C    0.124314
    34  H    0.022371
    35  H    0.027152
    36  H    0.029495
    37  H    0.024810
    38  H    0.059027
    39  H    0.057286
    40  H    0.076595
    41  H    0.028115
    42  C   -0.115923
    43  O   -0.256123
    44  C    0.168079
    45  H    0.136688
    46  N   -0.126326
    47  O   -0.348670
    48  C    0.354601
    49  H    0.041498
    50  C    0.161136
    51  C    0.038685
    52  N   -0.280310
    53  H    0.034539
    54  H    0.038803
    55  H    0.031168
    56  H    0.117619
    57  H    0.121014
    58  N   -0.062725
    59  C    0.060692
    60  C    0.248189
    61  N   -0.276788
    62  H    0.023682
    63  C    0.185450
    64  N   -0.308579
    65  H    0.040010
    66  C    0.142816
    67  N   -0.259799
    68  C    0.031360
    69  C    0.180818
    70  N   -0.313167
 Sum of Mulliken charges =  -0.00000

 Dipole moment (field-independent basis, Debye):
    X=             -8.8140    Y=              5.9586    Z=             -0.9389  Tot=             10.6805
 Quadrupole moment (field-independent basis, Debye-Ang):
   XX=           -173.4694   YY=           -211.2658   ZZ=           -250.6616
   XY=              8.2201   XZ=            -18.7129   YZ=              6.2010

 Normal termination of Gaussian 16 at Fri Jan 26 17:50:52 2018.
