 Gaussian 16, Revision A.03,
 Gaussian 16:  EM64L-G16RevA.03 25-Dec-2016

 ---------------------------------------
 #p wb97xd/cc-pvdz sp scf=(maxcycles=20)
 ---------------------------------------

 ------------------
 Base pair stacking
 ------------------
 Symbolic Z-matrix:
 Charge =  0 Multiplicity = 1

                         Standard orientation:
 ---------------------------------------------------------------------
 Center     Atomic      Atomic             Coordinates (Angstroms)
 Number     Number       Type             X           Y           Z
 ---------------------------------------------------------------------
      1          7           0        4.950340   -2.202089   -1.568834
      2          6           0        6.348232   -1.851656   -1.886764
      3          6           0        2.763826   -2.142748   -1.338652
      4          7           0        3.172730   -3.373308   -0.845451
      5          6           0        4.473652   -3.359802   -1.003868
      6          1           0        5.140862   -4.175358   -0.723435
      7          7           0        1.436755   -0.305323   -1.991113
      8          6           0        2.573770    0.279699   -2.381635
      9          1           0        2.461832    1.276216   -2.806714
     10          7           0        3.822444   -0.179266   -2.326151
     11          6           0        3.848424   -1.409802   -1.788079
     12          6           0        1.496387   -1.543350   -1.453691
     13          7           0        0.362463   -2.128977   -1.063267
     14          1           0        0.359305   -3.044804   -0.660166
     15          1           0       -0.522044   -1.672519   -1.160321
     16          1           0        6.720760   -2.516117   -2.534760
     17          1           0        6.379824   -0.938487   -2.292026
     18          1           0        6.895318   -1.862131   -1.049755
     19          7           0        4.133582    3.208438    1.017812
     20          6           0        2.831133    2.792451    1.154275
     21          6           0        4.564428    4.600136    0.776467
     22          7           0       -0.565116    3.514900    1.227395
     23          1           0       -1.422694    3.016706    1.352338
     24          1           0       -0.631409    4.501605    1.076653
     25          7           0        1.734927    3.578854    1.091326
     26          6           0        0.620990    2.888804    1.260337
     27          7           0        0.581418    1.532343    1.474733
     28          1           0       -0.316033    1.087982    1.593439
     29          6           0        1.696743    0.703363    1.543298
     30          8           0        1.551464   -0.509293    1.740988
     31          6           0        2.900891    1.430418    1.363555
     32          7           0        4.220589    0.999980    1.358562
     33          6           0        4.914273    2.086150    1.150614
     34          1           0        6.002128    2.125123    1.084886
     35          1           0        5.066709    4.650489   -0.086083
     36          1           0        3.760866    5.191905    0.727923
     37          1           0        5.154956    4.902389    1.523948
     38          1           0       -5.105604   -0.613820    1.464637
     39          1           0       -4.933283   -0.613046    3.218189
     40          1           0       -4.067998    0.578670    2.247391
     41          1           0       -2.557697   -4.644884    2.101266
     42          6           0       -2.404327   -3.565781    2.085727
     43          8           0       -0.048443   -3.718702    1.854282
     44          6           0       -1.076230   -3.049149    1.954987
     45          1           0       -0.071618   -1.268924    1.855485
     46          7           0       -0.993874   -1.671322    1.946289
     47          8           0       -1.859471    0.426494    2.030434
     48          6           0       -2.032123   -0.779549    2.047921
     49          1           0       -4.466405   -3.063121    2.288138
     50          6           0       -3.437263   -2.721139    2.186850
     51          6           0       -4.422233   -0.440846    2.282651
     52          7           0       -3.281763   -1.354416    2.170980
     53          1           0       -5.265871    3.736489   -3.183127
     54          1           0       -3.893242    3.877362   -2.312414
     55          1           0       -5.340647    4.124755   -1.599758
     56          1           0       -3.201086   -2.911320   -0.612366
     57          1           0       -4.835671   -2.460554   -0.799536
     58          7           0       -3.870435   -2.197585   -0.819001
     59          6           0       -3.493677   -0.950258   -1.107797
     60          6           0       -3.852529    1.330104   -1.684761
     61          7           0       -2.549159    1.654631   -1.703537
     62          1           0       -0.725009    0.770561   -1.401052
     63          6           0       -1.799806    0.594420   -1.408047
     64          7           0       -2.175265   -0.655691   -1.118504
     65          1           0       -7.043923    1.777314   -1.943871
     66          6           0       -6.042014    1.372689   -1.797619
     67          7           0       -5.779867    0.128534   -1.479717
     68          6           0       -4.395127    0.087998   -1.405005
     69          6           0       -4.849651    3.588028   -2.286068
     70          7           0       -4.922246    2.155788   -1.937624
 ---------------------------------------------------------------------

 SCF Done:  E(RwB97XD) =  -2048.74483264     A.U. after   15 cycles

 The electronic state is 1-A.
 Alpha  occ. eigenvalues --  -19.25731 -19.22106 -19.20641 -14.52439 -14.52370
 Alpha  occ. eigenvalues --  -14.48949 -14.48594 -14.47785 -14.47750 -14.46983
 Alpha  occ. eigenvalues --  -14.46764 -14.45396 -14.44544 -14.44397 -14.42134
 Alpha  occ. eigenvalues --  -14.41910 -14.41031 -14.40376 -14.40208 -14.39762
 Alpha  occ. eigenvalues --  -10.45422 -10.41351 -10.40225 -10.40139 -10.38294
 Alpha  occ. eigenvalues --  -10.38164 -10.37961 -10.37212 -10.35820 -10.35037
 Alpha  occ. eigenvalues --  -10.34882 -10.34483 -10.33766 -10.33469 -10.33132
 Alpha  occ. eigenvalues --  -10.32748 -10.32509 -10.32430 -10.31361 -10.31096
 Alpha  occ. eigenvalues --  -10.30067 -10.28232 -10.27708  -1.19332  -1.15144
 Alpha  occ. eigenvalues --   -1.13283  -1.13102  -1.10710  -1.10394  -1.09569
 Alpha  occ. eigenvalues --   -1.09265  -1.08645  -1.05017  -1.04417  -1.02435
 Alpha  occ. eigenvalues --   -1.00958  -0.99857  -0.99833  -0.98650  -0.97010
 Alpha  occ. eigenvalues --   -0.96738  -0.96064  -0.92109  -0.91286  -0.87620
 Alpha  occ. eigenvalues --   -0.85841  -0.84255  -0.83560  -0.83079  -0.82651
 Alpha  occ. eigenvalues --   -0.81484  -0.78996  -0.77114  -0.74899  -0.74743
 Alpha  occ. eigenvalues --   -0.73738  -0.73359  -0.72227  -0.70538  -0.70301
 Alpha  occ. eigenvalues --   -0.67488  -0.66960  -0.66581  -0.65627  -0.64574
 Alpha  occ. eigenvalues --   -0.64329  -0.63875  -0.62744  -0.62048  -0.61864
 Alpha  occ. eigenvalues --   -0.60662  -0.60246  -0.59982  -0.59630  -0.59348
 Alpha  occ. eigenvalues --   -0.59225  -0.58458  -0.56765  -0.55993  -0.55949
 Alpha  occ. eigenvalues --   -0.55420  -0.55253  -0.54925  -0.54522  -0.54247
 Alpha  occ. eigenvalues --   -0.53769  -0.53717  -0.53531  -0.53177  -0.53061
 Alpha  occ. eigenvalues --   -0.52804  -0.52411  -0.50986  -0.50297  -0.50008
 Alpha  occ. eigenvalues --   -0.49847  -0.49570  -0.49418  -0.49248  -0.48919
 Alpha  occ. eigenvalues --   -0.48471  -0.48279  -0.48196  -0.47847  -0.47373
 Alpha  occ. eigenvalues --   -0.46206  -0.45729  -0.45398  -0.44208  -0.43855
 Alpha  occ. eigenvalues --   -0.40694  -0.40477  -0.39366  -0.37728  -0.37613
 Alpha  occ. eigenvalues --   -0.37390  -0.37387  -0.36328  -0.35812  -0.34873
 Alpha  occ. eigenvalues --   -0.34456  -0.34066  -0.33284  -0.32782  -0.32768
 Alpha  occ. eigenvalues --   -0.32660  -0.32560  -0.32228  -0.31964  -0.30225
 Alpha  occ. eigenvalues --   -0.30143  -0.29763  -0.25607  -0.25128
 Alpha virt. eigenvalues --    0.02381   0.04370   0.06799   0.08510   0.08806
 Alpha virt. eigenvalues --    0.09154   0.09689   0.10578   0.11176   0.11693
 Alpha virt. eigenvalues --    0.13343   0.14448   0.14657   0.14780   0.15210

 Mulliken charges:
               1
     1  N   -0.313065
     2  C    0.182829
     3  C    0.050570
     4  N   -0.254579
     5  C    0.139550
     6  H    0.024873
     7  N   -0.301945
     8  C    0.135963
     9  H    0.008581
    10  N   -0.287578
    11  C    0.259771
    12  C    0.104949
    13  N   -0.068110
    14  H    0.113562
    15  H    0.082238
    16  H    0.021380
    17  H    0.031955
    18  H    0.028092
    19  N   -0.311496
    20  C    0.250166
    21  C    0.180732
    22  N   -0.120749
    23  H    0.115886
    24  H    0.117152
    25  N   -0.311748
    26  C    0.248155
    27  N   -0.150844
    28  H    0.120239
    29  C    0.198501
    30  O   -0.321155
    31  C   -0.015036
    32  N   -0.227579
    33  C    0.129134
    34  H    0.023531
    35  H    0.028318
    36  H    0.029285
    37  H    0.025006
    38  H    0.056268
    39  H    0.060500
    40  H    0.075027
    41  H    0.030461
    42  C   -0.121507
    43  O   -0.260510
    44  C    0.169646
    45  H    0.133246
    46  N   -0.123265
    47  O   -0.347586
    48  C    0.347119
    49  H    0.043885
    50  C    0.157651
    51  C    0.039153
    52  N   -0.275955
    53  H    0.034217
    54  H    0.042089
    55  H    0.028627
    56  H    0.115900
    57  H    0.115569
    58  N   -0.059115
    59  C    0.092242
    60  C    0.251425
    61  N   -0.273643
    62  H    0.037535
    63  C    0.177141
    64  N   -0.317253
    65  H    0.038459
    66  C    0.140286
    67  N   -0.267538
    68  C    0.026997
    69  C    0.179674
    70  N   -0.313275
 Sum of Mulliken charges =  -0.00000

 Dipole moment (field-independent basis, Debye):
    X=             -9.0559    Y=              6.0680    Z=             -0.0849  Tot=             10.9013
 Quadrupole moment (field-independent basis, Debye-Ang):
   XX=           -167.9207   YY=           -211.0038   ZZ=           -249.0538
   XY=              5.7365   XZ=            -11.4675   YZ=              0.5822

 Normal termination of Gaussian 16 at Fri Jan 26 05:51:28 2018.
