 Gaussian 16, Revision A.03,
 Gaussian 16:  EM64L-G16RevA.03 25-Dec-2016

 ---------------------------------------
 #p wb97xd/cc-pvdz sp scf=(maxcycles=20)
 ---------------------------------------

 ------------------
 Base pair stacking
 ------------------
 Symbolic Z-matrix:
 Charge =  0 Multiplicity = 1

                         Standard orientation:
 ---------------------------------------------------------------------
 Center     Atomic      Atomic             Coordinates (Angstroms)
 Number     Number       Type             X           Y           Z
 ---------------------------------------------------------------------
      1          7           0        4.924663   -2.022566   -1.596487
      2          6           0        6.335894   -1.614327   -1.737076
      3          6           0        2.728280   -2.006142   -1.482676
      4          7           0        3.116971   -3.324057   -1.290990
      5          6           0        4.424651   -3.281207   -1.367232
      6          1           0        5.080468   -4.146029   -1.262696
      7          7           0        1.427777   -0.053861   -1.728185
      8          6           0        2.581073    0.601651   -1.894927
      9          1           0        2.486591    1.673665   -2.062605
     10          7           0        3.827693    0.133940   -1.885693
     11          6           0        3.831550   -1.192281   -1.672266
     12          6           0        1.465325   -1.387422   -1.515373
     13          7           0        0.315137   -2.043526   -1.348697
     14          1           0        0.295409   -3.031041   -1.188582
     15          1           0       -0.565549   -1.570592   -1.378177
     16          1           0        6.749003   -2.098214   -2.508683
     17          1           0        6.384154   -0.629050   -1.898341
     18          1           0        6.834797   -1.838169   -0.899822
     19          7           0        4.179379    3.039398    1.034006
     20          6           0        2.873025    2.618662    1.100922
     21          6           0        4.617987    4.419759    0.746079
     22          7           0       -0.524052    3.310123    0.892381
     23          1           0       -1.385356    2.811116    0.983978
     24          1           0       -0.585346    4.286217    0.682170
     25          7           0        1.779407    3.389373    0.916360
     26          6           0        0.660403    2.698695    1.044438
     27          7           0        0.613771    1.355922    1.331285
     28          1           0       -0.287168    0.909903    1.410821
     29          6           0        1.726326    0.543205    1.525183
     30          8           0        1.574578   -0.657992    1.779828
     31          6           0        2.935837    1.271119    1.390741
     32          7           0        4.255082    0.854259    1.503505
     33          6           0        4.955312    1.934060    1.284610
     34          1           0        6.044835    1.980178    1.294103
     35          1           0        5.180212    4.427124   -0.080147
     36          1           0        3.816399    4.999870    0.607537
     37          1           0        5.151847    4.768957    1.515399
     38          1           0       -5.045050   -0.844135    1.038485
     39          1           0       -4.998300   -0.744208    2.797027
     40          1           0       -4.073109    0.400302    1.824661
     41          1           0       -2.524933   -4.807969    2.079435
     42          6           0       -2.377320   -3.729919    2.014256
     43          8           0       -0.010060   -3.871950    1.959379
     44          6           0       -1.046410   -3.208118    1.949218
     45          1           0       -0.047952   -1.426242    1.821420
     46          7           0       -0.971903   -1.832154    1.869054
     47          8           0       -1.853871    0.258358    1.773713
     48          6           0       -2.020090   -0.946522    1.846597
     49          1           0       -4.451561   -3.237396    2.041413
     50          6           0       -3.419889   -2.891318    1.994324
     51          6           0       -4.422835   -0.619167    1.891888
     52          7           0       -3.271846   -1.526107    1.912812
     53          1           0       -5.223991    4.208434   -2.246913
     54          1           0       -3.903816    4.116413   -1.292568
     55          1           0       -5.390873    4.188502   -0.623589
     56          1           0       -3.262805   -2.886747   -1.310058
     57          1           0       -4.887211   -2.391082   -1.470436
     58          7           0       -3.924232   -2.138948   -1.368887
     59          6           0       -3.540228   -0.861936   -1.314431
     60          6           0       -3.881361    1.492907   -1.321406
     61          7           0       -2.581257    1.801898   -1.184671
     62          1           0       -0.771177    0.856419   -1.010636
     63          6           0       -1.842633    0.695805   -1.122203
     64          7           0       -2.225365   -0.584098   -1.176557
     65          1           0       -7.055954    2.014965   -1.640122
     66          6           0       -6.061194    1.579014   -1.543482
     67          7           0       -5.808998    0.292943   -1.532928
     68          6           0       -4.430465    0.224474   -1.392649
     69          6           0       -4.858198    3.836972   -1.393563
     70          7           0       -4.940654    2.363702   -1.419489
 ---------------------------------------------------------------------

 SCF Done:  E(RwB97XD) =  -2048.74947445     A.U. after   15 cycles

 The electronic state is 1-A.
 Alpha  occ. eigenvalues --  -19.25336 -19.21578 -19.20375 -14.52694 -14.52075
 Alpha  occ. eigenvalues --  -14.48996 -14.48690 -14.48110 -14.47369 -14.46599
 Alpha  occ. eigenvalues --  -14.46159 -14.45657 -14.44823 -14.44821 -14.42588
 Alpha  occ. eigenvalues --  -14.41807 -14.40802 -14.40764 -14.40524 -14.40142
 Alpha  occ. eigenvalues --  -10.45027 -10.40956 -10.40490 -10.39706 -10.38230
 Alpha  occ. eigenvalues --  -10.38007 -10.37640 -10.37555 -10.36250 -10.35349
 Alpha  occ. eigenvalues --  -10.34703 -10.34196 -10.34122 -10.33520 -10.33232
 Alpha  occ. eigenvalues --  -10.33035 -10.32859 -10.32744 -10.30937 -10.30900
 Alpha  occ. eigenvalues --  -10.30256 -10.28109 -10.27926  -1.18987  -1.15459
 Alpha  occ. eigenvalues --   -1.12959  -1.12585  -1.10742  -1.10431  -1.09816
 Alpha  occ. eigenvalues --   -1.08951  -1.08278  -1.05371  -1.04837  -1.02026
 Alpha  occ. eigenvalues --   -1.01264  -1.00320  -0.99353  -0.98334  -0.97359
 Alpha  occ. eigenvalues --   -0.96463  -0.96445  -0.92525  -0.90815  -0.87957
 Alpha  occ. eigenvalues --   -0.86184  -0.83959  -0.83410  -0.83212  -0.82393
 Alpha  occ. eigenvalues --   -0.81793  -0.78569  -0.77432  -0.75270  -0.74433
 Alpha  occ. eigenvalues --   -0.73331  -0.72945  -0.72632  -0.70872  -0.70672
 Alpha  occ. eigenvalues --   -0.67315  -0.67063  -0.66173  -0.66036  -0.64679
 Alpha  occ. eigenvalues --   -0.64215  -0.63545  -0.62488  -0.62453  -0.61464
 Alpha  occ. eigenvalues --   -0.60922  -0.60567  -0.60221  -0.59630  -0.59318
 Alpha  occ. eigenvalues --   -0.59185  -0.57973  -0.56617  -0.56310  -0.55675
 Alpha  occ. eigenvalues --   -0.55654  -0.55622  -0.55355  -0.54638  -0.54057
 Alpha  occ. eigenvalues --   -0.53987  -0.53469  -0.53420  -0.53097  -0.52843
 Alpha  occ. eigenvalues --   -0.52714  -0.52055  -0.51284  -0.50297  -0.50239
 Alpha  occ. eigenvalues --   -0.49955  -0.49767  -0.49652  -0.49075  -0.48632
 Alpha  occ. eigenvalues --   -0.48595  -0.48095  -0.47925  -0.47523  -0.47071
 Alpha  occ. eigenvalues --   -0.46517  -0.45678  -0.45344  -0.44266  -0.43639
 Alpha  occ. eigenvalues --   -0.41113  -0.40889  -0.39023  -0.38084  -0.37958
 Alpha  occ. eigenvalues --   -0.37176  -0.37093  -0.36593  -0.35439  -0.35108
 Alpha  occ. eigenvalues --   -0.34890  -0.33664  -0.33203  -0.33098  -0.32755
 Alpha  occ. eigenvalues --   -0.32444  -0.32307  -0.31745  -0.31706  -0.30550
 Alpha  occ. eigenvalues --   -0.30459  -0.30116  -0.25672  -0.25139
 Alpha virt. eigenvalues --    0.02844   0.04142   0.06361   0.08294   0.09033
 Alpha virt. eigenvalues --    0.09438   0.09972   0.10303   0.11239   0.11366
 Alpha virt. eigenvalues --    0.12968   0.14318   0.14751   0.14905   0.15202

 Mulliken charges:
               1
     1  N   -0.313516
     2  C    0.183745
     3  C    0.051979
     4  N   -0.260285
     5  C    0.140593
     6  H    0.026235
     7  N   -0.295625
     8  C    0.132122
     9  H    0.012276
    10  N   -0.280861
    11  C    0.262997
    12  C    0.101664
    13  N   -0.067886
    14  H    0.111118
    15  H    0.080300
    16  H    0.021273
    17  H    0.032039
    18  H    0.029924
    19  N   -0.309923
    20  C    0.248305
    21  C    0.180641
    22  N   -0.107008
    23  H    0.112245
    24  H    0.114126
    25  N   -0.310586
    26  C    0.234555
    27  N   -0.139954
    28  H    0.114600
    29  C    0.189746
    30  O   -0.322970
    31  C   -0.015461
    32  N   -0.226520
    33  C    0.128722
    34  H    0.021291
    35  H    0.028059
    36  H    0.028726
    37  H    0.024215
    38  H    0.055741
    39  H    0.060058
    40  H    0.074702
    41  H    0.029303
    42  C   -0.116700
    43  O   -0.260004
    44  C    0.174329
    45  H    0.133627
    46  N   -0.127767
    47  O   -0.344537
    48  C    0.348859
    49  H    0.042813
    50  C    0.161964
    51  C    0.038743
    52  N   -0.280923
    53  H    0.035415
    54  H    0.037532
    55  H    0.030730
    56  H    0.118483
    57  H    0.118387
    58  N   -0.060414
    59  C    0.082028
    60  C    0.255361
    61  N   -0.278933
    62  H    0.036181
    63  C    0.178141
    64  N   -0.311175
    65  H    0.039786
    66  C    0.139989
    67  N   -0.262276
    68  C    0.023524
    69  C    0.180283
    70  N   -0.314146
 Sum of Mulliken charges =  -0.00000

 Dipole moment (field-independent basis, Debye):
    X=             -9.0249    Y=              5.6914    Z=             -1.4861  Tot=             10.7726
 Quadrupole moment (field-independent basis, Debye-Ang):
   XX=           -167.1035   YY=           -211.9052   ZZ=           -252.8141
   XY=              6.4266   XZ=            -12.5717   YZ=              6.4002

 Normal termination of Gaussian 16 at Fri Jan 26 16:21:13 2018.
