 Gaussian 16, Revision A.03,
 Gaussian 16:  EM64L-G16RevA.03 25-Dec-2016

 ---------------------------------------
 #p wb97xd/cc-pvdz sp scf=(maxcycles=20)
 ---------------------------------------

 ------------------
 Base pair stacking
 ------------------
 Symbolic Z-matrix:
 Charge =  0 Multiplicity = 1

                         Standard orientation:
 ---------------------------------------------------------------------
 Center     Atomic      Atomic             Coordinates (Angstroms)
 Number     Number       Type             X           Y           Z
 ---------------------------------------------------------------------
      1          7           0        4.590684   -2.142599   -1.758375
      2          6           0        5.996868   -1.763771   -1.997441
      3          6           0        2.403627   -2.088327   -1.532219
      4          7           0        2.787731   -3.396938   -1.277834
      5          6           0        4.089976   -3.377263   -1.424264
      6          1           0        4.741087   -4.242925   -1.299266
      7          7           0        1.112982   -0.137273   -1.833222
      8          6           0        2.262866    0.490286   -2.100664
      9          1           0        2.171180    1.550897   -2.330779
     10          7           0        3.503171    0.006672   -2.126388
     11          6           0        3.504051   -1.303481   -1.829880
     12          6           0        1.147397   -1.455261   -1.538596
     13          7           0        0.000610   -2.083458   -1.271345
     14          1           0       -0.021247   -3.058619   -1.048197
     15          1           0       -0.875303   -1.601023   -1.285073
     16          1           0        6.363629   -2.300811   -2.757205
     17          1           0        6.047117   -0.791305   -2.223081
     18          1           0        6.536663   -1.941638   -1.174651
     19          7           0        4.501418    3.027908    0.856618
     20          6           0        3.193906    2.627016    0.989829
     21          6           0        4.946423    4.405156    0.563588
     22          7           0       -0.197539    3.375161    0.978429
     23          1           0       -1.060685    2.888597    1.110669
     24          1           0       -0.254055    4.355038    0.785126
     25          7           0        2.104758    3.417543    0.876323
     26          6           0        0.983160    2.742915    1.056609
     27          7           0        0.930058    1.397047    1.327438
     28          1           0        0.027558    0.964272    1.450534
     29          6           0        2.037924    0.564093    1.448642
     30          8           0        1.880465   -0.638086    1.695034
     31          6           0        3.250148    1.274607    1.257503
     32          7           0        4.566490    0.835308    1.291659
     33          6           0        5.271477    1.906921    1.049065
     34          1           0        6.360494    1.935618    0.999041
     35          1           0        5.462444    4.415500   -0.292223
     36          1           0        4.148177    4.999837    0.477349
     37          1           0        5.527485    4.734731    1.306930
     38          1           0       -4.772093   -0.708586    1.317666
     39          1           0       -4.627108   -0.634756    3.072141
     40          1           0       -3.737862    0.508826    2.065750
     41          1           0       -2.264802   -4.726455    2.164316
     42          6           0       -2.103094   -3.650052    2.105658
     43          8           0        0.254885   -3.828780    1.918319
     44          6           0       -0.769277   -3.148529    1.974332
     45          1           0        0.250118   -1.381051    1.815710
     46          7           0       -0.676440   -1.772913    1.908770
     47          8           0       -1.527441    0.332476    1.890500
     48          6           0       -1.709400   -0.870538    1.956166
     49          1           0       -4.164241   -3.125151    2.253901
     50          6           0       -3.131095   -2.794823    2.154621
     51          6           0       -4.100258   -0.505826    2.138394
     52          7           0       -2.965095   -1.431097    2.083519
     53          1           0       -5.510852    4.176800   -2.275693
     54          1           0       -4.143399    4.126329   -1.387100
     55          1           0       -5.592379    4.261023   -0.647913
     56          1           0       -3.579185   -2.872441   -0.994122
     57          1           0       -5.204375   -2.365114   -1.101225
     58          7           0       -4.234748   -2.120615   -1.065856
     59          6           0       -3.834759   -0.848203   -1.112365
     60          6           0       -4.150568    1.506116   -1.250809
     61          7           0       -2.841845    1.804843   -1.201449
     62          1           0       -1.035341    0.846899   -1.061849
     63          6           0       -2.112837    0.694619   -1.107376
     64          7           0       -2.511564   -0.580687   -1.060656
     65          1           0       -7.331761    2.051549   -1.437108
     66          6           0       -6.338019    1.608625   -1.364702
     67          7           0       -6.099393    0.322350   -1.285783
     68          6           0       -4.716197    0.243523   -1.213036
     69          6           0       -5.104704    3.854490   -1.420621
     70          7           0       -5.204166    2.383792   -1.348858
 ---------------------------------------------------------------------

 SCF Done:  E(RwB97XD) =  -2048.74811614     A.U. after   15 cycles

 The electronic state is 1-A.
 Alpha  occ. eigenvalues --  -19.25326 -19.21504 -19.20495 -14.52595 -14.51995
 Alpha  occ. eigenvalues --  -14.49064 -14.48840 -14.48007 -14.47292 -14.46713
 Alpha  occ. eigenvalues --  -14.46444 -14.45554 -14.44912 -14.44796 -14.42696
 Alpha  occ. eigenvalues --  -14.41961 -14.40964 -14.40681 -14.40571 -14.40225
 Alpha  occ. eigenvalues --  -10.44971 -10.41119 -10.40511 -10.39621 -10.38134
 Alpha  occ. eigenvalues --  -10.38126 -10.37600 -10.37506 -10.36245 -10.35392
 Alpha  occ. eigenvalues --  -10.34630 -10.34341 -10.33982 -10.33422 -10.33410
 Alpha  occ. eigenvalues --  -10.33011 -10.32824 -10.32765 -10.31020 -10.30891
 Alpha  occ. eigenvalues --  -10.30086 -10.28094 -10.28089  -1.18917  -1.15381
 Alpha  occ. eigenvalues --   -1.13093  -1.12512  -1.10665  -1.10576  -1.09856
 Alpha  occ. eigenvalues --   -1.08872  -1.08433  -1.05377  -1.04887  -1.01952
 Alpha  occ. eigenvalues --   -1.01184  -1.00376  -0.99564  -0.98471  -0.97370
 Alpha  occ. eigenvalues --   -0.96611  -0.96366  -0.92577  -0.90762  -0.87906
 Alpha  occ. eigenvalues --   -0.86087  -0.84119  -0.83351  -0.83148  -0.82528
 Alpha  occ. eigenvalues --   -0.81697  -0.78504  -0.77414  -0.75227  -0.74578
 Alpha  occ. eigenvalues --   -0.73491  -0.72889  -0.72624  -0.70847  -0.70661
 Alpha  occ. eigenvalues --   -0.67302  -0.67220  -0.66131  -0.66026  -0.64633
 Alpha  occ. eigenvalues --   -0.64284  -0.63561  -0.62527  -0.62480  -0.61647
 Alpha  occ. eigenvalues --   -0.60908  -0.60546  -0.60085  -0.59612  -0.59238
 Alpha  occ. eigenvalues --   -0.59155  -0.58175  -0.56688  -0.56321  -0.55669
 Alpha  occ. eigenvalues --   -0.55558  -0.55521  -0.55348  -0.54730  -0.54083
 Alpha  occ. eigenvalues --   -0.53915  -0.53504  -0.53427  -0.53070  -0.52898
 Alpha  occ. eigenvalues --   -0.52650  -0.52016  -0.51196  -0.50279  -0.50224
 Alpha  occ. eigenvalues --   -0.50037  -0.49723  -0.49533  -0.49068  -0.48686
 Alpha  occ. eigenvalues --   -0.48585  -0.48117  -0.47894  -0.47708  -0.47120
 Alpha  occ. eigenvalues --   -0.46495  -0.45641  -0.45347  -0.44434  -0.43600
 Alpha  occ. eigenvalues --   -0.41009  -0.40924  -0.39016  -0.38096  -0.37926
 Alpha  occ. eigenvalues --   -0.37272  -0.37215  -0.36615  -0.35405  -0.35136
 Alpha  occ. eigenvalues --   -0.34847  -0.33904  -0.33150  -0.33065  -0.32814
 Alpha  occ. eigenvalues --   -0.32488  -0.32476  -0.31826  -0.31618  -0.30557
 Alpha  occ. eigenvalues --   -0.30418  -0.30109  -0.25853  -0.25177
 Alpha virt. eigenvalues --    0.03051   0.04027   0.06530   0.08255   0.08979
 Alpha virt. eigenvalues --    0.09371   0.09845   0.10362   0.11222   0.11315
 Alpha virt. eigenvalues --    0.13379   0.14550   0.14591   0.14865   0.14954

 Mulliken charges:
               1
     1  N   -0.313149
     2  C    0.184249
     3  C    0.056594
     4  N   -0.258251
     5  C    0.142738
     6  H    0.026691
     7  N   -0.295262
     8  C    0.129616
     9  H    0.011952
    10  N   -0.279740
    11  C    0.261956
    12  C    0.093532
    13  N   -0.070562
    14  H    0.112530
    15  H    0.081366
    16  H    0.020317
    17  H    0.032219
    18  H    0.031269
    19  N   -0.310974
    20  C    0.250898
    21  C    0.180803
    22  N   -0.117812
    23  H    0.116469
    24  H    0.116251
    25  N   -0.311975
    26  C    0.244218
    27  N   -0.140362
    28  H    0.115631
    29  C    0.186166
    30  O   -0.321577
    31  C   -0.009234
    32  N   -0.230157
    33  C    0.126844
    34  H    0.022225
    35  H    0.027736
    36  H    0.029271
    37  H    0.024668
    38  H    0.056784
    39  H    0.059192
    40  H    0.075243
    41  H    0.028798
    42  C   -0.116929
    43  O   -0.257080
    44  C    0.168589
    45  H    0.135321
    46  N   -0.125960
    47  O   -0.347831
    48  C    0.353305
    49  H    0.041753
    50  C    0.160258
    51  C    0.038480
    52  N   -0.280387
    53  H    0.034747
    54  H    0.039168
    55  H    0.030453
    56  H    0.118079
    57  H    0.119543
    58  N   -0.062511
    59  C    0.076660
    60  C    0.252331
    61  N   -0.277112
    62  H    0.031083
    63  C    0.181679
    64  N   -0.313014
    65  H    0.039701
    66  C    0.141533
    67  N   -0.261547
    68  C    0.025666
    69  C    0.180422
    70  N   -0.313566
 Sum of Mulliken charges =  -0.00000

 Dipole moment (field-independent basis, Debye):
    X=             -8.8962    Y=              5.9283    Z=             -0.8330  Tot=             10.7229
 Quadrupole moment (field-independent basis, Debye-Ang):
   XX=           -170.4538   YY=           -211.1650   ZZ=           -251.0374
   XY=              6.9937   XZ=            -15.6062   YZ=              4.9134

 Normal termination of Gaussian 16 at Thu Jan 25 21:00:16 2018.
