 Gaussian 16, Revision A.03,
 Gaussian 16:  EM64L-G16RevA.03 25-Dec-2016

 ---------------------------------------
 #p wb97xd/cc-pvdz sp scf=(maxcycles=20)
 ---------------------------------------

 ------------------
 Base pair stacking
 ------------------
 Symbolic Z-matrix:
 Charge =  0 Multiplicity = 1

                         Standard orientation:
 ---------------------------------------------------------------------
 Center     Atomic      Atomic             Coordinates (Angstroms)
 Number     Number       Type             X           Y           Z
 ---------------------------------------------------------------------
      1          7           0        4.592974   -2.247049   -1.756952
      2          6           0        5.989081   -1.901293   -2.087633
      3          6           0        2.414226   -2.164737   -1.467878
      4          7           0        2.811741   -3.431047   -1.063919
      5          6           0        4.108452   -3.429951   -1.254250
      6          1           0        4.766813   -4.273074   -1.042956
      7          7           0        1.106513   -0.266923   -1.969000
      8          6           0        2.244514    0.322040   -2.350642
      9          1           0        2.141054    1.345347   -2.708967
     10          7           0        3.485294   -0.161002   -2.356074
     11          6           0        3.501179   -1.423530   -1.897600
     12          6           0        1.155871   -1.537455   -1.512514
     13          7           0        0.020951   -2.127071   -1.131078
     14          1           0        0.010351   -3.066480   -0.786667
     15          1           0       -0.856901   -1.650168   -1.176569
     16          1           0        6.333146   -2.529529   -2.785565
     17          1           0        6.028002   -0.964881   -2.435100
     18          1           0        6.556067   -1.974401   -1.267161
     19          7           0        4.489779    3.099765    0.841637
     20          6           0        3.184725    2.705124    1.012324
     21          6           0        4.935437    4.481431    0.571290
     22          7           0       -0.198211    3.478952    1.149177
     23          1           0       -1.060001    2.995345    1.299815
     24          1           0       -0.253422    4.464354    0.985969
     25          7           0        2.098972    3.506809    0.962140
     26          6           0        0.979075    2.835801    1.165134
     27          7           0        0.924474    1.483170    1.399504
     28          1           0        0.023482    1.053889    1.544020
     29          6           0        2.028851    0.638725    1.455480
     30          8           0        1.870299   -0.568789    1.673424
     31          6           0        3.239213    1.345229    1.239270
     32          7           0        4.552067    0.895174    1.211631
     33          6           0        5.256767    1.967930    0.973268
     34          1           0        6.343366    1.989807    0.883311
     35          1           0        5.419315    4.512380   -0.302618
     36          1           0        4.139713    5.084367    0.531896
     37          1           0        5.546600    4.785175    1.301377
     38          1           0       -4.792051   -0.578095    1.543680
     39          1           0       -4.581211   -0.555644    3.292874
     40          1           0       -3.720220    0.609531    2.286699
     41          1           0       -2.289753   -4.637423    2.181631
     42          6           0       -2.121060   -3.561040    2.147480
     43          8           0        0.226684   -3.752174    1.866952
     44          6           0       -0.788780   -3.066070    1.980543
     45          1           0        0.239228   -1.302545    1.834001
     46          7           0       -0.686568   -1.689881    1.950556
     47          8           0       -1.519448    0.421544    2.023844
     48          6           0       -1.709229   -0.781439    2.062154
     49          1           0       -4.170650   -3.025020    2.387639
     50          6           0       -3.139112   -2.699811    2.259125
     51          6           0       -4.088402   -0.404011    2.344084
     52          7           0       -2.964100   -1.335900    2.220532
     53          1           0       -5.545798    3.957576   -2.732338
     54          1           0       -4.149986    4.019080   -1.889710
     55          1           0       -5.574706    4.245607   -1.126210
     56          1           0       -3.544679   -2.874885   -0.639846
     57          1           0       -5.174556   -2.384997   -0.756495
     58          7           0       -4.205295   -2.138020   -0.783895
     59          6           0       -3.812246   -0.881540   -1.002866
     60          6           0       -4.142001    1.436752   -1.425376
     61          7           0       -2.833601    1.739273   -1.456819
     62          1           0       -1.019607    0.806408   -1.257318
     63          6           0       -2.097386    0.649640   -1.248035
     64          7           0       -2.489174   -0.609684   -1.028531
     65          1           0       -7.329775    1.954539   -1.574356
     66          6           0       -6.332404    1.524202   -1.479512
     67          7           0       -6.086084    0.258021   -1.247580
     68          6           0       -4.700938    0.188914   -1.210875
     69          6           0       -5.110753    3.745213   -1.857333
     70          7           0       -5.201817    2.295176   -1.598276
 ---------------------------------------------------------------------

 SCF Done:  E(RwB97XD) =  -2048.74561361     A.U. after   15 cycles

 The electronic state is 1-A.
 Alpha  occ. eigenvalues --  -19.25496 -19.21748 -19.20614 -14.52460 -14.52171
 Alpha  occ. eigenvalues --  -14.48961 -14.48896 -14.47830 -14.47460 -14.46893
 Alpha  occ. eigenvalues --  -14.46677 -14.45443 -14.44792 -14.44598 -14.42375
 Alpha  occ. eigenvalues --  -14.42098 -14.41080 -14.40440 -14.40395 -14.40022
 Alpha  occ. eigenvalues --  -10.45153 -10.41293 -10.40359 -10.39852 -10.38262
 Alpha  occ. eigenvalues --  -10.38026 -10.37849 -10.37358 -10.36046 -10.35158
 Alpha  occ. eigenvalues --  -10.34802 -10.34479 -10.33839 -10.33513 -10.33207
 Alpha  occ. eigenvalues --  -10.32894 -10.32636 -10.32600 -10.31110 -10.31106
 Alpha  occ. eigenvalues --  -10.29994 -10.28229 -10.27877  -1.19075  -1.15249
 Alpha  occ. eigenvalues --   -1.13241  -1.12751  -1.10707  -1.10473  -1.09719
 Alpha  occ. eigenvalues --   -1.09045  -1.08595  -1.05220  -1.04670  -1.02137
 Alpha  occ. eigenvalues --   -1.01056  -1.00142  -0.99767  -0.98616  -0.97213
 Alpha  occ. eigenvalues --   -0.96739  -0.96164  -0.92367  -0.90985  -0.87760
 Alpha  occ. eigenvalues --   -0.85944  -0.84253  -0.83311  -0.83171  -0.82647
 Alpha  occ. eigenvalues --   -0.81540  -0.78704  -0.77275  -0.75069  -0.74720
 Alpha  occ. eigenvalues --   -0.73672  -0.73080  -0.72415  -0.70697  -0.70471
 Alpha  occ. eigenvalues --   -0.67436  -0.67120  -0.66318  -0.65822  -0.64514
 Alpha  occ. eigenvalues --   -0.64410  -0.63723  -0.62665  -0.62269  -0.61821
 Alpha  occ. eigenvalues --   -0.60787  -0.60393  -0.59945  -0.59457  -0.59366
 Alpha  occ. eigenvalues --   -0.59233  -0.58383  -0.56772  -0.56131  -0.55811
 Alpha  occ. eigenvalues --   -0.55399  -0.55389  -0.55158  -0.54605  -0.54230
 Alpha  occ. eigenvalues --   -0.53794  -0.53624  -0.53538  -0.53048  -0.52936
 Alpha  occ. eigenvalues --   -0.52825  -0.52177  -0.51041  -0.50265  -0.50126
 Alpha  occ. eigenvalues --   -0.49965  -0.49590  -0.49450  -0.49191  -0.48814
 Alpha  occ. eigenvalues --   -0.48398  -0.48294  -0.48026  -0.47839  -0.47261
 Alpha  occ. eigenvalues --   -0.46325  -0.45664  -0.45336  -0.44391  -0.43746
 Alpha  occ. eigenvalues --   -0.40830  -0.40712  -0.39168  -0.37957  -0.37773
 Alpha  occ. eigenvalues --   -0.37383  -0.37348  -0.36448  -0.35551  -0.35042
 Alpha  occ. eigenvalues --   -0.34648  -0.34050  -0.33062  -0.32915  -0.32775
 Alpha  occ. eigenvalues --   -0.32654  -0.32606  -0.31949  -0.31869  -0.30422
 Alpha  occ. eigenvalues --   -0.30261  -0.29926  -0.25730  -0.25227
 Alpha virt. eigenvalues --    0.02822   0.04171   0.06686   0.08446   0.08822
 Alpha virt. eigenvalues --    0.09233   0.09723   0.10476   0.11231   0.11472
 Alpha virt. eigenvalues --    0.13525   0.14448   0.14647   0.14732   0.15129

 Mulliken charges:
               1
     1  N   -0.313001
     2  C    0.183688
     3  C    0.054990
     4  N   -0.254490
     5  C    0.142042
     6  H    0.025940
     7  N   -0.299365
     8  C    0.133000
     9  H    0.009855
    10  N   -0.283709
    11  C    0.260895
    12  C    0.096576
    13  N   -0.070323
    14  H    0.113312
    15  H    0.081702
    16  H    0.020452
    17  H    0.032028
    18  H    0.030331
    19  N   -0.311314
    20  C    0.250874
    21  C    0.180780
    22  N   -0.121595
    23  H    0.117563
    24  H    0.117285
    25  N   -0.312265
    26  C    0.248827
    27  N   -0.147649
    28  H    0.118969
    29  C    0.193627
    30  O   -0.321134
    31  C   -0.012424
    32  N   -0.229962
    33  C    0.127472
    34  H    0.023136
    35  H    0.027959
    36  H    0.029516
    37  H    0.025025
    38  H    0.055946
    39  H    0.059574
    40  H    0.075015
    41  H    0.029205
    42  C   -0.117101
    43  O   -0.255540
    44  C    0.162958
    45  H    0.135022
    46  N   -0.123912
    47  O   -0.349975
    48  C    0.353202
    49  H    0.041810
    50  C    0.158240
    51  C    0.039571
    52  N   -0.279484
    53  H    0.034329
    54  H    0.041131
    55  H    0.029584
    56  H    0.116912
    57  H    0.118421
    58  N   -0.063040
    59  C    0.084539
    60  C    0.251660
    61  N   -0.274769
    62  H    0.035647
    63  C    0.178951
    64  N   -0.316287
    65  H    0.039172
    66  C    0.141615
    67  N   -0.263651
    68  C    0.025930
    69  C    0.180006
    70  N   -0.313295
 Sum of Mulliken charges =  -0.00000

 Dipole moment (field-independent basis, Debye):
    X=             -8.8568    Y=              6.1357    Z=             -0.1303  Tot=             10.7753
 Quadrupole moment (field-independent basis, Debye-Ang):
   XX=           -170.8267   YY=           -210.7200   ZZ=           -249.1594
   XY=              6.3392   XZ=            -14.9752   YZ=              1.9795

 Normal termination of Gaussian 16 at Fri Jan 26 01:37:24 2018.
