 Gaussian 16, Revision A.03,
 Gaussian 16:  EM64L-G16RevA.03 25-Dec-2016

 ---------------------------------------
 #p wb97xd/cc-pvdz sp scf=(maxcycles=20)
 ---------------------------------------

 ------------------
 Base pair stacking
 ------------------
 Symbolic Z-matrix:
 Charge =  0 Multiplicity = 1

                         Standard orientation:
 ---------------------------------------------------------------------
 Center     Atomic      Atomic             Coordinates (Angstroms)
 Number     Number       Type             X           Y           Z
 ---------------------------------------------------------------------
      1          7           0        5.570661   -1.852374   -1.218655
      2          6           0        6.978487   -1.410334   -1.243958
      3          6           0        3.372253   -1.887111   -1.274462
      4          7           0        3.776119   -3.198923   -1.072535
      5          6           0        5.084413   -3.125495   -1.046999
      6          1           0        5.750509   -3.976982   -0.904761
      7          7           0        2.048685    0.039233   -1.591194
      8          6           0        3.195565    0.723090   -1.658881
      9          1           0        3.088933    1.795318   -1.817734
     10          7           0        4.448497    0.283399   -1.560261
     11          6           0        4.467293   -1.045709   -1.366493
     12          6           0        2.101282   -1.296443   -1.395526
     13          7           0        0.957518   -1.980830   -1.327671
     14          1           0        0.948883   -2.971020   -1.183937
     15          1           0        0.070769   -1.527366   -1.418159
     16          1           0        7.460961   -1.872160   -1.988341
     17          1           0        7.015692   -0.421711   -1.386673
     18          1           0        7.416750   -1.636546   -0.374044
     19          7           0        3.510160    3.081468    1.374718
     20          6           0        2.212837    2.630482    1.334491
     21          6           0        3.936844    4.475851    1.141602
     22          7           0       -1.173574    3.248833    0.874481
     23          1           0       -2.027334    2.729192    0.892067
     24          1           0       -1.241591    4.226617    0.674383
     25          7           0        1.118718    3.379363    1.077308
     26          6           0        0.009821    2.661742    1.108576
     27          7           0       -0.026950    1.313759    1.371422
     28          1           0       -0.920553    0.846393    1.374694
     29          6           0        1.086309    0.523163    1.638761
     30          8           0        0.943890   -0.685134    1.863441
     31          6           0        2.285033    1.280146    1.608653
     32          7           0        3.601208    0.891208    1.816831
     33          6           0        4.290457    1.989882    1.668354
     34          1           0        5.374636    2.060291    1.762571
     35          1           0        4.560555    4.509316    0.361426
     36          1           0        3.134780    5.040008    0.950062
     37          1           0        4.401635    4.824341    1.954827
     38          1           0       -5.592984   -1.007681    0.610811
     39          1           0       -5.683825   -0.935444    2.368985
     40          1           0       -4.713992    0.245260    1.487666
     41          1           0       -3.067299   -4.930414    1.785388
     42          6           0       -2.940636   -3.848402    1.747481
     43          8           0       -0.573462   -3.936341    1.873399
     44          6           0       -1.621367   -3.295870    1.792935
     45          1           0       -0.658438   -1.490184    1.768511
     46          7           0       -1.573465   -1.917454    1.738790
     47          8           0       -2.494655    0.154013    1.606082
     48          6           0       -2.637467   -1.055314    1.648387
     49          1           0       -5.021895   -3.403068    1.621639
     50          6           0       -3.998121   -3.033189    1.659345
     51          6           0       -5.043655   -0.782752    1.512868
     52          7           0       -3.876562   -1.663851    1.609365
     53          1           0       -4.642454    4.159056   -2.559680
     54          1           0       -3.397686    4.081126   -1.507736
     55          1           0       -4.933037    4.108893   -0.954540
     56          1           0       -2.591897   -2.904664   -1.577553
     57          1           0       -4.210444   -2.443030   -1.855580
     58          7           0       -3.264331   -2.171037   -1.676359
     59          6           0       -2.915935   -0.886797   -1.573862
     60          6           0       -3.311084    1.459607   -1.572897
     61          7           0       -2.033002    1.795416   -1.331765
     62          1           0       -0.219792    0.888099   -1.032316
     63          6           0       -1.275414    0.705319   -1.228564
     64          7           0       -1.622483   -0.581794   -1.330901
     65          1           0       -6.463262    1.915413   -2.128034
     66          6           0       -5.468842    1.500369   -1.961261
     67          7           0       -5.187884    0.220291   -1.949993
     68          6           0       -3.822959    0.180489   -1.704753
     69          6           0       -4.334618    3.782020   -1.686137
     70          7           0       -4.379996    2.307891   -1.739764
 ---------------------------------------------------------------------

 SCF Done:  E(RwB97XD) =  -2048.74180369     A.U. after   15 cycles

 The electronic state is 1-A.
 Alpha  occ. eigenvalues --  -19.25620 -19.21836 -19.20415 -14.52599 -14.52277
 Alpha  occ. eigenvalues --  -14.48599 -14.48576 -14.48275 -14.47641 -14.46649
 Alpha  occ. eigenvalues --  -14.45991 -14.45591 -14.44411 -14.44278 -14.42222
 Alpha  occ. eigenvalues --  -14.41737 -14.40948 -14.40611 -14.40522 -14.39993
 Alpha  occ. eigenvalues --  -10.45275 -10.40851 -10.40098 -10.39966 -10.38121
 Alpha  occ. eigenvalues --  -10.38001 -10.37789 -10.37284 -10.35735 -10.35195
 Alpha  occ. eigenvalues --  -10.34836 -10.34220 -10.34089 -10.33642 -10.33084
 Alpha  occ. eigenvalues --  -10.32912 -10.32761 -10.32730 -10.31105 -10.30819
 Alpha  occ. eigenvalues --  -10.30517 -10.28125 -10.27838  -1.19241  -1.15314
 Alpha  occ. eigenvalues --   -1.12974  -1.12849  -1.10867  -1.10385  -1.09450
 Alpha  occ. eigenvalues --   -1.09164  -1.08259  -1.05033  -1.04708  -1.02281
 Alpha  occ. eigenvalues --   -1.01146  -1.00179  -0.99333  -0.98319  -0.97006
 Alpha  occ. eigenvalues --   -0.96525  -0.96387  -0.92398  -0.90983  -0.87756
 Alpha  occ. eigenvalues --   -0.86124  -0.83873  -0.83504  -0.83373  -0.82327
 Alpha  occ. eigenvalues --   -0.81915  -0.78770  -0.77176  -0.75025  -0.74364
 Alpha  occ. eigenvalues --   -0.73355  -0.73154  -0.72598  -0.70730  -0.70574
 Alpha  occ. eigenvalues --   -0.67095  -0.67010  -0.66363  -0.66003  -0.64489
 Alpha  occ. eigenvalues --   -0.64273  -0.63593  -0.62537  -0.62426  -0.61412
 Alpha  occ. eigenvalues --   -0.60748  -0.60353  -0.60196  -0.59500  -0.59428
 Alpha  occ. eigenvalues --   -0.59329  -0.58003  -0.56616  -0.56257  -0.55879
 Alpha  occ. eigenvalues --   -0.55820  -0.55565  -0.55227  -0.54599  -0.54202
 Alpha  occ. eigenvalues --   -0.54020  -0.53475  -0.53388  -0.53116  -0.52794
 Alpha  occ. eigenvalues --   -0.52695  -0.52182  -0.51390  -0.50342  -0.50016
 Alpha  occ. eigenvalues --   -0.49905  -0.49772  -0.49514  -0.49151  -0.48638
 Alpha  occ. eigenvalues --   -0.48617  -0.48130  -0.47913  -0.47443  -0.47159
 Alpha  occ. eigenvalues --   -0.46537  -0.45656  -0.45193  -0.44392  -0.43783
 Alpha  occ. eigenvalues --   -0.40982  -0.40782  -0.39261  -0.37906  -0.37798
 Alpha  occ. eigenvalues --   -0.37054  -0.36972  -0.36738  -0.35618  -0.35000
 Alpha  occ. eigenvalues --   -0.34562  -0.33351  -0.33199  -0.32971  -0.32796
 Alpha  occ. eigenvalues --   -0.32465  -0.32188  -0.31885  -0.31661  -0.30547
 Alpha  occ. eigenvalues --   -0.30202  -0.30098  -0.25599  -0.24915
 Alpha virt. eigenvalues --    0.02863   0.04107   0.06839   0.08325   0.08603
 Alpha virt. eigenvalues --    0.09421   0.09993   0.10419   0.11417   0.11546
 Alpha virt. eigenvalues --    0.12286   0.14068   0.14743   0.14786   0.15198

 Mulliken charges:
               1
     1  N   -0.313501
     2  C    0.182220
     3  C    0.044904
     4  N   -0.260264
     5  C    0.137082
     6  H    0.025679
     7  N   -0.297331
     8  C    0.140670
     9  H    0.009439
    10  N   -0.286758
    11  C    0.259687
    12  C    0.114262
    13  N   -0.060992
    14  H    0.109866
    15  H    0.081703
    16  H    0.023034
    17  H    0.032044
    18  H    0.027789
    19  N   -0.309909
    20  C    0.243753
    21  C    0.180719
    22  N   -0.087683
    23  H    0.110436
    24  H    0.112032
    25  N   -0.306717
    26  C    0.218727
    27  N   -0.147935
    28  H    0.125798
    29  C    0.186013
    30  O   -0.323124
    31  C   -0.010064
    32  N   -0.223851
    33  C    0.131147
    34  H    0.021959
    35  H    0.028569
    36  H    0.028059
    37  H    0.024051
    38  H    0.058426
    39  H    0.059568
    40  H    0.073454
    41  H    0.030275
    42  C   -0.115493
    43  O   -0.262199
    44  C    0.172490
    45  H    0.132505
    46  N   -0.124511
    47  O   -0.342452
    48  C    0.339337
    49  H    0.045298
    50  C    0.162616
    51  C    0.040870
    52  N   -0.282991
    53  H    0.036823
    54  H    0.035643
    55  H    0.029547
    56  H    0.119939
    57  H    0.115978
    58  N   -0.060501
    59  C    0.084431
    60  C    0.247953
    61  N   -0.277819
    62  H    0.048559
    63  C    0.158215
    64  N   -0.302861
    65  H    0.038165
    66  C    0.138109
    67  N   -0.266418
    68  C    0.032735
    69  C    0.177541
    70  N   -0.314747
 Sum of Mulliken charges =  -0.00000

 Dipole moment (field-independent basis, Debye):
    X=             -9.0249    Y=              5.4617    Z=             -2.0737  Tot=             10.7508
 Quadrupole moment (field-independent basis, Debye-Ang):
   XX=           -161.8435   YY=           -212.6341   ZZ=           -254.1315
   XY=              4.9189   XZ=             -4.9720   YZ=              7.2006

 Normal termination of Gaussian 16 at Fri Jan 26 14:50:16 2018.
