 Gaussian 16, Revision A.03,
 Gaussian 16:  EM64L-G16RevA.03 25-Dec-2016

 ---------------------------------------
 #p wb97xd/cc-pvdz sp scf=(maxcycles=20)
 ---------------------------------------

 ------------------
 Base pair stacking
 ------------------
 Symbolic Z-matrix:
 Charge =  0 Multiplicity = 1

                         Standard orientation:
 ---------------------------------------------------------------------
 Center     Atomic      Atomic             Coordinates (Angstroms)
 Number     Number       Type             X           Y           Z
 ---------------------------------------------------------------------
      1          7           0        4.270460   -2.112724   -1.852004
      2          6           0        5.683091   -1.730807   -2.043347
      3          6           0        2.083792   -2.050733   -1.623994
      4          7           0        2.446763   -3.385988   -1.523555
      5          6           0        3.749625   -3.369892   -1.664939
      6          1           0        4.386832   -4.254384   -1.640954
      7          7           0        0.824515   -0.057791   -1.696966
      8          6           0        1.984827    0.578481   -1.887797
      9          1           0        1.910318    1.660011   -1.992692
     10          7           0        3.217557    0.081680   -1.968134
     11          6           0        3.197197   -1.253971   -1.826543
     12          6           0        0.837549   -1.401534   -1.558118
     13          7           0       -0.319676   -2.038463   -1.367545
     14          1           0       -0.357345   -3.032536   -1.259754
     15          1           0       -1.187949   -1.543979   -1.326047
     16          1           0        6.043896   -2.181250   -2.860105
     17          1           0        5.749124   -0.739573   -2.153890
     18          1           0        6.217459   -2.011941   -1.246217
     19          7           0        4.813184    2.924545    0.675591
     20          6           0        3.503813    2.532118    0.815555
     21          6           0        5.263675    4.288806    0.334218
     22          7           0        0.114529    3.287685    0.755312
     23          1           0       -0.750709    2.808514    0.900236
     24          1           0        0.061827    4.259810    0.525291
     25          7           0        2.417508    3.320544    0.665936
     26          6           0        1.293018    2.655873    0.864296
     27          7           0        1.234649    1.321174    1.184737
     28          1           0        0.330243    0.895509    1.318290
     29          6           0        2.339495    0.490589    1.343737
     30          8           0        2.177303   -0.701184    1.633765
     31          6           0        3.554787    1.190494    1.133767
     32          7           0        4.869698    0.749530    1.192400
     33          6           0        5.579042    1.809608    0.914425
     34          1           0        6.668409    1.833749    0.870102
     35          1           0        5.784922    4.265987   -0.518184
     36          1           0        4.467579    4.881829    0.220950
     37          1           0        5.841090    4.644423    1.068340
     38          1           0       -4.472987   -0.769297    1.218140
     39          1           0       -4.338492   -0.630489    2.969504
     40          1           0       -3.440062    0.472602    1.926730
     41          1           0       -1.981734   -4.758988    2.229372
     42          6           0       -1.816775   -3.685922    2.131659
     43          8           0        0.541810   -3.877315    1.965689
     44          6           0       -0.480837   -3.192935    1.989987
     45          1           0        0.544265   -1.435107    1.771949
     46          7           0       -0.383897   -1.820948    1.873803
     47          8           0       -1.229090    0.284395    1.771857
     48          6           0       -1.414700   -0.914885    1.881158
     49          1           0       -3.877368   -3.150783    2.247486
     50          6           0       -2.842756   -2.826935    2.142366
     51          6           0       -3.805628   -0.537739    2.034884
     52          7           0       -2.672645   -1.467215    2.021541
     53          1           0       -5.730238    4.382317   -1.641793
     54          1           0       -4.366538    4.206958   -0.763333
     55          1           0       -5.815592    4.277322   -0.015419
     56          1           0       -3.912124   -2.797869   -1.189081
     57          1           0       -5.528910   -2.255957   -1.238421
     58          7           0       -4.555717   -2.032570   -1.173463
     59          6           0       -4.135924   -0.769894   -1.070621
     60          6           0       -4.414760    1.589191   -0.933774
     61          7           0       -3.101727    1.859447   -0.848136
     62          1           0       -1.310738    0.863396   -0.818877
     63          6           0       -2.390307    0.734470   -0.883306
     64          7           0       -2.808913   -0.531129   -0.986278
     65          1           0       -7.586506    2.202711   -1.059402
     66          6           0       -6.599987    1.738758   -1.037853
     67          7           0       -6.381572    0.448452   -1.109275
     68          6           0       -5.000011    0.339883   -1.044372
     69          6           0       -5.331838    3.956082   -0.829635
     70          7           0       -5.454313    2.488801   -0.930140
 ---------------------------------------------------------------------

 SCF Done:  E(RwB97XD) =  -2048.74699901     A.U. after   15 cycles

 The electronic state is 1-A.
 Alpha  occ. eigenvalues --  -19.25114 -19.21167 -19.20479 -14.52677 -14.51695
 Alpha  occ. eigenvalues --  -14.49275 -14.48813 -14.48201 -14.47036 -14.46564
 Alpha  occ. eigenvalues --  -14.46343 -14.45600 -14.45083 -14.45028 -14.43178
 Alpha  occ. eigenvalues --  -14.41928 -14.40990 -14.40949 -14.40920 -14.40587
 Alpha  occ. eigenvalues --  -10.44698 -10.41021 -10.40694 -10.39292 -10.38173
 Alpha  occ. eigenvalues --  -10.38051 -10.37673 -10.37261 -10.36463 -10.35768
 Alpha  occ. eigenvalues --  -10.34254 -10.34248 -10.34042 -10.33671 -10.33425
 Alpha  occ. eigenvalues --  -10.33131 -10.33103 -10.33033 -10.31014 -10.30580
 Alpha  occ. eigenvalues --  -10.30046 -10.28430 -10.28022  -1.18692  -1.15483
 Alpha  occ. eigenvalues --   -1.13034  -1.12190  -1.10900  -1.10542  -1.10077
 Alpha  occ. eigenvalues --   -1.08592  -1.08361  -1.05585  -1.05258  -1.01676
 Alpha  occ. eigenvalues --   -1.01270  -1.00771  -0.99472  -0.98411  -0.97578
 Alpha  occ. eigenvalues --   -0.96602  -0.96575  -0.92941  -0.90442  -0.88056
 Alpha  occ. eigenvalues --   -0.86178  -0.84081  -0.83594  -0.82882  -0.82483
 Alpha  occ. eigenvalues --   -0.81830  -0.78212  -0.77573  -0.75401  -0.74517
 Alpha  occ. eigenvalues --   -0.73398  -0.72939  -0.72614  -0.71074  -0.70907
 Alpha  occ. eigenvalues --   -0.67430  -0.67172  -0.66329  -0.65872  -0.64773
 Alpha  occ. eigenvalues --   -0.64184  -0.63362  -0.62808  -0.62419  -0.61574
 Alpha  occ. eigenvalues --   -0.61046  -0.60733  -0.60170  -0.59861  -0.59096
 Alpha  occ. eigenvalues --   -0.58937  -0.58076  -0.56789  -0.56519  -0.55835
 Alpha  occ. eigenvalues --   -0.55604  -0.55564  -0.55514  -0.55043  -0.54048
 Alpha  occ. eigenvalues --   -0.53912  -0.53561  -0.53227  -0.53175  -0.52812
 Alpha  occ. eigenvalues --   -0.52315  -0.51801  -0.51348  -0.50435  -0.50369
 Alpha  occ. eigenvalues --   -0.50023  -0.49894  -0.49402  -0.48914  -0.48826
 Alpha  occ. eigenvalues --   -0.48616  -0.47912  -0.47724  -0.47590  -0.47001
 Alpha  occ. eigenvalues --   -0.46725  -0.45627  -0.45390  -0.44666  -0.43283
 Alpha  occ. eigenvalues --   -0.41244  -0.41124  -0.38877  -0.38239  -0.38079
 Alpha  occ. eigenvalues --   -0.37303  -0.37161  -0.36845  -0.35436  -0.35112
 Alpha  occ. eigenvalues --   -0.35051  -0.33984  -0.33451  -0.33276  -0.32789
 Alpha  occ. eigenvalues --   -0.32510  -0.32254  -0.31766  -0.31189  -0.30713
 Alpha  occ. eigenvalues --   -0.30573  -0.30342  -0.26280  -0.25055
 Alpha virt. eigenvalues --    0.03521   0.03670   0.06513   0.07966   0.09055
 Alpha virt. eigenvalues --    0.09368   0.09855   0.10260   0.10889   0.11400
 Alpha virt. eigenvalues --    0.13602   0.14564   0.14579   0.14670   0.14884

 Mulliken charges:
               1
     1  N   -0.312597
     2  C    0.185411
     3  C    0.063671
     4  N   -0.261556
     5  C    0.145732
     6  H    0.028267
     7  N   -0.288483
     8  C    0.119400
     9  H    0.017535
    10  N   -0.271272
    11  C    0.259993
    12  C    0.079580
    13  N   -0.071626
    14  H    0.109868
    15  H    0.083028
    16  H    0.019149
    17  H    0.032957
    18  H    0.034145
    19  N   -0.311044
    20  C    0.248016
    21  C    0.181131
    22  N   -0.116354
    23  H    0.119889
    24  H    0.116309
    25  N   -0.307985
    26  C    0.228069
    27  N   -0.125849
    28  H    0.115907
    29  C    0.165640
    30  O   -0.319741
    31  C    0.009289
    32  N   -0.232817
    33  C    0.123428
    34  H    0.021970
    35  H    0.026940
    36  H    0.029330
    37  H    0.024654
    38  H    0.059513
    39  H    0.056764
    40  H    0.077129
    41  H    0.028116
    42  C   -0.115505
    43  O   -0.257826
    44  C    0.171914
    45  H    0.136558
    46  N   -0.127619
    47  O   -0.347464
    48  C    0.354810
    49  H    0.041795
    50  C    0.161561
    51  C    0.038179
    52  N   -0.280332
    53  H    0.034630
    54  H    0.038074
    55  H    0.031612
    56  H    0.117745
    57  H    0.121331
    58  N   -0.061627
    59  C    0.055775
    60  C    0.247408
    61  N   -0.277559
    62  H    0.017815
    63  C    0.189530
    64  N   -0.306488
    65  H    0.040193
    66  C    0.142660
    67  N   -0.259123
    68  C    0.032663
    69  C    0.181078
    70  N   -0.313292
 Sum of Mulliken charges =  -0.00000

 Dipole moment (field-independent basis, Debye):
    X=             -8.8500    Y=              5.8572    Z=             -1.3064  Tot=             10.6928
 Quadrupole moment (field-independent basis, Debye-Ang):
   XX=           -173.2847   YY=           -211.7886   ZZ=           -251.3351
   XY=              8.5428   XZ=            -19.0076   YZ=              7.4670

 Normal termination of Gaussian 16 at Fri Jan 26 02:00:19 2018.
