 Gaussian 16, Revision A.03,
 Gaussian 16:  EM64L-G16RevA.03 25-Dec-2016

 ---------------------------------------
 #p wb97xd/cc-pvdz sp scf=(maxcycles=20)
 ---------------------------------------

 ------------------
 Base pair stacking
 ------------------
 Symbolic Z-matrix:
 Charge =  0 Multiplicity = 1

                         Standard orientation:
 ---------------------------------------------------------------------
 Center     Atomic      Atomic             Coordinates (Angstroms)
 Number     Number       Type             X           Y           Z
 ---------------------------------------------------------------------
      1          7           0       -6.159260   -1.706171    0.802791
      2          6           0       -7.558275   -1.244041    0.717996
      3          6           0       -3.971122   -1.770259    1.015549
      4          7           0       -4.380078   -3.080687    0.814903
      5          6           0       -5.681980   -2.989624    0.694753
      6          1           0       -6.349539   -3.834835    0.524632
      7          7           0       -2.643410    0.144320    1.382311
      8          6           0       -3.781405    0.845529    1.352912
      9          1           0       -3.669580    1.919589    1.494852
     10          7           0       -5.030917    0.421165    1.175329
     11          6           0       -5.056669   -0.911735    1.010579
     12          6           0       -2.702842   -1.194719    1.213410
     13          7           0       -1.567954   -1.896398    1.242434
     14          1           0       -1.564615   -2.889725    1.121922
     15          1           0       -0.682870   -1.453366    1.385555
     16          1           0       -8.099371   -1.681490    1.436353
     17          1           0       -7.590071   -0.251916    0.835491
     18          1           0       -7.937345   -1.484488   -0.175589
     19          7           0       -2.854640    3.056853   -1.630229
     20          6           0       -1.570605    2.588881   -1.487740
     21          6           0       -3.274964    4.462144   -1.459375
     22          7           0        1.783984    3.170536   -0.802064
     23          1           0        2.628643    2.638759   -0.747231
     24          1           0        1.852904    4.151694   -0.619621
     25          7           0       -0.485893    3.328249   -1.170256
     26          6           0        0.611117    2.594685   -1.106493
     27          7           0        0.645381    1.240510   -1.335755
     28          1           0        1.529579    0.760769   -1.264987
     29          6           0       -0.458356    0.459470   -1.663782
     30          8           0       -0.319248   -0.755630   -1.850603
     31          6           0       -1.644268    1.233609   -1.735985
     32          7           0       -2.948303    0.858309   -2.028453
     33          6           0       -3.629130    1.969681   -1.954052
     34          1           0       -4.702683    2.052974   -2.126684
     35          1           0       -3.951728    4.522623   -0.726485
     36          1           0       -2.479769    5.019394   -1.223996
     37          1           0       -3.675544    4.797897   -2.311215
     38          1           0        6.106755   -1.139887   -0.129358
     39          1           0        6.322917   -1.110239   -1.877799
     40          1           0        5.311668    0.104258   -1.094397
     41          1           0        3.609691   -5.053482   -1.392289
     42          6           0        3.497543   -3.969217   -1.387757
     43          8           0        1.144127   -4.027047   -1.679702
     44          6           0        2.193567   -3.399553   -1.539310
     45          1           0        1.259600   -1.580526   -1.623933
     46          7           0        2.163455   -2.019712   -1.519630
     47          8           0        3.105125    0.041241   -1.368260
     48          6           0        3.231693   -1.170621   -1.373166
     49          1           0        5.571368   -3.550153   -1.124261
     50          6           0        4.558721   -3.167007   -1.242963
     51          6           0        5.626222   -0.928564   -1.073025
     52          7           0        4.455291   -1.795310   -1.232484
     53          1           0        4.025816    4.191961    2.731513
     54          1           0        2.857557    4.106723    1.595726
     55          1           0        4.428445    4.100059    1.152628
     56          1           0        1.940032   -2.863564    1.764750
     57          1           0        3.541844   -2.418175    2.146747
     58          7           0        2.615152   -2.137285    1.894644
     59          6           0        2.294944   -0.851060    1.738860
     60          6           0        2.725703    1.488921    1.713352
     61          7           0        1.473272    1.836793    1.374470
     62          1           0       -0.328112    0.948081    0.967266
     63          6           0        0.707997    0.755243    1.242135
     64          7           0        1.026843   -0.533822    1.397752
     65          1           0        5.837408    1.913593    2.480890
     66          6           0        4.850934    1.508678    2.253177
     67          7           0        4.551550    0.232725    2.250662
     68          6           0        3.206959    0.206242    1.909936
     69          6           0        3.774736    3.798850    1.846969
     70          7           0        3.793219    2.325887    1.936739
 ---------------------------------------------------------------------

 SCF Done:  E(RwB97XD) =  -2048.72887630     A.U. after   15 cycles

 The electronic state is 1-A.
 Alpha  occ. eigenvalues --  -19.25921 -19.22046 -19.20654 -14.52462 -14.52293
 Alpha  occ. eigenvalues --  -14.48769 -14.48495 -14.48019 -14.47865 -14.46863
 Alpha  occ. eigenvalues --  -14.46359 -14.45241 -14.43790 -14.43363 -14.42132
 Alpha  occ. eigenvalues --  -14.42071 -14.41169 -14.40750 -14.40637 -14.39955
 Alpha  occ. eigenvalues --  -10.45516 -10.41044 -10.40159 -10.39520 -10.38202
 Alpha  occ. eigenvalues --  -10.37900 -10.37739 -10.36752 -10.35220 -10.35217
 Alpha  occ. eigenvalues --  -10.35001 -10.34333 -10.34130 -10.33843 -10.33230
 Alpha  occ. eigenvalues --  -10.33088 -10.32850 -10.32213 -10.31230 -10.30932
 Alpha  occ. eigenvalues --  -10.30733 -10.28273 -10.28089  -1.19482  -1.14944
 Alpha  occ. eigenvalues --   -1.13261  -1.13065  -1.11075  -1.10591  -1.09355
 Alpha  occ. eigenvalues --   -1.08966  -1.08501  -1.04756  -1.04470  -1.02500
 Alpha  occ. eigenvalues --   -1.00811  -1.00233  -0.99737  -0.98571  -0.96766
 Alpha  occ. eigenvalues --   -0.96577  -0.96369  -0.92422  -0.91116  -0.87370
 Alpha  occ. eigenvalues --   -0.85865  -0.84090  -0.83685  -0.83538  -0.82508
 Alpha  occ. eigenvalues --   -0.82083  -0.78930  -0.76749  -0.74654  -0.74512
 Alpha  occ. eigenvalues --   -0.73652  -0.73367  -0.72692  -0.70823  -0.70192
 Alpha  occ. eigenvalues --   -0.67379  -0.66595  -0.66535  -0.66105  -0.64467
 Alpha  occ. eigenvalues --   -0.64089  -0.63771  -0.62793  -0.62511  -0.61753
 Alpha  occ. eigenvalues --   -0.60417  -0.60200  -0.60031  -0.59542  -0.59447
 Alpha  occ. eigenvalues --   -0.59245  -0.58337  -0.56838  -0.56346  -0.56118
 Alpha  occ. eigenvalues --   -0.56016  -0.55478  -0.55219  -0.54866  -0.54371
 Alpha  occ. eigenvalues --   -0.53882  -0.53659  -0.53132  -0.52982  -0.52947
 Alpha  occ. eigenvalues --   -0.52451  -0.52316  -0.51546  -0.50492  -0.50172
 Alpha  occ. eigenvalues --   -0.49986  -0.49446  -0.49417  -0.48917  -0.48817
 Alpha  occ. eigenvalues --   -0.48627  -0.48290  -0.48203  -0.47952  -0.47383
 Alpha  occ. eigenvalues --   -0.46688  -0.45811  -0.44800  -0.44115  -0.43973
 Alpha  occ. eigenvalues --   -0.40908  -0.40520  -0.39479  -0.37773  -0.37493
 Alpha  occ. eigenvalues --   -0.37265  -0.36936  -0.36809  -0.35911  -0.34829
 Alpha  occ. eigenvalues --   -0.34152  -0.33373  -0.33286  -0.33199  -0.32651
 Alpha  occ. eigenvalues --   -0.32449  -0.32343  -0.32027  -0.31812  -0.30600
 Alpha  occ. eigenvalues --   -0.30169  -0.29419  -0.25805  -0.25079
 Alpha virt. eigenvalues --    0.02974   0.04405   0.07481   0.08243   0.08364
 Alpha virt. eigenvalues --    0.09243   0.09541   0.10905   0.11384   0.11713
 Alpha virt. eigenvalues --    0.12276   0.13986   0.14414   0.14602   0.15068

 Mulliken charges:
               1
     1  N   -0.312618
     2  C    0.181480
     3  C    0.039320
     4  N   -0.260169
     5  C    0.134784
     6  H    0.025800
     7  N   -0.292600
     8  C    0.143051
     9  H    0.006544
    10  N   -0.292149
    11  C    0.251521
    12  C    0.122343
    13  N   -0.058274
    14  H    0.109321
    15  H    0.085081
    16  H    0.024211
    17  H    0.032845
    18  H    0.026719
    19  N   -0.311730
    20  C    0.245114
    21  C    0.181106
    22  N   -0.087829
    23  H    0.113597
    24  H    0.112684
    25  N   -0.299109
    26  C    0.211524
    27  N   -0.129049
    28  H    0.118030
    29  C    0.161666
    30  O   -0.318295
    31  C    0.010212
    32  N   -0.224155
    33  C    0.127839
    34  H    0.026337
    35  H    0.028724
    36  H    0.027950
    37  H    0.024655
    38  H    0.062558
    39  H    0.057899
    40  H    0.073930
    41  H    0.031375
    42  C   -0.111697
    43  O   -0.263042
    44  C    0.167643
    45  H    0.133354
    46  N   -0.126615
    47  O   -0.345881
    48  C    0.348594
    49  H    0.047643
    50  C    0.164442
    51  C    0.041736
    52  N   -0.289069
    53  H    0.037849
    54  H    0.036165
    55  H    0.026576
    56  H    0.124112
    57  H    0.115315
    58  N   -0.066276
    59  C    0.079023
    60  C    0.222299
    61  N   -0.266829
    62  H    0.038847
    63  C    0.168464
    64  N   -0.301260
    65  H    0.034803
    66  C    0.135487
    67  N   -0.267916
    68  C    0.048679
    69  C    0.168742
    70  N   -0.313431
 Sum of Mulliken charges =  -0.00000

 Dipole moment (field-independent basis, Debye):
    X=              8.7406    Y=              5.3060    Z=              2.3575  Tot=             10.4933
 Quadrupole moment (field-independent basis, Debye-Ang):
   XX=           -158.0490   YY=           -213.4543   ZZ=           -254.0135
   XY=             -3.7866   XZ=              2.6657   YZ=             -8.6466

 Normal termination of Gaussian 16 at Fri Jan 26 14:38:50 2018.
