 Gaussian 16, Revision A.03,
 Gaussian 16:  EM64L-G16RevA.03 25-Dec-2016

 ---------------------------------------
 #p wb97xd/cc-pvdz sp scf=(maxcycles=20)
 ---------------------------------------

 ------------------
 Base pair stacking
 ------------------
 Symbolic Z-matrix:
 Charge =  0 Multiplicity = 1

                         Standard orientation:
 ---------------------------------------------------------------------
 Center     Atomic      Atomic             Coordinates (Angstroms)
 Number     Number       Type             X           Y           Z
 ---------------------------------------------------------------------
      1          7           0        5.532925   -1.793965   -1.222310
      2          6           0        6.938120   -1.353653   -1.124614
      3          6           0        3.337875   -1.819300   -1.358076
      4          7           0        3.742594   -3.146268   -1.366907
      5          6           0        5.048831   -3.077895   -1.284762
      6          1           0        5.714877   -3.941000   -1.265714
      7          7           0        2.014145    0.132538   -1.389920
      8          6           0        3.158517    0.818283   -1.302033
      9          1           0        3.050850    1.901911   -1.281096
     10          7           0        4.410057    0.368551   -1.236426
     11          6           0        4.430315   -0.974183   -1.269329
     12          6           0        2.068155   -1.216984   -1.420918
     13          7           0        0.926885   -1.903271   -1.508626
     14          1           0        0.919374   -2.903510   -1.534525
     15          1           0        0.040966   -1.441255   -1.551408
     16          1           0        7.448067   -1.682952   -1.919411
     17          1           0        6.974160   -0.355122   -1.096995
     18          1           0        7.348302   -1.723482   -0.290959
     19          7           0        3.568316    2.972004    1.300287
     20          6           0        2.271343    2.524558    1.224820
     21          6           0        4.015512    4.347536    1.002614
     22          7           0       -1.084454    3.126678    0.563133
     23          1           0       -1.941673    2.612531    0.571150
     24          1           0       -1.135878    4.090443    0.299994
     25          7           0        1.196213    3.260408    0.868924
     26          6           0        0.082103    2.550528    0.890384
     27          7           0        0.023241    1.221579    1.233810
     28          1           0       -0.872715    0.758872    1.222389
     29          6           0        1.116721    0.444651    1.603339
     30          8           0        0.955158   -0.746818    1.894958
     31          6           0        2.320765    1.193533    1.585001
     32          7           0        3.622570    0.813008    1.880636
     33          6           0        4.325861    1.897616    1.698385
     34          1           0        5.404679    1.969408    1.840769
     35          1           0        4.676449    4.330096    0.253175
     36          1           0        3.227620    4.901926    0.737790
     37          1           0        4.442847    4.743913    1.814459
     38          1           0       -5.515565   -1.120366    0.347707
     39          1           0       -5.690839   -0.938932    2.091552
     40          1           0       -4.671281    0.181007    1.187346
     41          1           0       -3.077118   -4.972777    1.883765
     42          6           0       -2.941214   -3.895705    1.785371
     43          8           0       -0.583571   -3.985100    2.031623
     44          6           0       -1.621856   -3.346677    1.860851
     45          1           0       -0.646279   -1.549828    1.771958
     46          7           0       -1.561764   -1.974469    1.724123
     47          8           0       -2.460971    0.088440    1.419126
     48          6           0       -2.614094   -1.115363    1.528973
     49          1           0       -5.010793   -3.450749    1.531064
     50          6           0       -3.987476   -3.083324    1.595683
     51          6           0       -5.008957   -0.842150    1.259851
     52          7           0       -3.854086   -1.720216    1.467276
     53          1           0       -4.665328    4.355133   -1.876350
     54          1           0       -3.456114    4.100892   -0.810856
     55          1           0       -5.009298    4.034416   -0.313575
     56          1           0       -2.606540   -2.772465   -2.031735
     57          1           0       -4.217582   -2.270889   -2.282832
     58          7           0       -3.279672   -2.032861   -2.028108
     59          6           0       -2.942622   -0.784309   -1.698429
     60          6           0       -3.351649    1.528090   -1.314752
     61          7           0       -2.084410    1.818651   -0.976958
     62          1           0       -0.276863    0.874220   -0.773387
     63          6           0       -1.324188    0.726969   -1.033541
     64          7           0       -1.659901   -0.524428   -1.363510
     65          1           0       -6.486107    2.070373   -1.892064
     66          6           0       -5.495370    1.633369   -1.763977
     67          7           0       -5.207267    0.369851   -1.959436
     68          6           0       -3.851124    0.289521   -1.678060
     69          6           0       -4.384718    3.836005   -1.069039
     70          7           0       -4.419426    2.392112   -1.372318
 ---------------------------------------------------------------------

 SCF Done:  E(RwB97XD) =  -2048.69516799     A.U. after   15 cycles

 The electronic state is 1-A.
 Alpha  occ. eigenvalues --  -19.25443 -19.21609 -19.20167 -14.53007 -14.52166
 Alpha  occ. eigenvalues --  -14.48922 -14.48424 -14.48248 -14.47494 -14.46134
 Alpha  occ. eigenvalues --  -14.45862 -14.44693 -14.44387 -14.43946 -14.42568
 Alpha  occ. eigenvalues --  -14.41160 -14.41149 -14.40621 -14.40215 -14.40136
 Alpha  occ. eigenvalues --  -10.45126 -10.40452 -10.40186 -10.39748 -10.38415
 Alpha  occ. eigenvalues --  -10.37689 -10.37600 -10.37571 -10.35978 -10.35418
 Alpha  occ. eigenvalues --  -10.34789 -10.34763 -10.33817 -10.33662 -10.33060
 Alpha  occ. eigenvalues --  -10.32999 -10.32804 -10.32714 -10.30926 -10.30606
 Alpha  occ. eigenvalues --  -10.30567 -10.28303 -10.27374  -1.19162  -1.15694
 Alpha  occ. eigenvalues --   -1.12696  -1.12636  -1.11025  -1.10089  -1.09829
 Alpha  occ. eigenvalues --   -1.09043  -1.07940  -1.05468  -1.04907  -1.02129
 Alpha  occ. eigenvalues --   -1.01518  -1.00409  -0.99027  -0.97984  -0.97172
 Alpha  occ. eigenvalues --   -0.96716  -0.96051  -0.92598  -0.90819  -0.88173
 Alpha  occ. eigenvalues --   -0.86583  -0.83670  -0.83503  -0.83277  -0.82093
 Alpha  occ. eigenvalues --   -0.82003  -0.78622  -0.77542  -0.75625  -0.74032
 Alpha  occ. eigenvalues --   -0.73070  -0.72929  -0.72799  -0.71060  -0.70857
 Alpha  occ. eigenvalues --   -0.67524  -0.66774  -0.66229  -0.66188  -0.64920
 Alpha  occ. eigenvalues --   -0.64091  -0.63359  -0.62658  -0.62545  -0.61286
 Alpha  occ. eigenvalues --   -0.60910  -0.60677  -0.60506  -0.59825  -0.59445
 Alpha  occ. eigenvalues --   -0.59213  -0.58142  -0.56864  -0.56205  -0.55966
 Alpha  occ. eigenvalues --   -0.55887  -0.55830  -0.55463  -0.54878  -0.54572
 Alpha  occ. eigenvalues --   -0.53873  -0.53615  -0.53235  -0.53196  -0.52726
 Alpha  occ. eigenvalues --   -0.52457  -0.52043  -0.51507  -0.50649  -0.50035
 Alpha  occ. eigenvalues --   -0.49927  -0.49801  -0.49491  -0.49004  -0.48861
 Alpha  occ. eigenvalues --   -0.48380  -0.47868  -0.47744  -0.47038  -0.46927
 Alpha  occ. eigenvalues --   -0.46394  -0.45675  -0.44996  -0.44412  -0.43662
 Alpha  occ. eigenvalues --   -0.41451  -0.40903  -0.39228  -0.38357  -0.38157
 Alpha  occ. eigenvalues --   -0.37154  -0.36746  -0.36648  -0.35381  -0.35207
 Alpha  occ. eigenvalues --   -0.34457  -0.33457  -0.33428  -0.32750  -0.32167
 Alpha  occ. eigenvalues --   -0.31899  -0.31685  -0.31355  -0.31103  -0.30648
 Alpha  occ. eigenvalues --   -0.30344  -0.30251  -0.25707  -0.24110
 Alpha virt. eigenvalues --    0.02871   0.03893   0.06313   0.08197   0.08680
 Alpha virt. eigenvalues --    0.09523   0.10018   0.10516   0.11421   0.11585
 Alpha virt. eigenvalues --    0.12273   0.13892   0.14641   0.15060   0.15128

 Mulliken charges:
               1
     1  N   -0.314191
     2  C    0.182640
     3  C    0.043806
     4  N   -0.262731
     5  C    0.137082
     6  H    0.026030
     7  N   -0.297697
     8  C    0.147935
     9  H    0.013338
    10  N   -0.282109
    11  C    0.262008
    12  C    0.112052
    13  N   -0.062987
    14  H    0.106664
    15  H    0.080780
    16  H    0.022923
    17  H    0.031943
    18  H    0.028828
    19  N   -0.300859
    20  C    0.222293
    21  C    0.180829
    22  N   -0.055975
    23  H    0.113186
    24  H    0.107474
    25  N   -0.301793
    26  C    0.192850
    27  N   -0.154711
    28  H    0.123376
    29  C    0.185893
    30  O   -0.325605
    31  C   -0.014083
    32  N   -0.218618
    33  C    0.129250
    34  H    0.018190
    35  H    0.027897
    36  H    0.027157
    37  H    0.023585
    38  H    0.056946
    39  H    0.059477
    40  H    0.073556
    41  H    0.030406
    42  C   -0.113810
    43  O   -0.260856
    44  C    0.177805
    45  H    0.132450
    46  N   -0.128187
    47  O   -0.341398
    48  C    0.342075
    49  H    0.044962
    50  C    0.164344
    51  C    0.043866
    52  N   -0.286987
    53  H    0.039140
    54  H    0.024020
    55  H    0.034521
    56  H    0.119446
    57  H    0.117711
    58  N   -0.060569
    59  C    0.083830
    60  C    0.275002
    61  N   -0.319097
    62  H    0.070252
    63  C    0.161821
    64  N   -0.299313
    65  H    0.039217
    66  C    0.135884
    67  N   -0.259657
    68  C    0.020348
    69  C    0.182719
    70  N   -0.316572
 Sum of Mulliken charges =  -0.00000

 Dipole moment (field-independent basis, Debye):
    X=             -9.1649    Y=              5.2332    Z=             -3.2243  Tot=             11.0353
 Quadrupole moment (field-independent basis, Debye-Ang):
   XX=           -161.1910   YY=           -214.7053   ZZ=           -255.9334
   XY=              4.2370   XZ=             -5.9475   YZ=             10.2216

 Normal termination of Gaussian 16 at Fri Jan 26 09:00:01 2018.
