 Gaussian 16, Revision A.03,
 Gaussian 16:  EM64L-G16RevA.03 25-Dec-2016

 ---------------------------------------
 #p wb97xd/cc-pvdz sp scf=(maxcycles=20)
 ---------------------------------------

 ------------------
 Base pair stacking
 ------------------
 Symbolic Z-matrix:
 Charge =  0 Multiplicity = 1

                         Standard orientation:
 ---------------------------------------------------------------------
 Center     Atomic      Atomic             Coordinates (Angstroms)
 Number     Number       Type             X           Y           Z
 ---------------------------------------------------------------------
      1          7           0       -6.748940   -1.616275    0.328776
      2          6           0       -8.152875   -1.162303    0.299091
      3          6           0       -4.565562   -1.695757    0.581466
      4          7           0       -4.948646   -2.946817    0.120147
      5          6           0       -6.248729   -2.848865   -0.013626
      6          1           0       -6.898489   -3.652433   -0.361505
      7          7           0       -3.277645    0.126046    1.346491
      8          6           0       -4.425783    0.806722    1.424212
      9          1           0       -4.334553    1.833975    1.774481
     10          7           0       -5.663875    0.410842    1.135576
     11          6           0       -5.664379   -0.864902    0.714989
     12          6           0       -3.311615   -1.155303    0.919781
     13          7           0       -2.166573   -1.836418    0.841529
     14          1           0       -2.144472   -2.787332    0.530903
     15          1           0       -1.292265   -1.419631    1.090593
     16          1           0       -8.703331   -1.736972    0.904843
     17          1           0       -8.203329   -0.212293    0.605795
     18          1           0       -8.507272   -1.228926   -0.633626
     19          7           0       -2.105516    3.145997   -1.874253
     20          6           0       -0.838226    2.650354   -1.683543
     21          6           0       -2.474585    4.575745   -1.856655
     22          7           0        2.538566    3.181913   -1.070004
     23          1           0        3.364021    2.629173   -0.958861
     24          1           0        2.643367    4.173964   -0.995456
     25          7           0        0.273813    3.380306   -1.449924
     26          6           0        1.344317    2.618994   -1.308321
     27          7           0        1.329082    1.247579   -1.388980
     28          1           0        2.195994    0.746853   -1.267717
     29          6           0        0.196484    0.475775   -1.628533
     30          8           0        0.291211   -0.756655   -1.682291
     31          6           0       -0.961456    1.279668   -1.782809
     32          7           0       -2.279574    0.922004   -2.030852
     33          6           0       -2.919967    2.058667   -2.076807
     34          1           0       -3.990784    2.161304   -2.255931
     35          1           0       -3.144843    4.739816   -1.133719
     36          1           0       -1.658799    5.126277   -1.684414
     37          1           0       -2.867487    4.831165   -2.739385
     38          1           0        6.708538   -1.182724    0.061337
     39          1           0        6.916284   -1.350996   -1.680261
     40          1           0        5.953144   -0.022966   -1.032146
     41          1           0        4.066910   -5.117917   -0.764863
     42          6           0        3.993488   -4.036248   -0.878129
     43          8           0        1.637990   -4.040691   -1.158685
     44          6           0        2.709857   -3.439835   -1.088882
     45          1           0        1.840850   -1.608336   -1.369506
     46          7           0        2.729030   -2.065845   -1.219352
     47          8           0        3.744334   -0.035883   -1.294375
     48          6           0        3.827607   -1.244881   -1.167625
     49          1           0        6.082312   -3.665955   -0.664745
     50          6           0        5.083336   -3.261776   -0.822956
     51          6           0        6.230808   -1.058012   -0.899019
     52          7           0        5.028903   -1.894231   -0.961593
     53          1           0        3.292659    3.909705    3.626250
     54          1           0        2.152497    4.033443    2.465725
     55          1           0        3.733115    4.130664    2.070420
     56          1           0        1.343505   -2.846930    1.256807
     57          1           0        2.928694   -2.466134    1.759089
     58          7           0        2.003670   -2.152113    1.542386
     59          6           0        1.666513   -0.863815    1.630639
     60          6           0        2.060064    1.441298    2.070293
     61          7           0        0.810380    1.834186    1.773062
     62          1           0       -0.966588    1.021173    1.154993
     63          6           0        0.065855    0.790341    1.413906
     64          7           0        0.401702   -0.500729    1.324885
     65          1           0        5.145965    1.743957    2.985599
     66          6           0        4.171661    1.379844    2.658351
     67          7           0        3.892972    0.125373    2.400855
     68          6           0        2.557214    0.150369    2.026885
     69          6           0        3.068449    3.693007    2.676110
     70          7           0        3.108538    2.230957    2.479135
 ---------------------------------------------------------------------

 SCF Done:  E(RwB97XD) =  -2048.74194291     A.U. after   15 cycles

 The electronic state is 1-A.
 Alpha  occ. eigenvalues --  -19.26211 -19.22782 -19.20868 -14.52916 -14.51419
 Alpha  occ. eigenvalues --  -14.48968 -14.48541 -14.48236 -14.47355 -14.47237
 Alpha  occ. eigenvalues --  -14.46771 -14.44473 -14.42983 -14.42919 -14.42348
 Alpha  occ. eigenvalues --  -14.41792 -14.41204 -14.40973 -14.40596 -14.39824
 Alpha  occ. eigenvalues --  -10.45867 -10.41619 -10.40792 -10.38618 -10.38495
 Alpha  occ. eigenvalues --  -10.38409 -10.37033 -10.35994 -10.35492 -10.35077
 Alpha  occ. eigenvalues --  -10.34600 -10.34395 -10.33865 -10.33418 -10.33122
 Alpha  occ. eigenvalues --  -10.33102 -10.32784 -10.31666 -10.31536 -10.31062
 Alpha  occ. eigenvalues --  -10.30769 -10.28370 -10.28261  -1.19820  -1.14116
 Alpha  occ. eigenvalues --   -1.13753  -1.13503  -1.11112  -1.10806  -1.09797
 Alpha  occ. eigenvalues --   -1.08932  -1.07978  -1.04658  -1.03609  -1.02947
 Alpha  occ. eigenvalues --   -1.00263  -1.00097  -0.99905  -0.98809  -0.96784
 Alpha  occ. eigenvalues --   -0.96714  -0.95524  -0.92298  -0.91597  -0.86525
 Alpha  occ. eigenvalues --   -0.84935  -0.84356  -0.84008  -0.83697  -0.82715
 Alpha  occ. eigenvalues --   -0.82076  -0.79394  -0.75893  -0.74897  -0.74058
 Alpha  occ. eigenvalues --   -0.73821  -0.73571  -0.72614  -0.70767  -0.69288
 Alpha  occ. eigenvalues --   -0.67756  -0.67018  -0.66014  -0.65635  -0.64868
 Alpha  occ. eigenvalues --   -0.64089  -0.63122  -0.62982  -0.62385  -0.62137
 Alpha  occ. eigenvalues --   -0.60044  -0.59980  -0.59937  -0.59405  -0.58932
 Alpha  occ. eigenvalues --   -0.58810  -0.58467  -0.56840  -0.56323  -0.56253
 Alpha  occ. eigenvalues --   -0.56180  -0.55085  -0.54852  -0.54706  -0.54228
 Alpha  occ. eigenvalues --   -0.53975  -0.53767  -0.53245  -0.52804  -0.52726
 Alpha  occ. eigenvalues --   -0.52490  -0.51744  -0.51515  -0.50488  -0.50463
 Alpha  occ. eigenvalues --   -0.49924  -0.49869  -0.49288  -0.49061  -0.48980
 Alpha  occ. eigenvalues --   -0.48542  -0.48427  -0.48104  -0.47901  -0.47714
 Alpha  occ. eigenvalues --   -0.46684  -0.45649  -0.44806  -0.44609  -0.43404
 Alpha  occ. eigenvalues --   -0.40850  -0.39796  -0.39579  -0.37651  -0.37519
 Alpha  occ. eigenvalues --   -0.37198  -0.36897  -0.36389  -0.35619  -0.34654
 Alpha  occ. eigenvalues --   -0.33885  -0.33570  -0.33243  -0.33157  -0.32935
 Alpha  occ. eigenvalues --   -0.32883  -0.32642  -0.32517  -0.32033  -0.30638
 Alpha  occ. eigenvalues --   -0.30066  -0.28809  -0.25752  -0.25446
 Alpha virt. eigenvalues --    0.02409   0.05080   0.07592   0.08250   0.08376
 Alpha virt. eigenvalues --    0.09282   0.09372   0.11261   0.11523   0.12001
 Alpha virt. eigenvalues --    0.12537   0.14142   0.14648   0.14757   0.15146

 Mulliken charges:
               1
     1  N   -0.311054
     2  C    0.181118
     3  C    0.032434
     4  N   -0.258388
     5  C    0.132727
     6  H    0.025524
     7  N   -0.294081
     8  C    0.134898
     9  H    0.008402
    10  N   -0.291633
    11  C    0.242242
    12  C    0.126114
    13  N   -0.053935
    14  H    0.111045
    15  H    0.091348
    16  H    0.024852
    17  H    0.034255
    18  H    0.025340
    19  N   -0.312319
    20  C    0.247724
    21  C    0.181617
    22  N   -0.122884
    23  H    0.115758
    24  H    0.116867
    25  N   -0.302698
    26  C    0.237289
    27  N   -0.131421
    28  H    0.113967
    29  C    0.162436
    30  O   -0.318807
    31  C    0.001432
    32  N   -0.221757
    33  C    0.130497
    34  H    0.030398
    35  H    0.029585
    36  H    0.028155
    37  H    0.025202
    38  H    0.064417
    39  H    0.059393
    40  H    0.075297
    41  H    0.032877
    42  C   -0.107700
    43  O   -0.268671
    44  C    0.144315
    45  H    0.135023
    46  N   -0.118711
    47  O   -0.347757
    48  C    0.355078
    49  H    0.050883
    50  C    0.170002
    51  C    0.043678
    52  N   -0.292365
    53  H    0.031735
    54  H    0.045129
    55  H    0.016568
    56  H    0.129204
    57  H    0.110704
    58  N   -0.063017
    59  C    0.091558
    60  C    0.236916
    61  N   -0.261387
    62  H    0.049011
    63  C    0.156044
    64  N   -0.297784
    65  H    0.030182
    66  C    0.131033
    67  N   -0.269439
    68  C    0.026566
    69  C    0.179636
    70  N   -0.310672
 Sum of Mulliken charges =  -0.00000

 Dipole moment (field-independent basis, Debye):
    X=              9.2688    Y=              5.1774    Z=              1.2757  Tot=             10.6931
 Quadrupole moment (field-independent basis, Debye-Ang):
   XX=           -153.1046   YY=           -213.1190   ZZ=           -249.5393
   XY=             -2.6934   XZ=              9.3868   YZ=             -5.4089

 Normal termination of Gaussian 16 at Fri Jan 26 05:40:31 2018.
