 Gaussian 16, Revision A.03,
 Gaussian 16:  EM64L-G16RevA.03 25-Dec-2016

 ---------------------------------------
 #p wb97xd/cc-pvdz sp scf=(maxcycles=20)
 ---------------------------------------

 ------------------
 Base pair stacking
 ------------------
 Symbolic Z-matrix:
 Charge =  0 Multiplicity = 1

                         Standard orientation:
 ---------------------------------------------------------------------
 Center     Atomic      Atomic             Coordinates (Angstroms)
 Number     Number       Type             X           Y           Z
 ---------------------------------------------------------------------
      1          7           0        5.544950   -1.812241   -1.223767
      2          6           0        6.951406   -1.368791   -1.166857
      3          6           0        3.348463   -1.842573   -1.332672
      4          7           0        3.752390   -3.168442   -1.272381
      5          6           0        5.059520   -3.097099   -1.209191
      6          1           0        5.725310   -3.958581   -1.149846
      7          7           0        2.025436    0.105993   -1.457735
      8          6           0        3.171104    0.794256   -1.421264
      9          1           0        3.064222    1.877486   -1.459367
     10          7           0        4.423085    0.347436   -1.345162
     11          6           0        4.442284   -0.995072   -1.303603
     12          6           0        2.078411   -1.243227   -1.414290
     13          7           0        0.935859   -1.932016   -1.450592
     14          1           0        0.927543   -2.932151   -1.420759
     15          1           0        0.049732   -1.472078   -1.508805
     16          1           0        7.451975   -1.742339   -1.947924
     17          1           0        6.988262   -0.370304   -1.195200
     18          1           0        7.370987   -1.692186   -0.318712
     19          7           0        3.550430    3.005501    1.327079
     20          6           0        2.253004    2.557548    1.263095
     21          6           0        3.990854    4.387839    1.051638
     22          7           0       -1.113897    3.167884    0.668826
     23          1           0       -1.970172    2.652210    0.679738
     24          1           0       -1.170898    4.136949    0.427185
     25          7           0        1.171236    3.298965    0.940433
     26          6           0        0.058599    2.586884    0.964770
     27          7           0        0.007138    1.250817    1.280658
     28          1           0       -0.888252    0.786933    1.273872
     29          6           0        1.107531    0.468058    1.615767
     30          8           0        0.952346   -0.729626    1.884469
     31          6           0        2.310083    1.219227    1.593925
     32          7           0        3.617037    0.834722    1.860258
     33          6           0        4.315797    1.924180    1.689846
     34          1           0        5.396685    1.994761    1.816247
     35          1           0        4.639563    4.387516    0.291394
     36          1           0        3.198004    4.946394    0.811506
     37          1           0        4.430756    4.767543    1.864740
     38          1           0       -5.542111   -1.081192    0.434551
     39          1           0       -5.689315   -0.937285    2.184487
     40          1           0       -4.686091    0.203425    1.287995
     41          1           0       -3.073793   -4.961291    1.848347
     42          6           0       -2.940978   -3.882141    1.770775
     43          8           0       -0.579533   -3.972718    1.976877
     44          6           0       -1.621321   -3.332577    1.836594
     45          1           0       -0.649780   -1.532571    1.770291
     46          7           0       -1.565330   -1.957673    1.728238
     47          8           0       -2.472185    0.109727    1.481934
     48          6           0       -2.621862   -1.096407    1.568534
     49          1           0       -5.015019   -3.435403    1.559571
     50          6           0       -3.991287   -3.067695    1.615445
     51          6           0       -5.021152   -0.821622    1.344106
     52          7           0       -3.861863   -1.701928    1.514023
     53          1           0       -4.657074    4.302672   -2.101316
     54          1           0       -3.435774    4.106657   -1.037313
     55          1           0       -4.983143    4.069700   -0.519284
     56          1           0       -2.603804   -2.824902   -1.883922
     57          1           0       -4.217389   -2.336212   -2.143968
     58          7           0       -3.276481   -2.085465   -1.913678
     59          6           0       -2.935020   -0.820908   -1.657797
     60          6           0       -3.338428    1.509718   -1.398575
     61          7           0       -2.067221    1.817145   -1.092044
     62          1           0       -0.257930    0.883415   -0.857082
     63          6           0       -1.308261    0.723129   -1.096600
     64          7           0       -1.648382   -0.544287   -1.352621
     65          1           0       -6.479059    2.022662   -1.969070
     66          6           0       -5.487136    1.592317   -1.828284
     67          7           0       -5.201943    0.319562   -1.956508
     68          6           0       -3.842691    0.253446   -1.686709
     69          6           0       -4.367427    3.828898   -1.269673
     70          7           0       -4.406360    2.370424   -1.491812
 ---------------------------------------------------------------------

 SCF Done:  E(RwB97XD) =  -2048.71966899     A.U. after   15 cycles

 The electronic state is 1-A.
 Alpha  occ. eigenvalues --  -19.25482 -19.21661 -19.20261 -14.52846 -14.52181
 Alpha  occ. eigenvalues --  -14.48762 -14.48393 -14.48392 -14.47522 -14.46346
 Alpha  occ. eigenvalues --  -14.45753 -14.45108 -14.44567 -14.44111 -14.42468
 Alpha  occ. eigenvalues --  -14.41407 -14.41097 -14.40619 -14.40373 -14.40114
 Alpha  occ. eigenvalues --  -10.45156 -10.40463 -10.40290 -10.39798 -10.38299
 Alpha  occ. eigenvalues --  -10.37811 -10.37642 -10.37456 -10.35857 -10.35364
 Alpha  occ. eigenvalues --  -10.34763 -10.34587 -10.33840 -10.33777 -10.33031
 Alpha  occ. eigenvalues --  -10.32903 -10.32863 -10.32817 -10.30965 -10.30669
 Alpha  occ. eigenvalues --  -10.30590 -10.28266 -10.27567  -1.19160  -1.15539
 Alpha  occ. eigenvalues --   -1.12792  -1.12686  -1.10990  -1.10197  -1.09659
 Alpha  occ. eigenvalues --   -1.09060  -1.08037  -1.05273  -1.04860  -1.02157
 Alpha  occ. eigenvalues --   -1.01371  -1.00351  -0.99064  -0.98110  -0.97150
 Alpha  occ. eigenvalues --   -0.96668  -0.96184  -0.92551  -0.90850  -0.88001
 Alpha  occ. eigenvalues --   -0.86410  -0.83667  -0.83606  -0.83286  -0.82151
 Alpha  occ. eigenvalues --   -0.82024  -0.78649  -0.77385  -0.75360  -0.74146
 Alpha  occ. eigenvalues --   -0.73140  -0.73002  -0.72750  -0.70913  -0.70781
 Alpha  occ. eigenvalues --   -0.67311  -0.66842  -0.66239  -0.66156  -0.64742
 Alpha  occ. eigenvalues --   -0.64138  -0.63435  -0.62598  -0.62501  -0.61192
 Alpha  occ. eigenvalues --   -0.60953  -0.60547  -0.60394  -0.59700  -0.59416
 Alpha  occ. eigenvalues --   -0.59235  -0.57941  -0.56764  -0.56236  -0.55950
 Alpha  occ. eigenvalues --   -0.55836  -0.55771  -0.55413  -0.54755  -0.54460
 Alpha  occ. eigenvalues --   -0.53936  -0.53500  -0.53303  -0.53174  -0.52726
 Alpha  occ. eigenvalues --   -0.52533  -0.52070  -0.51486  -0.50542  -0.49968
 Alpha  occ. eigenvalues --   -0.49936  -0.49762  -0.49623  -0.49042  -0.48792
 Alpha  occ. eigenvalues --   -0.48460  -0.47943  -0.47783  -0.47176  -0.47007
 Alpha  occ. eigenvalues --   -0.46522  -0.45675  -0.45088  -0.44414  -0.43681
 Alpha  occ. eigenvalues --   -0.41365  -0.40897  -0.39206  -0.38184  -0.38035
 Alpha  occ. eigenvalues --   -0.37056  -0.36824  -0.36746  -0.35439  -0.35120
 Alpha  occ. eigenvalues --   -0.34577  -0.33411  -0.33371  -0.32808  -0.32279
 Alpha  occ. eigenvalues --   -0.32033  -0.31759  -0.31719  -0.31475  -0.30660
 Alpha  occ. eigenvalues --   -0.30321  -0.30230  -0.25684  -0.24476
 Alpha virt. eigenvalues --    0.02929   0.03995   0.06518   0.08216   0.08693
 Alpha virt. eigenvalues --    0.09500   0.10191   0.10300   0.11377   0.11590
 Alpha virt. eigenvalues --    0.12255   0.13961   0.14665   0.14982   0.15119

 Mulliken charges:
               1
     1  N   -0.313931
     2  C    0.182495
     3  C    0.044397
     4  N   -0.261900
     5  C    0.137239
     6  H    0.026023
     7  N   -0.297257
     8  C    0.144575
     9  H    0.011737
    10  N   -0.283600
    11  C    0.261269
    12  C    0.113002
    13  N   -0.062190
    14  H    0.107709
    15  H    0.081184
    16  H    0.023006
    17  H    0.031961
    18  H    0.028536
    19  N   -0.304560
    20  C    0.231897
    21  C    0.180767
    22  N   -0.063997
    23  H    0.110780
    24  H    0.109755
    25  N   -0.303597
    26  C    0.200238
    27  N   -0.151308
    28  H    0.125128
    29  C    0.185642
    30  O   -0.324682
    31  C   -0.012441
    32  N   -0.220676
    33  C    0.130148
    34  H    0.019654
    35  H    0.028209
    36  H    0.027477
    37  H    0.023712
    38  H    0.057420
    39  H    0.059512
    40  H    0.073499
    41  H    0.030272
    42  C   -0.114364
    43  O   -0.261339
    44  C    0.176318
    45  H    0.132469
    46  N   -0.127194
    47  O   -0.341690
    48  C    0.341107
    49  H    0.045019
    50  C    0.163859
    51  C    0.042584
    52  N   -0.285696
    53  H    0.038465
    54  H    0.028146
    55  H    0.032732
    56  H    0.119315
    57  H    0.116960
    58  N   -0.060940
    59  C    0.083975
    60  C    0.262933
    61  N   -0.301694
    62  H    0.061403
    63  C    0.157602
    64  N   -0.300439
    65  H    0.038828
    66  C    0.136843
    67  N   -0.262226
    68  C    0.025688
    69  C    0.180208
    70  N   -0.315979
 Sum of Mulliken charges =  -0.00000

 Dipole moment (field-independent basis, Debye):
    X=             -9.0464    Y=              5.3333    Z=             -2.8276  Tot=             10.8756
 Quadrupole moment (field-independent basis, Debye-Ang):
   XX=           -161.4420   YY=           -213.8739   ZZ=           -255.4498
   XY=              4.4886   XZ=             -5.6554   YZ=              9.3129

 Normal termination of Gaussian 16 at Fri Jan 26 03:58:26 2018.
