 Gaussian 16, Revision A.03,
 Gaussian 16:  EM64L-G16RevA.03 25-Dec-2016

 ---------------------------------------
 #p wb97xd/cc-pvdz sp scf=(maxcycles=20)
 ---------------------------------------

 ------------------
 Base pair stacking
 ------------------
 Symbolic Z-matrix:
 Charge =  0 Multiplicity = 1

                         Standard orientation:
 ---------------------------------------------------------------------
 Center     Atomic      Atomic             Coordinates (Angstroms)
 Number     Number       Type             X           Y           Z
 ---------------------------------------------------------------------
      1          7           0       -6.667643   -1.620477    0.439801
      2          6           0       -8.053353   -1.156783    0.232959
      3          6           0       -4.497718   -1.682864    0.793197
      4          7           0       -4.908476   -3.001995    0.667154
      5          6           0       -6.199336   -2.911618    0.459285
      6          1           0       -6.864729   -3.762831    0.312239
      7          7           0       -3.173392    0.245148    1.096258
      8          6           0       -4.299281    0.949702    0.942766
      9          1           0       -4.184147    2.030687    1.009699
     10          7           0       -5.540198    0.521444    0.720052
     11          6           0       -5.570987   -0.819935    0.655381
     12          6           0       -3.237594   -1.102436    1.025834
     13          7           0       -2.114788   -1.807474    1.178793
     14          1           0       -2.115385   -2.807092    1.134271
     15          1           0       -1.235233   -1.360767    1.343015
     16          1           0       -8.642803   -1.534516    0.947130
     17          1           0       -8.080979   -0.158396    0.272791
     18          1           0       -8.379171   -1.462121   -0.661807
     19          7           0       -2.285335    2.956272   -1.731617
     20          6           0       -1.013155    2.490598   -1.501955
     21          6           0       -2.719017    4.360680   -1.589229
     22          7           0        2.285656    3.078096   -0.588468
     23          1           0        3.125600    2.547853   -0.476303
     24          1           0        2.340087    4.059276   -0.401290
     25          7           0        0.045927    3.231795   -1.110787
     26          6           0        1.137420    2.500239   -0.972573
     27          7           0        1.189830    1.146270   -1.199578
     28          1           0        2.068035    0.668134   -1.068800
     29          6           0        0.112557    0.363375   -1.602590
     30          8           0        0.266417   -0.851363   -1.780030
     31          6           0       -1.067111    1.135340   -1.755287
     32          7           0       -2.347404    0.757786   -2.136312
     33          6           0       -3.033833    1.867841   -2.108090
     34          1           0       -4.093251    1.949246   -2.353605
     35          1           0       -3.444375    4.419460   -0.904243
     36          1           0       -1.942817    4.919262   -1.299815
     37          1           0       -3.061105    4.696178   -2.466280
     38          1           0        6.560544   -1.224671    0.375971
     39          1           0        6.895584   -1.193584   -1.353609
     40          1           0        5.830877    0.018566   -0.640548
     41          1           0        4.163012   -5.142167   -1.056381
     42          6           0        4.048762   -4.058114   -1.059032
     43          8           0        1.720896   -4.120146   -1.511068
     44          6           0        2.757109   -3.490781   -1.299035
     45          1           0        1.827648   -1.673444   -1.446423
     46          7           0        2.723104   -2.111014   -1.280824
     47          8           0        3.648321   -0.048393   -1.064538
     48          6           0        3.777236   -1.260020   -1.061339
     49          1           0        6.098941   -3.635334   -0.654290
     50          6           0        5.096046   -3.254014   -0.841706
     51          6           0        6.145198   -1.013682   -0.598218
     52          7           0        4.989542   -1.882512   -0.837693
     53          1           0        3.445579    4.339002    2.549505
     54          1           0        2.348895    4.175243    1.352616
     55          1           0        3.943991    4.124243    1.010380
     56          1           0        1.342887   -2.755532    1.991133
     57          1           0        2.923011   -2.293075    2.437717
     58          7           0        2.016949   -2.026017    2.107630
     59          6           0        1.721752   -0.753294    1.835195
     60          6           0        2.180037    1.574986    1.659609
     61          7           0        0.955028    1.904400    1.217720
     62          1           0       -0.827798    0.999343    0.767140
     63          6           0        0.187050    0.821075    1.120051
     64          7           0        0.480883   -0.454481    1.392436
     65          1           0        5.242991    2.036044    2.585838
     66          6           0        4.267904    1.621573    2.328202
     67          7           0        3.954655    0.351190    2.403572
     68          6           0        2.633491    0.307821    1.982437
     69          6           0        3.245191    3.881267    1.683299
     70          7           0        3.241209    2.419353    1.885304
 ---------------------------------------------------------------------

 SCF Done:  E(RwB97XD) =  -2048.68954514     A.U. after   15 cycles

 The electronic state is 1-A.
 Alpha  occ. eigenvalues --  -19.25949 -19.22078 -19.20621 -14.52520 -14.52129
 Alpha  occ. eigenvalues --  -14.48862 -14.48726 -14.47959 -14.47698 -14.46400
 Alpha  occ. eigenvalues --  -14.46224 -14.45004 -14.43526 -14.42812 -14.42404
 Alpha  occ. eigenvalues --  -14.41782 -14.41555 -14.41011 -14.40711 -14.40249
 Alpha  occ. eigenvalues --  -10.45570 -10.41279 -10.40197 -10.39308 -10.38168
 Alpha  occ. eigenvalues --  -10.37915 -10.37651 -10.36426 -10.35546 -10.35209
 Alpha  occ. eigenvalues --  -10.34827 -10.34327 -10.34211 -10.34039 -10.33472
 Alpha  occ. eigenvalues --  -10.33210 -10.33151 -10.32084 -10.31226 -10.31002
 Alpha  occ. eigenvalues --  -10.30900 -10.28659 -10.28061  -1.19522  -1.14985
 Alpha  occ. eigenvalues --   -1.13295  -1.13099  -1.11453  -1.10567  -1.09407
 Alpha  occ. eigenvalues --   -1.08969  -1.08497  -1.05087  -1.04143  -1.02585
 Alpha  occ. eigenvalues --   -1.01199  -1.00574  -0.99635  -0.98467  -0.97091
 Alpha  occ. eigenvalues --   -0.96530  -0.96227  -0.92746  -0.91149  -0.87367
 Alpha  occ. eigenvalues --   -0.85964  -0.84100  -0.84034  -0.83671  -0.82529
 Alpha  occ. eigenvalues --   -0.82409  -0.78973  -0.76651  -0.74753  -0.74254
 Alpha  occ. eigenvalues --   -0.73839  -0.73437  -0.73028  -0.71176  -0.70088
 Alpha  occ. eigenvalues --   -0.67584  -0.66683  -0.66441  -0.66419  -0.64520
 Alpha  occ. eigenvalues --   -0.64064  -0.63800  -0.62869  -0.62761  -0.62498
 Alpha  occ. eigenvalues --   -0.60439  -0.60225  -0.59985  -0.59616  -0.59556
 Alpha  occ. eigenvalues --   -0.59187  -0.58738  -0.57170  -0.56632  -0.56445
 Alpha  occ. eigenvalues --   -0.55997  -0.55786  -0.55556  -0.54686  -0.54359
 Alpha  occ. eigenvalues --   -0.53766  -0.53533  -0.53294  -0.52908  -0.52713
 Alpha  occ. eigenvalues --   -0.52438  -0.52118  -0.51842  -0.50824  -0.50302
 Alpha  occ. eigenvalues --   -0.50151  -0.49544  -0.49448  -0.48938  -0.48816
 Alpha  occ. eigenvalues --   -0.48710  -0.48368  -0.48271  -0.48155  -0.47403
 Alpha  occ. eigenvalues --   -0.47051  -0.45863  -0.45169  -0.44066  -0.42878
 Alpha  occ. eigenvalues --   -0.41285  -0.39840  -0.39457  -0.37932  -0.37296
 Alpha  occ. eigenvalues --   -0.37177  -0.36969  -0.36716  -0.35754  -0.34425
 Alpha  occ. eigenvalues --   -0.33979  -0.33654  -0.33565  -0.33232  -0.32891
 Alpha  occ. eigenvalues --   -0.32630  -0.32298  -0.32044  -0.31787  -0.30930
 Alpha  occ. eigenvalues --   -0.30463  -0.29014  -0.25935  -0.25187
 Alpha virt. eigenvalues --    0.02962   0.04074   0.07437   0.07791   0.08429
 Alpha virt. eigenvalues --    0.09225   0.09552   0.10774   0.11443   0.12205
 Alpha virt. eigenvalues --    0.12735   0.13955   0.14037   0.14761   0.14895

 Mulliken charges:
               1
     1  N   -0.311849
     2  C    0.181187
     3  C    0.033988
     4  N   -0.260236
     5  C    0.134631
     6  H    0.026924
     7  N   -0.291616
     8  C    0.137488
     9  H    0.006779
    10  N   -0.290021
    11  C    0.247000
    12  C    0.126411
    13  N   -0.058561
    14  H    0.108124
    15  H    0.087849
    16  H    0.025155
    17  H    0.034270
    18  H    0.026934
    19  N   -0.311119
    20  C    0.228441
    21  C    0.181502
    22  N   -0.093484
    23  H    0.117298
    24  H    0.108396
    25  N   -0.273869
    26  C    0.179671
    27  N   -0.104465
    28  H    0.115771
    29  C    0.133021
    30  O   -0.314991
    31  C    0.015706
    32  N   -0.220234
    33  C    0.124266
    34  H    0.029658
    35  H    0.027695
    36  H    0.027293
    37  H    0.024883
    38  H    0.062443
    39  H    0.058060
    40  H    0.074043
    41  H    0.031931
    42  C   -0.113074
    43  O   -0.264294
    44  C    0.173302
    45  H    0.134441
    46  N   -0.135548
    47  O   -0.346525
    48  C    0.358623
    49  H    0.048106
    50  C    0.169124
    51  C    0.044062
    52  N   -0.295383
    53  H    0.033529
    54  H    0.046064
    55  H    0.010074
    56  H    0.124047
    57  H    0.114914
    58  N   -0.068720
    59  C    0.094831
    60  C    0.205513
    61  N   -0.257246
    62  H    0.067929
    63  C    0.159728
    64  N   -0.298212
    65  H    0.032576
    66  C    0.131753
    67  N   -0.265682
    68  C    0.046757
    69  C    0.174800
    70  N   -0.311860
 Sum of Mulliken charges =  -0.00000

 Dipole moment (field-independent basis, Debye):
    X=              8.3485    Y=              4.9751    Z=              3.1819  Tot=             10.2261
 Quadrupole moment (field-independent basis, Debye-Ang):
   XX=           -153.6675   YY=           -215.5740   ZZ=           -253.7545
   XY=             -1.5103   XZ=              8.8919   YZ=            -10.5674

 Normal termination of Gaussian 16 at Fri Jan 26 00:18:53 2018.
