 Gaussian 16, Revision A.03,
 Gaussian 16:  EM64L-G16RevA.03 25-Dec-2016

 ---------------------------------------
 #p wb97xd/cc-pvdz sp scf=(maxcycles=20)
 ---------------------------------------

 ------------------
 Base pair stacking
 ------------------
 Symbolic Z-matrix:
 Charge =  0 Multiplicity = 1

                         Standard orientation:
 ---------------------------------------------------------------------
 Center     Atomic      Atomic             Coordinates (Angstroms)
 Number     Number       Type             X           Y           Z
 ---------------------------------------------------------------------
      1          7           0       -6.447836   -1.657553    0.585330
      2          6           0       -7.845014   -1.191949    0.490016
      3          6           0       -4.264759   -1.731104    0.842475
      4          7           0       -4.668356   -3.031714    0.577439
      5          6           0       -5.967417   -2.935350    0.433125
      6          1           0       -6.630528   -3.772416    0.212787
      7          7           0       -2.946665    0.165859    1.319030
      8          6           0       -4.084257    0.867921    1.294879
      9          1           0       -3.976294    1.934943    1.484781
     10          7           0       -5.329332    0.451760    1.072394
     11          6           0       -5.350568   -0.872911    0.850554
     12          6           0       -3.001474   -1.164765    1.092063
     13          7           0       -1.866980   -1.867289    1.115753
     14          1           0       -1.860324   -2.854578    0.953187
     15          1           0       -0.985519   -1.430924    1.296715
     16          1           0       -8.401213   -1.659445    1.177226
     17          1           0       -7.880052   -0.205718    0.648910
     18          1           0       -8.204492   -1.394058   -0.420990
     19          7           0       -2.509384    3.064663   -1.742730
     20          6           0       -1.232630    2.588945   -1.564821
     21          6           0       -2.917459    4.479033   -1.625633
     22          7           0        2.117148    3.159853   -0.847371
     23          1           0        2.955257    2.621813   -0.761700
     24          1           0        2.193610    4.145874   -0.696913
     25          7           0       -0.145136    3.327724   -1.255635
     26          6           0        0.943022    2.585808   -1.150369
     27          7           0        0.966522    1.224408   -1.333505
     28          1           0        1.844472    0.738514   -1.233042
     29          6           0       -0.140280    0.443810   -1.652126
     30          8           0       -0.011131   -0.778230   -1.795911
     31          6           0       -1.316770    1.226884   -1.768561
     32          7           0       -2.620118    0.854979   -2.068354
     33          6           0       -3.290278    1.974967   -2.041803
     34          1           0       -4.360175    2.063119   -2.233676
     35          1           0       -3.604529    4.570942   -0.905710
     36          1           0       -2.120100    5.035931   -1.396842
     37          1           0       -3.301597    4.789862   -2.494336
     38          1           0        6.383782   -1.168407    0.036197
     39          1           0        6.626597   -1.199872   -1.708711
     40          1           0        5.616452    0.050387   -0.982188
     41          1           0        3.865090   -5.097214   -1.133070
     42          6           0        3.764277   -4.012344   -1.166661
     43          8           0        1.415062   -4.056474   -1.492770
     44          6           0        2.468793   -3.435107   -1.357346
     45          1           0        1.555356   -1.610735   -1.517349
     46          7           0        2.452878   -2.055162   -1.384441
     47          8           0        3.413749    0.000217   -1.287796
     48          6           0        3.527651   -1.212329   -1.250086
     49          1           0        5.838182   -3.605366   -0.885409
     50          6           0        4.831518   -3.216351   -1.032503
     51          6           0        5.919785   -0.984220   -0.921321
     52          7           0        4.742351   -1.844115   -1.069659
     53          1           0        3.688934    4.151006    2.983290
     54          1           0        2.545575    4.114432    1.819892
     55          1           0        4.125690    4.126309    1.411019
     56          1           0        1.629573   -2.856547    1.672243
     57          1           0        3.222434   -2.428143    2.107436
     58          7           0        2.301207   -2.136587    1.847510
     59          6           0        1.983532   -0.844829    1.739702
     60          6           0        2.413069    1.494027    1.823129
     61          7           0        1.168019    1.856259    1.472328
     62          1           0       -0.623502    0.986076    0.988783
     63          6           0        0.406554    0.781487    1.277558
     64          7           0        0.722879   -0.513104    1.385036
     65          1           0        5.507144    1.884999    2.675206
     66          6           0        4.526114    1.490341    2.409173
     67          7           0        4.227760    0.215722    2.345885
     68          6           0        2.890879    0.204037    1.975320
     69          6           0        3.457322    3.795952    2.077593
     70          7           0        3.474912    2.320498    2.104981
 ---------------------------------------------------------------------

 SCF Done:  E(RwB97XD) =  -2048.73626474     A.U. after   15 cycles

 The electronic state is 1-A.
 Alpha  occ. eigenvalues --  -19.26024 -19.22242 -19.20722 -14.52597 -14.51998
 Alpha  occ. eigenvalues --  -14.48825 -14.48581 -14.47981 -14.47661 -14.46907
 Alpha  occ. eigenvalues --  -14.46846 -14.44975 -14.43515 -14.43222 -14.42139
 Alpha  occ. eigenvalues --  -14.42072 -14.41251 -14.40815 -14.40699 -14.39960
 Alpha  occ. eigenvalues --  -10.45633 -10.41300 -10.40331 -10.39260 -10.38297
 Alpha  occ. eigenvalues --  -10.38039 -10.37520 -10.36480 -10.35231 -10.35179
 Alpha  occ. eigenvalues --  -10.34951 -10.34431 -10.33917 -10.33794 -10.33261
 Alpha  occ. eigenvalues --  -10.33165 -10.32899 -10.32009 -10.31351 -10.30964
 Alpha  occ. eigenvalues --  -10.30800 -10.28338 -10.28182  -1.19587  -1.14671
 Alpha  occ. eigenvalues --   -1.13335  -1.13243  -1.11159  -1.10649  -1.09487
 Alpha  occ. eigenvalues --   -1.08770  -1.08533  -1.04780  -1.04159  -1.02645
 Alpha  occ. eigenvalues --   -1.00544  -1.00252  -0.99938  -0.98624  -0.96806
 Alpha  occ. eigenvalues --   -0.96625  -0.96111  -0.92439  -0.91252  -0.87095
 Alpha  occ. eigenvalues --   -0.85562  -0.84183  -0.83755  -0.83691  -0.82576
 Alpha  occ. eigenvalues --   -0.82142  -0.79063  -0.76475  -0.74730  -0.74179
 Alpha  occ. eigenvalues --   -0.73813  -0.73507  -0.72727  -0.70870  -0.69895
 Alpha  occ. eigenvalues --   -0.67523  -0.66699  -0.66254  -0.66137  -0.64584
 Alpha  occ. eigenvalues --   -0.63875  -0.63769  -0.62821  -0.62531  -0.61941
 Alpha  occ. eigenvalues --   -0.60178  -0.60066  -0.59904  -0.59663  -0.59395
 Alpha  occ. eigenvalues --   -0.59026  -0.58558  -0.56832  -0.56386  -0.56204
 Alpha  occ. eigenvalues --   -0.56105  -0.55310  -0.55175  -0.54723  -0.54492
 Alpha  occ. eigenvalues --   -0.53769  -0.53635  -0.53144  -0.53052  -0.52783
 Alpha  occ. eigenvalues --   -0.52467  -0.52233  -0.51597  -0.50542  -0.50257
 Alpha  occ. eigenvalues --   -0.50028  -0.49556  -0.49311  -0.48949  -0.48655
 Alpha  occ. eigenvalues --   -0.48597  -0.48499  -0.48301  -0.48071  -0.47488
 Alpha  occ. eigenvalues --   -0.46764  -0.45759  -0.44868  -0.44190  -0.43685
 Alpha  occ. eigenvalues --   -0.40960  -0.40082  -0.39566  -0.37666  -0.37326
 Alpha  occ. eigenvalues --   -0.37170  -0.36988  -0.36847  -0.35887  -0.34427
 Alpha  occ. eigenvalues --   -0.34039  -0.33486  -0.33383  -0.33278  -0.33079
 Alpha  occ. eigenvalues --   -0.32715  -0.32470  -0.32168  -0.31871  -0.30658
 Alpha  occ. eigenvalues --   -0.30190  -0.29233  -0.25757  -0.25361
 Alpha virt. eigenvalues --    0.02816   0.04577   0.07565   0.08147   0.08517
 Alpha virt. eigenvalues --    0.09077   0.09475   0.11024   0.11442   0.11794
 Alpha virt. eigenvalues --    0.12429   0.14124   0.14208   0.14688   0.15004

 Mulliken charges:
               1
     1  N   -0.311905
     2  C    0.181249
     3  C    0.036409
     4  N   -0.259616
     5  C    0.134100
     6  H    0.025919
     7  N   -0.293763
     8  C    0.139506
     9  H    0.006827
    10  N   -0.292143
    11  C    0.247304
    12  C    0.125207
    13  N   -0.056351
    14  H    0.109759
    15  H    0.087808
    16  H    0.024630
    17  H    0.033586
    18  H    0.026268
    19  N   -0.312258
    20  C    0.242275
    21  C    0.181389
    22  N   -0.103768
    23  H    0.115444
    24  H    0.113850
    25  N   -0.295628
    26  C    0.215676
    27  N   -0.122106
    28  H    0.113375
    29  C    0.150614
    30  O   -0.316344
    31  C    0.012923
    32  N   -0.223201
    33  C    0.127988
    34  H    0.028610
    35  H    0.028825
    36  H    0.027938
    37  H    0.024862
    38  H    0.063668
    39  H    0.057944
    40  H    0.074227
    41  H    0.031871
    42  C   -0.112063
    43  O   -0.264916
    44  C    0.163562
    45  H    0.134113
    46  N   -0.127297
    47  O   -0.346762
    48  C    0.353331
    49  H    0.048630
    50  C    0.166663
    51  C    0.043009
    52  N   -0.291348
    53  H    0.036419
    54  H    0.043385
    55  H    0.019823
    56  H    0.127110
    57  H    0.114191
    58  N   -0.067680
    59  C    0.084231
    60  C    0.217804
    61  N   -0.257730
    62  H    0.049143
    63  C    0.162989
    64  N   -0.301217
    65  H    0.033028
    66  C    0.133935
    67  N   -0.267668
    68  C    0.045452
    69  C    0.167944
    70  N   -0.311049
 Sum of Mulliken charges =  -0.00000

 Dipole moment (field-independent basis, Debye):
    X=              8.7936    Y=              5.2041    Z=              2.2164  Tot=             10.4557
 Quadrupole moment (field-independent basis, Debye-Ang):
   XX=           -155.8829   YY=           -213.6464   ZZ=           -252.7285
   XY=             -2.9433   XZ=              6.1933   YZ=             -8.2282

 Normal termination of Gaussian 16 at Thu Jan 25 20:04:12 2018.
