 Gaussian 16, Revision A.03,
 Gaussian 16:  EM64L-G16RevA.03 25-Dec-2016

 ---------------------------------------
 #p wb97xd/cc-pvdz sp scf=(maxcycles=20)
 ---------------------------------------

 ------------------
 Base pair stacking
 ------------------
 Symbolic Z-matrix:
 Charge =  0 Multiplicity = 1

                         Standard orientation:
 ---------------------------------------------------------------------
 Center     Atomic      Atomic             Coordinates (Angstroms)
 Number     Number       Type             X           Y           Z
 ---------------------------------------------------------------------
      1          7           0       -6.869323   -1.606983    0.316256
      2          6           0       -8.241104   -1.158398    0.008038
      3          6           0       -4.714267   -1.646615    0.753843
      4          7           0       -5.136174   -2.968234    0.761338
      5          6           0       -6.417629   -2.891467    0.497410
      6          1           0       -7.087594   -3.748459    0.422293
      7          7           0       -3.378390    0.292592    0.887475
      8          6           0       -4.489521    0.984413    0.614800
      9          1           0       -4.363811    2.065123    0.564435
     10          7           0       -5.726811    0.543772    0.396049
     11          6           0       -5.771459   -0.796089    0.480938
     12          6           0       -3.456307   -1.053823    0.966111
     13          7           0       -2.348250   -1.746165    1.238195
     14          1           0       -2.359319   -2.744414    1.305926
     15          1           0       -1.469757   -1.290879    1.383537
     16          1           0       -8.860113   -1.448762    0.737904
     17          1           0       -8.258092   -0.161673   -0.065235
     18          1           0       -8.538541   -1.559728   -0.858245
     19          7           0       -2.085124    2.861792   -1.689340
     20          6           0       -0.817590    2.406118   -1.417744
     21          6           0       -2.548307    4.252826   -1.512792
     22          7           0        2.424351    3.005189   -0.325642
     23          1           0        3.266783    2.483324   -0.194451
     24          1           0        2.453598    3.978793   -0.097717
     25          7           0        0.209449    3.146616   -0.947726
     26          6           0        1.305223    2.426287   -0.786442
     27          7           0        1.390762    1.083398   -1.063651
     28          1           0        2.269671    0.613415   -0.910018
     29          6           0        0.346822    0.301447   -1.547990
     30          8           0        0.529021   -0.902822   -1.765439
     31          6           0       -0.837028    1.061428   -1.726343
     32          7           0       -2.091521    0.680567   -2.182511
     33          6           0       -2.796874    1.778370   -2.143507
     34          1           0       -3.844772    1.853896   -2.435882
     35          1           0       -3.305977    4.273477   -0.861386
     36          1           0       -1.795979    4.810780   -1.164998
     37          1           0       -2.854281    4.618061   -2.391310
     38          1           0        6.720062   -1.269206    0.671917
     39          1           0        7.135553   -1.164037   -1.037162
     40          1           0        6.018467    0.002793   -0.328656
     41          1           0        4.458042   -5.161210   -1.025773
     42          6           0        4.326037   -4.079720   -0.991314
     43          8           0        2.023379   -4.157945   -1.555932
     44          6           0        3.037862   -3.522350   -1.270191
     45          1           0        2.086281   -1.714481   -1.390286
     46          7           0        2.980101   -2.145061   -1.199481
     47          8           0        3.859696   -0.079336   -0.858531
     48          6           0        4.008440   -1.288081   -0.896746
     49          1           0        6.347588   -3.643285   -0.473004
     50          6           0        5.348414   -3.269596   -0.692914
     51          6           0        6.347561   -1.025576   -0.311935
     52          7           0        5.219061   -1.901082   -0.640157
     53          1           0        3.233596    4.470735    2.115091
     54          1           0        2.178286    4.182312    0.904624
     55          1           0        3.783822    4.080419    0.629049
     56          1           0        1.066638   -2.624559    2.278002
     57          1           0        2.635336   -2.127496    2.727703
     58          7           0        1.744888   -1.891986    2.336737
     59          6           0        1.474935   -0.655619    1.912819
     60          6           0        1.967246    1.634439    1.494505
     61          7           0        0.762803    1.921905    0.973827
     62          1           0       -1.013651    0.986241    0.562290
     63          6           0       -0.014224    0.840644    0.969988
     64          7           0        0.254314   -0.398539    1.394120
     65          1           0        5.000640    2.172142    2.475097
     66          6           0        4.030420    1.739164    2.229874
     67          7           0        3.699378    0.487841    2.435508
     68          6           0        2.393606    0.408004    1.973656
     69          6           0        3.058634    3.920190    1.298827
     70          7           0        3.029833    2.490309    1.663021
 ---------------------------------------------------------------------

 SCF Done:  E(RwB97XD) =  -2048.46348568     A.U. after   16 cycles

 The electronic state is 1-A.
 Alpha  occ. eigenvalues --  -19.25835 -19.21930 -19.20126 -14.52644 -14.52449
 Alpha  occ. eigenvalues --  -14.49127 -14.48354 -14.48128 -14.47857 -14.45188
 Alpha  occ. eigenvalues --  -14.45082 -14.44005 -14.43600 -14.43106 -14.42768
 Alpha  occ. eigenvalues --  -14.41844 -14.41317 -14.40587 -14.40565 -14.40452
 Alpha  occ. eigenvalues --  -10.45476 -10.41149 -10.40061 -10.39774 -10.38072
 Alpha  occ. eigenvalues --  -10.37808 -10.37633 -10.36659 -10.35874 -10.35265
 Alpha  occ. eigenvalues --  -10.35054 -10.35034 -10.34492 -10.33971 -10.33768
 Alpha  occ. eigenvalues --  -10.33525 -10.32982 -10.32585 -10.31187 -10.31118
 Alpha  occ. eigenvalues --  -10.30713 -10.28974 -10.27720  -1.19430  -1.17199
 Alpha  occ. eigenvalues --   -1.13191  -1.12957  -1.11734  -1.10303  -1.09671
 Alpha  occ. eigenvalues --   -1.09377  -1.09315  -1.05409  -1.04951  -1.03888
 Alpha  occ. eigenvalues --   -1.02470  -1.00904  -0.98790  -0.98066  -0.97392
 Alpha  occ. eigenvalues --   -0.96998  -0.96255  -0.93070  -0.91059  -0.89943
 Alpha  occ. eigenvalues --   -0.87073  -0.84312  -0.83755  -0.83652  -0.82666
 Alpha  occ. eigenvalues --   -0.82295  -0.78880  -0.77471  -0.75157  -0.74539
 Alpha  occ. eigenvalues --   -0.74229  -0.73354  -0.73332  -0.71620  -0.71485
 Alpha  occ. eigenvalues --   -0.69138  -0.67647  -0.66742  -0.66572  -0.65738
 Alpha  occ. eigenvalues --   -0.64367  -0.64060  -0.63638  -0.63131  -0.62763
 Alpha  occ. eigenvalues --   -0.61537  -0.60777  -0.60644  -0.60267  -0.59519
 Alpha  occ. eigenvalues --   -0.59461  -0.59355  -0.57031  -0.56670  -0.56581
 Alpha  occ. eigenvalues --   -0.56136  -0.55713  -0.55518  -0.54777  -0.54346
 Alpha  occ. eigenvalues --   -0.53643  -0.53360  -0.53285  -0.53045  -0.52414
 Alpha  occ. eigenvalues --   -0.52372  -0.52100  -0.51208  -0.51084  -0.50576
 Alpha  occ. eigenvalues --   -0.49921  -0.49777  -0.49360  -0.49316  -0.48635
 Alpha  occ. eigenvalues --   -0.48250  -0.48077  -0.47956  -0.47380  -0.47282
 Alpha  occ. eigenvalues --   -0.46589  -0.45815  -0.45452  -0.43994  -0.42536
 Alpha  occ. eigenvalues --   -0.41604  -0.39443  -0.39063  -0.38536  -0.37594
 Alpha  occ. eigenvalues --   -0.37260  -0.36766  -0.36247  -0.35536  -0.34592
 Alpha  occ. eigenvalues --   -0.33958  -0.33858  -0.33120  -0.33060  -0.32722
 Alpha  occ. eigenvalues --   -0.32166  -0.31954  -0.31506  -0.31480  -0.31205
 Alpha  occ. eigenvalues --   -0.30775  -0.29027  -0.26244  -0.23596
 Alpha virt. eigenvalues --    0.02706   0.03164   0.06577   0.07498   0.08323
 Alpha virt. eigenvalues --    0.09223   0.09831   0.10424   0.11220   0.12448
 Alpha virt. eigenvalues --    0.12995   0.13668   0.13997   0.14392   0.15408

 Mulliken charges:
               1
     1  N   -0.311882
     2  C    0.181102
     3  C    0.032517
     4  N   -0.260818
     5  C    0.135311
     6  H    0.027904
     7  N   -0.289332
     8  C    0.136412
     9  H    0.006081
    10  N   -0.287455
    11  C    0.247067
    12  C    0.126493
    13  N   -0.060972
    14  H    0.107116
    15  H    0.087910
    16  H    0.025581
    17  H    0.035094
    18  H    0.027630
    19  N   -0.310899
    20  C    0.213392
    21  C    0.182182
    22  N   -0.095373
    23  H    0.110062
    24  H    0.088935
    25  N   -0.248029
    26  C    0.132645
    27  N   -0.098056
    28  H    0.116312
    29  C    0.126405
    30  O   -0.319473
    31  C    0.001924
    32  N   -0.217624
    33  C    0.121418
    34  H    0.030031
    35  H    0.025228
    36  H    0.025641
    37  H    0.024497
    38  H    0.060907
    39  H    0.058677
    40  H    0.073101
    41  H    0.031918
    42  C   -0.112261
    43  O   -0.263110
    44  C    0.177529
    45  H    0.134459
    46  N   -0.140016
    47  O   -0.345079
    48  C    0.360275
    49  H    0.047512
    50  C    0.169300
    51  C    0.044548
    52  N   -0.297546
    53  H    0.003539
    54  H    0.027967
    55  H   -0.005352
    56  H    0.123233
    57  H    0.117289
    58  N   -0.067774
    59  C    0.106479
    60  C    0.217485
    61  N   -0.249700
    62  H    0.084964
    63  C    0.162194
    64  N   -0.293517
    65  H    0.034393
    66  C    0.125683
    67  N   -0.264735
    68  C    0.049885
    69  C    0.287972
    70  N   -0.335194
 Sum of Mulliken charges =  -0.00000

 Dipole moment (field-independent basis, Debye):
    X=              7.9448    Y=              4.6899    Z=              4.4378  Tot=             10.2376
 Quadrupole moment (field-independent basis, Debye-Ang):
   XX=           -151.3901   YY=           -218.1747   ZZ=           -254.7797
   XY=              0.3434   XZ=             11.4219   YZ=            -12.6584

 Normal termination of Gaussian 16 at Fri Jan 26 11:07:31 2018.
