 Gaussian 16, Revision A.03,
 Gaussian 16:  EM64L-G16RevA.03 25-Dec-2016

 ---------------------------------------
 #p wb97xd/cc-pvdz sp scf=(maxcycles=20)
 ---------------------------------------

 ------------------
 Base pair stacking
 ------------------
 Symbolic Z-matrix:
 Charge =  0 Multiplicity = 1

                         Standard orientation:
 ---------------------------------------------------------------------
 Center     Atomic      Atomic             Coordinates (Angstroms)
 Number     Number       Type             X           Y           Z
 ---------------------------------------------------------------------
      1          7           0       -6.968417   -1.590808    0.212292
      2          6           0       -8.363114   -1.127248    0.078288
      3          6           0       -4.796188   -1.664620    0.548864
      4          7           0       -5.183834   -2.958229    0.231008
      5          6           0       -6.477012   -2.861988    0.040957
      6          1           0       -7.127722   -3.694422   -0.228439
      7          7           0       -3.505227    0.221906    1.129697
      8          6           0       -4.644208    0.920591    1.083415
      9          1           0       -4.548134    1.981938    1.308312
     10          7           0       -5.878243    0.507006    0.802344
     11          6           0       -5.885315   -0.810646    0.541270
     12          6           0       -3.545630   -1.101650    0.862071
     13          7           0       -2.409724   -1.800799    0.907767
     14          1           0       -2.392625   -2.782868    0.716804
     15          1           0       -1.537576   -1.367003    1.134320
     16          1           0       -8.942536   -1.616570    0.730218
     17          1           0       -8.408421   -0.146229    0.264486
     18          1           0       -8.687380   -1.303736   -0.851071
     19          7           0       -1.890971    3.017870   -1.853207
     20          6           0       -0.625495    2.538844   -1.614149
     21          6           0       -2.286978    4.439964   -1.814179
     22          7           0        2.706927    3.110665   -0.820582
     23          1           0        3.536115    2.569266   -0.684301
     24          1           0        2.789517    4.101835   -0.713482
     25          7           0        0.460075    3.280844   -1.305905
     26          6           0        1.536377    2.534332   -1.132924
     27          7           0        1.550587    1.165725   -1.252236
     28          1           0        2.419716    0.676724   -1.102367
     29          6           0        0.445552    0.381710   -1.568579
     30          8           0        0.565678   -0.846860   -1.651757
     31          6           0       -0.718241    1.169650   -1.757331
     32          7           0       -2.015833    0.796600   -2.079800
     33          6           0       -2.674233    1.922925   -2.125693
     34          1           0       -3.736767    2.012203   -2.354415
     35          1           0       -2.994602    4.571733   -1.120848
     36          1           0       -1.490924    4.999308   -1.586776
     37          1           0       -2.641068    4.713734   -2.707747
     38          1           0        6.897215   -1.212145    0.393258
     39          1           0        7.192683   -1.326934   -1.339999
     40          1           0        6.174575   -0.034761   -0.703519
     41          1           0        4.372588   -5.166969   -0.670818
     42          6           0        4.284687   -4.083920   -0.757526
     43          8           0        1.946139   -4.120865   -1.153732
     44          6           0        3.001976   -3.503904   -1.014599
     45          1           0        2.113787   -1.680351   -1.286781
     46          7           0        3.001950   -2.126612   -1.105817
     47          8           0        3.981790   -0.078176   -1.074448
     48          6           0        4.081258   -1.288688   -0.977328
     49          1           0        6.353375   -3.684001   -0.431359
     50          6           0        5.355956   -3.292709   -0.627304
     51          6           0        6.464613   -1.068251   -0.585631
     52          7           0        5.282943   -1.922892   -0.730471
     53          1           0        3.045828    4.178533    3.157273
     54          1           0        1.946949    4.172316    1.951242
     55          1           0        3.541171    4.201431    1.602424
     56          1           0        1.067930   -2.794334    1.565858
     57          1           0        2.641493   -2.373595    2.072792
     58          7           0        1.729352   -2.077601    1.787130
     59          6           0        1.410211   -0.784297    1.705248
     60          6           0        1.825996    1.552519    1.872994
     61          7           0        0.593346    1.920752    1.486472
     62          1           0       -1.174983    1.059180    0.910882
     63          6           0       -0.155551    0.849639    1.231987
     64          7           0        0.162252   -0.446493    1.313403
     65          1           0        4.884289    1.928596    2.851543
     66          6           0        3.915649    1.538659    2.537503
     67          7           0        3.625508    0.265462    2.425878
     68          6           0        2.303474    0.260212    2.005251
     69          6           0        2.849815    3.849436    2.233537
     70          7           0        2.872889    2.373887    2.218477
 ---------------------------------------------------------------------

 SCF Done:  E(RwB97XD) =  -2048.73898162     A.U. after   15 cycles

 The electronic state is 1-A.
 Alpha  occ. eigenvalues --  -19.26074 -19.22420 -19.20837 -14.52718 -14.51348
 Alpha  occ. eigenvalues --  -14.48979 -14.48815 -14.48161 -14.47482 -14.47152
 Alpha  occ. eigenvalues --  -14.46832 -14.44374 -14.42824 -14.42749 -14.42306
 Alpha  occ. eigenvalues --  -14.42137 -14.41501 -14.40970 -14.40902 -14.40128
 Alpha  occ. eigenvalues --  -10.45736 -10.41603 -10.40504 -10.38570 -10.38486
 Alpha  occ. eigenvalues --  -10.38142 -10.36942 -10.35867 -10.35439 -10.35402
 Alpha  occ. eigenvalues --  -10.34567 -10.34260 -10.34157 -10.33455 -10.33404
 Alpha  occ. eigenvalues --  -10.33180 -10.33088 -10.31434 -10.31427 -10.31051
 Alpha  occ. eigenvalues --  -10.30969 -10.28582 -10.28402  -1.19669  -1.14094
 Alpha  occ. eigenvalues --   -1.13480  -1.13408  -1.11402  -1.10812  -1.09605
 Alpha  occ. eigenvalues --   -1.08984  -1.07888  -1.04972  -1.03476  -1.02807
 Alpha  occ. eigenvalues --   -1.00445  -1.00419  -0.99777  -0.98781  -0.97001
 Alpha  occ. eigenvalues --   -0.96787  -0.95444  -0.92615  -0.91367  -0.86489
 Alpha  occ. eigenvalues --   -0.84930  -0.84376  -0.83973  -0.83892  -0.82729
 Alpha  occ. eigenvalues --   -0.82343  -0.79185  -0.75818  -0.74910  -0.74114
 Alpha  occ. eigenvalues --   -0.73658  -0.73490  -0.72917  -0.71071  -0.69222
 Alpha  occ. eigenvalues --   -0.67797  -0.66844  -0.66316  -0.65578  -0.64739
 Alpha  occ. eigenvalues --   -0.64041  -0.63097  -0.62962  -0.62664  -0.62268
 Alpha  occ. eigenvalues --   -0.60218  -0.59844  -0.59807  -0.59380  -0.59106
 Alpha  occ. eigenvalues --   -0.59014  -0.58443  -0.56886  -0.56518  -0.56413
 Alpha  occ. eigenvalues --   -0.56218  -0.55392  -0.54908  -0.54655  -0.54203
 Alpha  occ. eigenvalues --   -0.53923  -0.53609  -0.53211  -0.52690  -0.52660
 Alpha  occ. eigenvalues --   -0.52260  -0.51751  -0.51687  -0.50746  -0.50412
 Alpha  occ. eigenvalues --   -0.50195  -0.49697  -0.49202  -0.49114  -0.48823
 Alpha  occ. eigenvalues --   -0.48600  -0.48517  -0.48200  -0.47721  -0.47643
 Alpha  occ. eigenvalues --   -0.46973  -0.45534  -0.45102  -0.44371  -0.43192
 Alpha  occ. eigenvalues --   -0.41175  -0.39683  -0.39507  -0.37792  -0.37496
 Alpha  occ. eigenvalues --   -0.37194  -0.36829  -0.36282  -0.35658  -0.34941
 Alpha  occ. eigenvalues --   -0.33609  -0.33564  -0.33504  -0.33138  -0.32923
 Alpha  occ. eigenvalues --   -0.32754  -0.32537  -0.32295  -0.32050  -0.30940
 Alpha  occ. eigenvalues --   -0.30349  -0.28720  -0.25787  -0.25709
 Alpha virt. eigenvalues --    0.02732   0.05117   0.07826   0.07932   0.08261
 Alpha virt. eigenvalues --    0.09239   0.09487   0.10968   0.11353   0.12269
 Alpha virt. eigenvalues --    0.12743   0.13934   0.14511   0.14652   0.14905

 Mulliken charges:
               1
     1  N   -0.311083
     2  C    0.181072
     3  C    0.030362
     4  N   -0.259008
     5  C    0.133512
     6  H    0.026605
     7  N   -0.291326
     8  C    0.133189
     9  H    0.008161
    10  N   -0.290008
    11  C    0.242796
    12  C    0.125910
    13  N   -0.056116
    14  H    0.109125
    15  H    0.089782
    16  H    0.025364
    17  H    0.034801
    18  H    0.026051
    19  N   -0.311167
    20  C    0.245503
    21  C    0.182236
    22  N   -0.113806
    23  H    0.116757
    24  H    0.117196
    25  N   -0.289443
    26  C    0.215906
    27  N   -0.118732
    28  H    0.116593
    29  C    0.156725
    30  O   -0.318688
    31  C   -0.005834
    32  N   -0.219321
    33  C    0.130347
    34  H    0.031309
    35  H    0.029651
    36  H    0.027686
    37  H    0.025125
    38  H    0.062740
    39  H    0.059497
    40  H    0.074646
    41  H    0.032514
    42  C   -0.112342
    43  O   -0.268390
    44  C    0.164803
    45  H    0.135683
    46  N   -0.132647
    47  O   -0.348610
    48  C    0.360298
    49  H    0.049574
    50  C    0.172145
    51  C    0.043727
    52  N   -0.296506
    53  H    0.032926
    54  H    0.046445
    55  H    0.005667
    56  H    0.127007
    57  H    0.112448
    58  N   -0.063813
    59  C    0.096906
    60  C    0.228601
    61  N   -0.257106
    62  H    0.053017
    63  C    0.150250
    64  N   -0.295791
    65  H    0.028461
    66  C    0.124829
    67  N   -0.266645
    68  C    0.029563
    69  C    0.175913
    70  N   -0.303042
 Sum of Mulliken charges =  -0.00000

 Dipole moment (field-independent basis, Debye):
    X=              8.7378    Y=              5.0991    Z=              1.9999  Tot=             10.3126
 Quadrupole moment (field-independent basis, Debye-Ang):
   XX=           -150.8415   YY=           -214.3399   ZZ=           -250.7098
   XY=             -0.6195   XZ=             11.7024   YZ=             -8.3067

 Normal termination of Gaussian 16 at Fri Jan 26 17:17:19 2018.
