 Gaussian 16, Revision A.03,
 Gaussian 16:  EM64L-G16RevA.03 25-Dec-2016

 ---------------------------------------
 #p wb97xd/cc-pvdz sp scf=(maxcycles=20)
 ---------------------------------------

 ------------------
 Base pair stacking
 ------------------
 Symbolic Z-matrix:
 Charge =  0 Multiplicity = 1

                         Standard orientation:
 ---------------------------------------------------------------------
 Center     Atomic      Atomic             Coordinates (Angstroms)
 Number     Number       Type             X           Y           Z
 ---------------------------------------------------------------------
      1          7           0       -6.507858   -1.671613    0.484487
      2          6           0       -7.915671   -1.231645    0.534336
      3          6           0       -4.316856   -1.747022    0.660988
      4          7           0       -4.704471   -2.963046    0.117131
      5          6           0       -6.008952   -2.868944    0.032556
      6          1           0       -6.663073   -3.650340   -0.355363
      7          7           0       -3.019736    0.024343    1.522757
      8          6           0       -4.170255    0.684829    1.688976
      9          1           0       -4.076109    1.683117    2.114199
     10          7           0       -5.413788    0.299100    1.410114
     11          6           0       -5.417511   -0.940579    0.892813
     12          6           0       -3.057061   -1.220807    0.999988
     13          7           0       -1.909630   -1.881707    0.833304
     14          1           0       -1.889853   -2.805727    0.449870
     15          1           0       -1.031145   -1.475975    1.085861
     16          1           0       -8.441487   -1.856882    1.111200
     17          1           0       -7.963910   -0.308536    0.914692
     18          1           0       -8.299561   -1.230337   -0.389041
     19          7           0       -2.372262    3.250246   -1.819627
     20          6           0       -1.101126    2.747217   -1.681020
     21          6           0       -2.732270    4.681994   -1.784884
     22          7           0        2.300619    3.258872   -1.203436
     23          1           0        3.126761    2.701361   -1.126580
     24          1           0        2.413926    4.250195   -1.131602
     25          7           0        0.023530    3.470546   -1.491311
     26          6           0        1.094569    2.703038   -1.394243
     27          7           0        1.068377    1.331886   -1.476405
     28          1           0        1.936639    0.826125   -1.391028
     29          6           0       -0.077289    0.566822   -1.671264
     30          8           0        0.008248   -0.666020   -1.730762
     31          6           0       -1.235975    1.377421   -1.777404
     32          7           0       -2.565021    1.027535   -1.972604
     33          6           0       -3.200333    2.167831   -1.990867
     34          1           0       -4.276918    2.276743   -2.126454
     35          1           0       -3.371878    4.848473   -1.035219
     36          1           0       -1.907111    5.227667   -1.644832
     37          1           0       -3.159030    4.941194   -2.650619
     38          1           0        6.488215   -1.130923   -0.248273
     39          1           0        6.624555   -1.297200   -1.997096
     40          1           0        5.695839    0.034993   -1.308536
     41          1           0        3.793279   -5.049862   -0.973406
     42          6           0        3.721441   -3.967599   -1.081912
     43          8           0        1.356544   -3.958432   -1.267153
     44          6           0        2.433723   -3.363681   -1.239718
     45          1           0        1.564422   -1.526871   -1.482126
     46          7           0        2.455353   -1.989584   -1.368676
     47          8           0        3.478205    0.034831   -1.481404
     48          6           0        3.559734   -1.174828   -1.360038
     49          1           0        5.819213   -3.609324   -0.952426
     50          6           0        4.816961   -3.199301   -1.069541
     51          6           0        5.972823   -1.001821   -1.188360
     52          7           0        4.764686   -1.831225   -1.203696
     53          1           0        3.589923    3.691714    3.877585
     54          1           0        2.411767    3.891930    2.766751
     55          1           0        3.977898    4.035960    2.330207
     56          1           0        1.620192   -2.883728    1.058131
     57          1           0        3.217668   -2.525719    1.537746
     58          7           0        2.283579   -2.205871    1.375278
     59          6           0        1.938950   -0.931790    1.573057
     60          6           0        2.327720    1.336899    2.176112
     61          7           0        1.065900    1.738103    1.949756
     62          1           0       -0.723480    0.956035    1.327569
     63          6           0        0.318661    0.717022    1.535113
     64          7           0        0.661975   -0.559787    1.336391
     65          1           0        5.439102    1.601274    3.013754
     66          6           0        4.457701    1.252987    2.690485
     67          7           0        4.181055    0.019052    2.346170
     68          6           0        2.833725    0.058452    2.017751
     69          6           0        3.336803    3.546126    2.921167
     70          7           0        3.382419    2.103987    2.611087
 ---------------------------------------------------------------------

 SCF Done:  E(RwB97XD) =  -2048.73971796     A.U. after   15 cycles

 The electronic state is 1-A.
 Alpha  occ. eigenvalues --  -19.26326 -19.23022 -19.20885 -14.53043 -14.51563
 Alpha  occ. eigenvalues --  -14.48964 -14.48318 -14.48218 -14.47260 -14.47222
 Alpha  occ. eigenvalues --  -14.46937 -14.44639 -14.43213 -14.43157 -14.42335
 Alpha  occ. eigenvalues --  -14.41557 -14.40976 -14.40960 -14.40368 -14.39619
 Alpha  occ. eigenvalues --  -10.45955 -10.41594 -10.40960 -10.38813 -10.38572
 Alpha  occ. eigenvalues --  -10.38494 -10.37175 -10.36173 -10.35497 -10.34843
 Alpha  occ. eigenvalues --  -10.34627 -10.34592 -10.33629 -10.33415 -10.33197
 Alpha  occ. eigenvalues --  -10.32862 -10.32569 -10.31824 -10.31706 -10.31074
 Alpha  occ. eigenvalues --  -10.30605 -10.28348 -10.28011  -1.19925  -1.14268
 Alpha  occ. eigenvalues --   -1.13980  -1.13495  -1.10878  -1.10801  -1.09922
 Alpha  occ. eigenvalues --   -1.08900  -1.08209  -1.04433  -1.03856  -1.03015
 Alpha  occ. eigenvalues --   -1.00188  -1.00074  -0.99857  -0.98812  -0.96782
 Alpha  occ. eigenvalues --   -0.96495  -0.95736  -0.92073  -0.91746  -0.86682
 Alpha  occ. eigenvalues --   -0.85065  -0.84345  -0.84064  -0.83478  -0.82710
 Alpha  occ. eigenvalues --   -0.81865  -0.79526  -0.76082  -0.74890  -0.74049
 Alpha  occ. eigenvalues --   -0.73896  -0.73765  -0.72388  -0.70541  -0.69484
 Alpha  occ. eigenvalues --   -0.67734  -0.67107  -0.65829  -0.65785  -0.64945
 Alpha  occ. eigenvalues --   -0.64106  -0.63346  -0.62992  -0.62172  -0.62088
 Alpha  occ. eigenvalues --   -0.60195  -0.60062  -0.59789  -0.59616  -0.58934
 Alpha  occ. eigenvalues --   -0.58786  -0.58601  -0.56817  -0.56394  -0.56062
 Alpha  occ. eigenvalues --   -0.55987  -0.54953  -0.54877  -0.54714  -0.54326
 Alpha  occ. eigenvalues --   -0.53996  -0.53807  -0.53265  -0.52916  -0.52828
 Alpha  occ. eigenvalues --   -0.52700  -0.51899  -0.51332  -0.50532  -0.50250
 Alpha  occ. eigenvalues --   -0.49974  -0.49725  -0.49376  -0.49058  -0.49026
 Alpha  occ. eigenvalues --   -0.48552  -0.48327  -0.48167  -0.47921  -0.47734
 Alpha  occ. eigenvalues --   -0.46470  -0.45743  -0.44708  -0.44565  -0.43694
 Alpha  occ. eigenvalues --   -0.40602  -0.39882  -0.39750  -0.37597  -0.37523
 Alpha  occ. eigenvalues --   -0.37444  -0.36671  -0.36536  -0.35703  -0.34522
 Alpha  occ. eigenvalues --   -0.34081  -0.33831  -0.33266  -0.33095  -0.32932
 Alpha  occ. eigenvalues --   -0.32792  -0.32744  -0.32564  -0.32016  -0.30411
 Alpha  occ. eigenvalues --   -0.29873  -0.28976  -0.25764  -0.25171
 Alpha virt. eigenvalues --    0.02189   0.04961   0.07424   0.08399   0.08536
 Alpha virt. eigenvalues --    0.09077   0.09460   0.11352   0.11642   0.11896
 Alpha virt. eigenvalues --    0.12562   0.14255   0.14666   0.14837   0.15344

 Mulliken charges:
               1
     1  N   -0.311225
     2  C    0.181170
     3  C    0.035901
     4  N   -0.258006
     5  C    0.132474
     6  H    0.024701
     7  N   -0.296677
     8  C    0.136788
     9  H    0.008113
    10  N   -0.292825
    11  C    0.243114
    12  C    0.124246
    13  N   -0.052133
    14  H    0.112550
    15  H    0.091782
    16  H    0.024359
    17  H    0.033730
    18  H    0.024927
    19  N   -0.312434
    20  C    0.249349
    21  C    0.181270
    22  N   -0.123940
    23  H    0.115147
    24  H    0.116666
    25  N   -0.307261
    26  C    0.243595
    27  N   -0.138603
    28  H    0.113063
    29  C    0.172333
    30  O   -0.319507
    31  C   -0.000447
    32  N   -0.223331
    33  C    0.130362
    34  H    0.029320
    35  H    0.029419
    36  H    0.028378
    37  H    0.025229
    38  H    0.065797
    39  H    0.059258
    40  H    0.075559
    41  H    0.033400
    42  C   -0.103072
    43  O   -0.265378
    44  C    0.127883
    45  H    0.135401
    46  N   -0.109215
    47  O   -0.346111
    48  C    0.349547
    49  H    0.051453
    50  C    0.164308
    51  C    0.043151
    52  N   -0.287121
    53  H    0.031998
    54  H    0.044563
    55  H    0.021119
    56  H    0.129576
    57  H    0.111498
    58  N   -0.065382
    59  C    0.086581
    60  C    0.239110
    61  N   -0.264762
    62  H    0.043593
    63  C    0.165408
    64  N   -0.301879
    65  H    0.031688
    66  C    0.134085
    67  N   -0.270126
    68  C    0.029070
    69  C    0.180297
    70  N   -0.312892
 Sum of Mulliken charges =  -0.00000

 Dipole moment (field-independent basis, Debye):
    X=              9.5196    Y=              5.2768    Z=              0.8528  Tot=             10.9176
 Quadrupole moment (field-independent basis, Debye-Ang):
   XX=           -155.6440   YY=           -212.4344   ZZ=           -249.0094
   XY=             -4.2258   XZ=              6.6469   YZ=             -3.2948

 Normal termination of Gaussian 16 at Fri Jan 26 09:57:32 2018.
