 Gaussian 16, Revision A.03,
 Gaussian 16:  EM64L-G16RevA.03 25-Dec-2016

 ---------------------------------------
 #p wb97xd/cc-pvdz sp scf=(maxcycles=20)
 ---------------------------------------

 ------------------
 Base pair stacking
 ------------------
 Symbolic Z-matrix:
 Charge =  0 Multiplicity = 1

                         Standard orientation:
 ---------------------------------------------------------------------
 Center     Atomic      Atomic             Coordinates (Angstroms)
 Number     Number       Type             X           Y           Z
 ---------------------------------------------------------------------
      1          7           0        4.941910   -2.150283   -1.587630
      2          6           0        6.343899   -1.779629   -1.861586
      3          6           0        2.752347   -2.105985   -1.384699
      4          7           0        3.155117   -3.367066   -0.969767
      5          6           0        4.458128   -3.343282   -1.108633
      6          1           0        5.121895   -4.176052   -0.874401
      7          7           0        1.433320   -0.228441   -1.930550
      8          6           0        2.575311    0.381239   -2.264800
      9          1           0        2.468669    1.404137   -2.623358
     10          7           0        3.823386   -0.080758   -2.222817
     11          6           0        3.842641   -1.344746   -1.768489
     12          6           0        1.486245   -1.499859   -1.476902
     13          7           0        0.347350   -2.110139   -1.142748
     14          1           0        0.339156   -3.051019   -0.802313
     15          1           0       -0.536016   -1.647940   -1.221264
     16          1           0        6.725919   -2.399053   -2.547558
     17          1           0        6.380547   -0.841253   -2.203973
     18          1           0        6.879191   -1.846582   -1.019580
     19          7           0        4.147609    3.159742    1.035583
     20          6           0        2.843734    2.742416    1.153116
     21          6           0        4.579996    4.549851    0.787915
     22          7           0       -0.554650    3.458436    1.158698
     23          1           0       -1.413354    2.959724    1.273424
     24          1           0       -0.620159    4.443438    0.996881
     25          7           0        1.747321    3.525855    1.062808
     26          6           0        0.631873    2.835194    1.218981
     27          7           0        0.591108    1.480869    1.446286
     28          1           0       -0.307447    1.035838    1.553524
     29          6           0        1.706636    0.654965    1.542956
     30          8           0        1.560194   -0.555951    1.750243
     31          6           0        2.912385    1.382700    1.377293
     32          7           0        4.232781    0.955005    1.400043
     33          6           0        4.927969    2.040480    1.193504
     34          1           0        6.016743    2.081076    1.146692
     35          1           0        5.097414    4.592607   -0.066046
     36          1           0        3.776284    5.139425    0.719174
     37          1           0        5.156576    4.860826    1.542672
     38          1           0       -5.090704   -0.677206    1.356925
     39          1           0       -4.949555   -0.658487    3.113161
     40          1           0       -4.069452    0.525242    2.145922
     41          1           0       -2.546781   -4.696328    2.079200
     42          6           0       -2.395223   -3.617117    2.055513
     43          8           0       -0.035314   -3.767413    1.867440
     44          6           0       -1.066013   -3.099032    1.943157
     45          1           0       -0.063212   -1.317805    1.843576
     46          7           0       -0.986157   -1.721200    1.922050
     47          8           0       -1.857141    0.375538    1.969705
     48          6           0       -2.027754   -0.830628    1.996278
     49          1           0       -4.461534   -3.116786    2.216252
     50          6           0       -3.431414   -2.773673    2.129795
     51          6           0       -4.422294   -0.494603    2.185149
     52          7           0       -3.278275   -1.406853    2.102927
     53          1           0       -5.254655    3.886269   -2.941753
     54          1           0       -3.894461    3.967829   -2.044344
     55          1           0       -5.351885    4.167075   -1.337031
     56          1           0       -3.221646   -2.920090   -0.795614
     57          1           0       -4.853751   -2.457310   -0.974954
     58          7           0       -3.888512   -2.193881   -0.963114
     59          6           0       -3.508582   -0.930042   -1.161967
     60          6           0       -3.860836    1.384082   -1.589088
     61          7           0       -2.557557    1.708790   -1.567674
     62          1           0       -0.737233    0.805854   -1.299810
     63          6           0       -1.811709    0.630883   -1.333731
     64          7           0       -2.190353   -0.635790   -1.134306
     65          1           0       -7.048593    1.848597   -1.862282
     66          6           0       -6.048560    1.434760   -1.729542
     67          7           0       -5.790062    0.171964   -1.492481
     68          6           0       -4.406481    0.126103   -1.401234
     69          6           0       -4.850953    3.677647   -2.050967
     70          7           0       -4.927473    2.225213   -1.800786
 ---------------------------------------------------------------------

 SCF Done:  E(RwB97XD) =  -2048.74642963     A.U. after   15 cycles

 The electronic state is 1-A.
 Alpha  occ. eigenvalues --  -19.25612 -19.21938 -19.20572 -14.52451 -14.52319
 Alpha  occ. eigenvalues --  -14.48890 -14.48701 -14.47874 -14.47621 -14.46893
 Alpha  occ. eigenvalues --  -14.46644 -14.45463 -14.44619 -14.44501 -14.42111
 Alpha  occ. eigenvalues --  -14.42055 -14.40974 -14.40489 -14.40305 -14.39877
 Alpha  occ. eigenvalues --  -10.45300 -10.41260 -10.40227 -10.40058 -10.38225
 Alpha  occ. eigenvalues --  -10.38031 -10.38000 -10.37297 -10.35919 -10.35016
 Alpha  occ. eigenvalues --  -10.34933 -10.34417 -10.33854 -10.33415 -10.33237
 Alpha  occ. eigenvalues --  -10.32826 -10.32607 -10.32525 -10.31233 -10.31050
 Alpha  occ. eigenvalues --  -10.30120 -10.28163 -10.27820  -1.19215  -1.15224
 Alpha  occ. eigenvalues --   -1.13204  -1.12934  -1.10644  -1.10489  -1.09600
 Alpha  occ. eigenvalues --   -1.09183  -1.08559  -1.05101  -1.04537  -1.02300
 Alpha  occ. eigenvalues --   -1.01035  -0.99987  -0.99732  -0.98574  -0.97095
 Alpha  occ. eigenvalues --   -0.96674  -0.96169  -0.92230  -0.91134  -0.87702
 Alpha  occ. eigenvalues --   -0.85926  -0.84187  -0.83445  -0.83171  -0.82590
 Alpha  occ. eigenvalues --   -0.81571  -0.78857  -0.77191  -0.74985  -0.74669
 Alpha  occ. eigenvalues --   -0.73644  -0.73225  -0.72340  -0.70619  -0.70404
 Alpha  occ. eigenvalues --   -0.67398  -0.67035  -0.66451  -0.65741  -0.64501
 Alpha  occ. eigenvalues --   -0.64379  -0.63781  -0.62663  -0.62170  -0.61776
 Alpha  occ. eigenvalues --   -0.60716  -0.60320  -0.60013  -0.59521  -0.59349
 Alpha  occ. eigenvalues --   -0.59304  -0.58352  -0.56714  -0.56071  -0.55876
 Alpha  occ. eigenvalues --   -0.55486  -0.55344  -0.55032  -0.54499  -0.54230
 Alpha  occ. eigenvalues --   -0.53783  -0.53660  -0.53512  -0.53084  -0.52982
 Alpha  occ. eigenvalues --   -0.52872  -0.52296  -0.51069  -0.50234  -0.50078
 Alpha  occ. eigenvalues --   -0.49936  -0.49574  -0.49436  -0.49265  -0.48828
 Alpha  occ. eigenvalues --   -0.48378  -0.48334  -0.48136  -0.47773  -0.47289
 Alpha  occ. eigenvalues --   -0.46298  -0.45694  -0.45381  -0.44257  -0.43808
 Alpha  occ. eigenvalues --   -0.40787  -0.40595  -0.39260  -0.37820  -0.37697
 Alpha  occ. eigenvalues --   -0.37316  -0.37313  -0.36424  -0.35681  -0.34948
 Alpha  occ. eigenvalues --   -0.34557  -0.33971  -0.33166  -0.32877  -0.32754
 Alpha  occ. eigenvalues --   -0.32674  -0.32523  -0.32078  -0.31900  -0.30314
 Alpha  occ. eigenvalues --   -0.30236  -0.29867  -0.25541  -0.25240
 Alpha virt. eigenvalues --    0.02546   0.04312   0.06686   0.08534   0.08813
 Alpha virt. eigenvalues --    0.09222   0.09762   0.10504   0.11226   0.11570
 Alpha virt. eigenvalues --    0.13223   0.14518   0.14587   0.14800   0.15115

 Mulliken charges:
               1
     1  N   -0.313143
     2  C    0.183037
     3  C    0.051091
     4  N   -0.256016
     5  C    0.139936
     6  H    0.025306
     7  N   -0.300657
     8  C    0.135531
     9  H    0.009109
    10  N   -0.286159
    11  C    0.260795
    12  C    0.104439
    13  N   -0.068097
    14  H    0.113315
    15  H    0.081695
    16  H    0.021379
    17  H    0.031971
    18  H    0.028610
    19  N   -0.311424
    20  C    0.250295
    21  C    0.180720
    22  N   -0.118372
    23  H    0.115216
    24  H    0.116517
    25  N   -0.311684
    26  C    0.246281
    27  N   -0.148844
    28  H    0.119361
    29  C    0.196539
    30  O   -0.321667
    31  C   -0.014832
    32  N   -0.227682
    33  C    0.129199
    34  H    0.023014
    35  H    0.028257
    36  H    0.029190
    37  H    0.024821
    38  H    0.055825
    39  H    0.060372
    40  H    0.074775
    41  H    0.029870
    42  C   -0.119868
    43  O   -0.260060
    44  C    0.169993
    45  H    0.133225
    46  N   -0.124342
    47  O   -0.347215
    48  C    0.347051
    49  H    0.043304
    50  C    0.159180
    51  C    0.039071
    52  N   -0.277363
    53  H    0.034535
    54  H    0.041191
    55  H    0.028992
    56  H    0.116701
    57  H    0.116315
    58  N   -0.059679
    59  C    0.089641
    60  C    0.252183
    61  N   -0.274315
    62  H    0.036980
    63  C    0.176491
    64  N   -0.315525
    65  H    0.038820
    66  C    0.140281
    67  N   -0.266295
    68  C    0.026673
    69  C    0.179680
    70  N   -0.313532
 Sum of Mulliken charges =  -0.00000

 Dipole moment (field-independent basis, Debye):
    X=             -9.0315    Y=              5.9743    Z=             -0.4275  Tot=             10.8371
 Quadrupole moment (field-independent basis, Debye-Ang):
   XX=           -167.7305   YY=           -211.0108   ZZ=           -250.1927
   XY=              5.9138   XZ=            -11.7253   YZ=              2.1560

 Normal termination of Gaussian 16 at Fri Jan 26 00:52:28 2018.
