 Gaussian 16, Revision A.03,
 Gaussian 16:  EM64L-G16RevA.03 25-Dec-2016

 ---------------------------------------
 #p wb97xd/cc-pvdz sp scf=(maxcycles=20)
 ---------------------------------------

 ------------------
 Base pair stacking
 ------------------
 Symbolic Z-matrix:
 Charge =  0 Multiplicity = 1

                         Standard orientation:
 ---------------------------------------------------------------------
 Center     Atomic      Atomic             Coordinates (Angstroms)
 Number     Number       Type             X           Y           Z
 ---------------------------------------------------------------------
      1          7           0       -5.309974   -2.124773    1.338013
      2          6           0       -6.710766   -1.767179    1.634543
      3          6           0       -3.116684   -2.093810    1.177370
      4          7           0       -3.531419   -3.284602    0.598802
      5          6           0       -4.836196   -3.255594    0.718743
      6          1           0       -5.508470   -4.039947    0.369783
      7          7           0       -1.778737   -0.324517    1.978906
      8          6           0       -2.916982    0.257858    2.369817
      9          1           0       -2.800976    1.224837    2.857415
     10          7           0       -4.171119   -0.172882    2.249416
     11          6           0       -4.201784   -1.368336    1.637542
     12          6           0       -1.843183   -1.526826    1.366223
     13          7           0       -0.708052   -2.109758    0.975276
     14          1           0       -0.708313   -2.999739    0.517946
     15          1           0        0.180829   -1.677003    1.126122
     16          1           0       -7.114704   -2.461899    2.229837
     17          1           0       -6.739026   -0.879422    2.093034
     18          1           0       -7.231715   -1.717081    0.782430
     19          7           0       -3.754157    3.315362   -1.192646
     20          6           0       -2.456661    2.873299   -1.288239
     21          6           0       -4.164872    4.718646   -0.985766
     22          7           0        0.953296    3.532019   -1.285001
     23          1           0        1.804304    3.016127   -1.379284
     24          1           0        1.034207    4.519777   -1.149023
     25          7           0       -1.347880    3.640437   -1.209887
     26          6           0       -0.243106    2.927297   -1.338362
     27          7           0       -0.223498    1.566866   -1.529050
     28          1           0        0.668204    1.104160   -1.616969
     29          6           0       -1.352051    0.757417   -1.612805
     30          8           0       -1.224520   -0.460907   -1.786440
     31          6           0       -2.546571    1.509391   -1.476566
     32          7           0       -3.873797    1.103353   -1.498752
     33          6           0       -4.552094    2.205453   -1.327009
     34          1           0       -5.640357    2.265483   -1.290267
     35          1           0       -4.688118    4.792959   -0.137541
     36          1           0       -3.351853    5.296331   -0.926195
     37          1           0       -4.730222    5.018828   -1.753291
     38          1           0        5.420116   -0.682680   -1.335314
     39          1           0        5.292958   -0.708770   -3.092529
     40          1           0        4.425518    0.515046   -2.164532
     41          1           0        2.814223   -4.676680   -1.970845
     42          6           0        2.680779   -3.594839   -1.977252
     43          8           0        0.317269   -3.700572   -1.804662
     44          6           0        1.359689   -3.051788   -1.889725
     45          1           0        0.386431   -1.252007   -1.846022
     46          7           0        1.303006   -1.672736   -1.906102
     47          8           0        2.209693    0.407124   -2.002594
     48          6           0        2.360073   -0.802012   -1.995518
     49          1           0        4.756450   -3.133595   -2.134299
     50          6           0        3.731635   -2.771127   -2.065525
     51          6           0        4.761352   -0.511237   -2.173598
     52          7           0        3.601452   -1.401702   -2.076438
     53          1           0        4.952947    3.509243    3.612634
     54          1           0        3.610643    3.728264    2.711335
     55          1           0        5.083541    3.989962    2.058518
     56          1           0        2.853629   -2.932088    0.584830
     57          1           0        4.489213   -2.524820    0.847688
     58          7           0        3.528556   -2.244977    0.854081
     59          6           0        3.164760   -1.010136    1.206212
     60          6           0        3.545134    1.224342    1.930192
     61          7           0        2.247656    1.572155    1.929507
     62          1           0        0.418675    0.742968    1.519783
     63          6           0        1.489512    0.546093    1.548298
     64          7           0        1.851973   -0.691454    1.195221
     65          1           0        6.734254    1.593844    2.311189
     66          6           0        5.730473    1.218017    2.110868
     67          7           0        5.456731    0.000363    1.710789
     68          6           0        4.074479   -0.009029    1.592368
     69          6           0        4.562230    3.422702    2.696199
     70          7           0        4.620691    2.012722    2.264309
 ---------------------------------------------------------------------

 SCF Done:  E(RwB97XD) =  -2048.74241223     A.U. after   15 cycles

 The electronic state is 1-A.
 Alpha  occ. eigenvalues --  -19.26017 -19.22498 -19.20720 -14.52702 -14.52216
 Alpha  occ. eigenvalues --  -14.48955 -14.48274 -14.48089 -14.47783 -14.47096
 Alpha  occ. eigenvalues --  -14.46881 -14.45292 -14.44239 -14.44127 -14.42196
 Alpha  occ. eigenvalues --  -14.41499 -14.41009 -14.40367 -14.40075 -14.39547
 Alpha  occ. eigenvalues --  -10.45700 -10.41427 -10.40600 -10.39864 -10.38412
 Alpha  occ. eigenvalues --  -10.38351 -10.37827 -10.37003 -10.35545 -10.35231
 Alpha  occ. eigenvalues --  -10.34648 -10.34501 -10.33641 -10.33450 -10.33105
 Alpha  occ. eigenvalues --  -10.32540 -10.32430 -10.32302 -10.31601 -10.31097
 Alpha  occ. eigenvalues --  -10.30135 -10.28255 -10.27598  -1.19621  -1.14979
 Alpha  occ. eigenvalues --   -1.13478  -1.13350  -1.10738  -1.10362  -1.09680
 Alpha  occ. eigenvalues --   -1.09184  -1.08725  -1.04776  -1.04219  -1.02764
 Alpha  occ. eigenvalues --   -1.00805  -0.99938  -0.99620  -0.98707  -0.96760
 Alpha  occ. eigenvalues --   -0.96756  -0.96000  -0.91897  -0.91569  -0.87429
 Alpha  occ. eigenvalues --   -0.85683  -0.84280  -0.83801  -0.83033  -0.82672
 Alpha  occ. eigenvalues --   -0.81448  -0.79289  -0.76911  -0.74797  -0.74665
 Alpha  occ. eigenvalues --   -0.73842  -0.73641  -0.72084  -0.70352  -0.70171
 Alpha  occ. eigenvalues --   -0.67570  -0.66856  -0.66745  -0.65475  -0.64743
 Alpha  occ. eigenvalues --   -0.64169  -0.63996  -0.62841  -0.61933  -0.61877
 Alpha  occ. eigenvalues --   -0.60528  -0.60137  -0.60045  -0.59797  -0.59331
 Alpha  occ. eigenvalues --   -0.59059  -0.58560  -0.56777  -0.56180  -0.55830
 Alpha  occ. eigenvalues --   -0.55466  -0.55088  -0.54802  -0.54597  -0.54149
 Alpha  occ. eigenvalues --   -0.53864  -0.53712  -0.53468  -0.53342  -0.53164
 Alpha  occ. eigenvalues --   -0.52636  -0.52623  -0.50954  -0.50383  -0.49905
 Alpha  occ. eigenvalues --   -0.49762  -0.49667  -0.49364  -0.49139  -0.49071
 Alpha  occ. eigenvalues --   -0.48594  -0.48440  -0.48095  -0.47876  -0.47510
 Alpha  occ. eigenvalues --   -0.46123  -0.45804  -0.45435  -0.44112  -0.43930
 Alpha  occ. eigenvalues --   -0.40506  -0.40288  -0.39602  -0.37500  -0.37463
 Alpha  occ. eigenvalues --   -0.37421  -0.37401  -0.36263  -0.36097  -0.34685
 Alpha  occ. eigenvalues --   -0.34269  -0.34061  -0.33604  -0.32835  -0.32707
 Alpha  occ. eigenvalues --   -0.32665  -0.32547  -0.32372  -0.32004  -0.30072
 Alpha  occ. eigenvalues --   -0.29961  -0.29633  -0.25668  -0.24901
 Alpha virt. eigenvalues --    0.02067   0.04393   0.07129   0.08223   0.08886
 Alpha virt. eigenvalues --    0.09112   0.09628   0.10705   0.11245   0.11857
 Alpha virt. eigenvalues --    0.13213   0.14407   0.14672   0.14869   0.15247

 Mulliken charges:
               1
     1  N   -0.312978
     2  C    0.182110
     3  C    0.046678
     4  N   -0.254968
     5  C    0.137203
     6  H    0.024079
     7  N   -0.302144
     8  C    0.137361
     9  H    0.007687
    10  N   -0.290422
    11  C    0.256865
    12  C    0.110438
    13  N   -0.062647
    14  H    0.113934
    15  H    0.082035
    16  H    0.022143
    17  H    0.032102
    18  H    0.026377
    19  N   -0.311771
    20  C    0.249518
    21  C    0.180757
    22  N   -0.121323
    23  H    0.115058
    24  H    0.117230
    25  N   -0.311394
    26  C    0.247895
    27  N   -0.152566
    28  H    0.121312
    29  C    0.199378
    30  O   -0.320770
    31  C   -0.014775
    32  N   -0.226087
    33  C    0.130103
    34  H    0.024431
    35  H    0.028598
    36  H    0.029088
    37  H    0.025065
    38  H    0.059618
    39  H    0.060650
    40  H    0.075255
    41  H    0.031995
    42  C   -0.124712
    43  O   -0.263112
    44  C    0.167112
    45  H    0.132337
    46  N   -0.117884
    47  O   -0.344885
    48  C    0.340966
    49  H    0.045812
    50  C    0.155223
    51  C    0.038757
    52  N   -0.272164
    53  H    0.033859
    54  H    0.043082
    55  H    0.027505
    56  H    0.118705
    57  H    0.113698
    58  N   -0.057154
    59  C    0.095432
    60  C    0.249040
    61  N   -0.272513
    62  H    0.039477
    63  C    0.173934
    64  N   -0.315554
    65  H    0.037313
    66  C    0.139291
    67  N   -0.270890
    68  C    0.027589
    69  C    0.179527
    70  N   -0.312912
 Sum of Mulliken charges =  -0.00000

 Dipole moment (field-independent basis, Debye):
    X=              9.2903    Y=              5.9440    Z=              0.0584  Tot=             11.0293
 Quadrupole moment (field-independent basis, Debye-Ang):
   XX=           -165.2736   YY=           -211.3571   ZZ=           -248.6662
   XY=             -5.6279   XZ=             -7.5880   YZ=              0.5104

 Normal termination of Gaussian 16 at Fri Jan 26 10:08:34 2018.
