 Gaussian 16, Revision A.03,
 Gaussian 16:  EM64L-G16RevA.03 25-Dec-2016

 ---------------------------------------
 #p wb97xd/cc-pvdz sp scf=(maxcycles=20)
 ---------------------------------------

 ------------------
 Base pair stacking
 ------------------
 Symbolic Z-matrix:
 Charge =  0 Multiplicity = 1

                         Standard orientation:
 ---------------------------------------------------------------------
 Center     Atomic      Atomic             Coordinates (Angstroms)
 Number     Number       Type             X           Y           Z
 ---------------------------------------------------------------------
      1          7           0       -6.981544   -1.587530    0.188837
      2          6           0       -8.380360   -1.127654    0.089643
      3          6           0       -4.806405   -1.663356    0.505617
      4          7           0       -5.187482   -2.940971    0.121921
      5          6           0       -6.482672   -2.844150   -0.053575
      6          1           0       -7.129615   -3.665747   -0.362415
      7          7           0       -3.524195    0.198862    1.177175
      8          6           0       -4.668279    0.890714    1.176311
      9          1           0       -4.577851    1.939226    1.456863
     10          7           0       -5.901494    0.483722    0.882305
     11          6           0       -5.901431   -0.818151    0.551328
     12          6           0       -3.557465   -1.108802    0.839571
     13          7           0       -2.416449   -1.801091    0.839849
     14          1           0       -2.394011   -2.771430    0.596610
     15          1           0       -1.545655   -1.373663    1.083056
     16          1           0       -8.951519   -1.655249    0.718614
     17          1           0       -8.431049   -0.158308    0.328264
     18          1           0       -8.710323   -1.256682   -0.845487
     19          7           0       -1.855924    3.053963   -1.881852
     20          6           0       -0.591594    2.568253   -1.650278
     21          6           0       -2.238148    4.480288   -1.868777
     22          7           0        2.757100    3.125556   -0.917226
     23          1           0        3.583134    2.579385   -0.780782
     24          1           0        2.850387    4.118021   -0.833370
     25          7           0        0.505137    3.306459   -1.374115
     26          6           0        1.576879    2.553686   -1.199957
     27          7           0        1.576709    1.182713   -1.289018
     28          1           0        2.443351    0.688842   -1.140733
     29          6           0        0.460002    0.402498   -1.572067
     30          8           0        0.567552   -0.828699   -1.629631
     31          6           0       -0.699058    1.197181   -1.761668
     32          7           0       -2.004573    0.829520   -2.057226
     33          6           0       -2.653134    1.960798   -2.118728
     34          1           0       -3.717998    2.055173   -2.334205
     35          1           0       -2.934424    4.634101   -1.168524
     36          1           0       -1.433759    5.036877   -1.665243
     37          1           0       -2.602592    4.737631   -2.763072
     38          1           0        6.924372   -1.209273    0.332465
     39          1           0        7.193646   -1.365134   -1.401846
     40          1           0        6.196860   -0.049539   -0.779775
     41          1           0        4.348149   -5.162302   -0.607340
     42          6           0        4.269022   -4.080648   -0.716831
     43          8           0        1.924747   -4.103958   -1.078719
     44          6           0        2.988151   -3.494206   -0.968408
     45          1           0        2.113012   -1.668691   -1.268346
     46          7           0        2.999529   -2.119331   -1.090207
     47          8           0        3.998618   -0.080163   -1.118331
     48          6           0        4.088286   -1.289125   -0.995765
     49          1           0        6.345828   -3.693428   -0.429170
     50          6           0        5.349339   -3.297034   -0.619518
     51          6           0        6.478999   -1.082901   -0.643099
     52          7           0        5.287505   -1.929194   -0.752044
     53          1           0        3.014366    4.089344    3.366655
     54          1           0        1.906584    4.139454    2.169822
     55          1           0        3.497927    4.198736    1.811789
     56          1           0        1.072780   -2.802950    1.419339
     57          1           0        2.647136   -2.398403    1.936863
     58          7           0        1.730871   -2.094240    1.673871
     59          6           0        1.402229   -0.800780    1.663406
     60          6           0        1.803117    1.526737    1.952700
     61          7           0        0.565109    1.906071    1.595118
     62          1           0       -1.201480    1.063560    0.986884
     63          6           0       -0.178256    0.844620    1.289120
     64          7           0        0.149076   -0.451656    1.298983
     65          1           0        4.865960    1.872355    2.928266
     66          6           0        3.897716    1.492682    2.600718
     67          7           0        3.615543    0.225167    2.423341
     68          6           0        2.290475    0.232732    2.012410
     69          6           0        2.813741    3.808556    2.428087
     70          7           0        2.846868    2.336124    2.334119
 ---------------------------------------------------------------------

 SCF Done:  E(RwB97XD) =  -2048.74237630     A.U. after   15 cycles

 The electronic state is 1-A.
 Alpha  occ. eigenvalues --  -19.26131 -19.22576 -19.20893 -14.52802 -14.51243
 Alpha  occ. eigenvalues --  -14.49007 -14.48754 -14.48239 -14.47532 -14.47271
 Alpha  occ. eigenvalues --  -14.46635 -14.44288 -14.42725 -14.42698 -14.42394
 Alpha  occ. eigenvalues --  -14.42022 -14.41436 -14.41001 -14.40820 -14.40044
 Alpha  occ. eigenvalues --  -10.45802 -10.41673 -10.40636 -10.38542 -10.38430
 Alpha  occ. eigenvalues --  -10.38244 -10.36845 -10.35789 -10.35496 -10.35313
 Alpha  occ. eigenvalues --  -10.34616 -10.34191 -10.34091 -10.33475 -10.33334
 Alpha  occ. eigenvalues --  -10.33020 -10.33005 -10.31519 -10.31325 -10.31072
 Alpha  occ. eigenvalues --  -10.30924 -10.28506 -10.28428  -1.19737  -1.13969
 Alpha  occ. eigenvalues --   -1.13561  -1.13526  -1.11337  -1.10847  -1.09689
 Alpha  occ. eigenvalues --   -1.09021  -1.07758  -1.04889  -1.03370  -1.02887
 Alpha  occ. eigenvalues --   -1.00405  -1.00328  -0.99709  -0.98842  -0.96930
 Alpha  occ. eigenvalues --   -0.96821  -0.95319  -0.92528  -0.91461  -0.86359
 Alpha  occ. eigenvalues --   -0.84786  -0.84402  -0.83963  -0.83907  -0.82751
 Alpha  occ. eigenvalues --   -0.82279  -0.79275  -0.75698  -0.74942  -0.74136
 Alpha  occ. eigenvalues --   -0.73746  -0.73374  -0.72838  -0.70992  -0.69092
 Alpha  occ. eigenvalues --   -0.67829  -0.66928  -0.66235  -0.65450  -0.64808
 Alpha  occ. eigenvalues --   -0.64089  -0.63026  -0.62936  -0.62574  -0.62248
 Alpha  occ. eigenvalues --   -0.60135  -0.59906  -0.59888  -0.59231  -0.59008
 Alpha  occ. eigenvalues --   -0.58885  -0.58324  -0.56882  -0.56439  -0.56362
 Alpha  occ. eigenvalues --   -0.56279  -0.55297  -0.54806  -0.54716  -0.54085
 Alpha  occ. eigenvalues --   -0.53975  -0.53681  -0.53255  -0.52744  -0.52572
 Alpha  occ. eigenvalues --   -0.52253  -0.51686  -0.51573  -0.50679  -0.50472
 Alpha  occ. eigenvalues --   -0.50122  -0.49781  -0.49217  -0.49118  -0.48905
 Alpha  occ. eigenvalues --   -0.48568  -0.48521  -0.48139  -0.47751  -0.47683
 Alpha  occ. eigenvalues --   -0.46897  -0.45503  -0.45032  -0.44474  -0.43227
 Alpha  occ. eigenvalues --   -0.41092  -0.39734  -0.39424  -0.37754  -0.37551
 Alpha  occ. eigenvalues --   -0.37120  -0.36883  -0.36204  -0.35644  -0.34940
 Alpha  occ. eigenvalues --   -0.33706  -0.33539  -0.33438  -0.33079  -0.32968
 Alpha  occ. eigenvalues --   -0.32690  -0.32550  -0.32398  -0.32090  -0.30876
 Alpha  occ. eigenvalues --   -0.30267  -0.28620  -0.25791  -0.25690
 Alpha virt. eigenvalues --    0.02610   0.05248   0.07852   0.08013   0.08310
 Alpha virt. eigenvalues --    0.09240   0.09415   0.11063   0.11437   0.12223
 Alpha virt. eigenvalues --    0.12677   0.13991   0.14518   0.14756   0.15033

 Mulliken charges:
               1
     1  N   -0.310988
     2  C    0.181073
     3  C    0.029974
     4  N   -0.258705
     5  C    0.133150
     6  H    0.026329
     7  N   -0.291819
     8  C    0.132994
     9  H    0.008711
    10  N   -0.290247
    11  C    0.242091
    12  C    0.125553
    13  N   -0.055201
    14  H    0.109566
    15  H    0.090297
    16  H    0.025295
    17  H    0.034794
    18  H    0.025765
    19  N   -0.311323
    20  C    0.249034
    21  C    0.182156
    22  N   -0.118108
    23  H    0.116458
    24  H    0.117848
    25  N   -0.295298
    26  C    0.223569
    27  N   -0.123699
    28  H    0.117001
    29  C    0.161404
    30  O   -0.319596
    31  C   -0.007254
    32  N   -0.219507
    33  C    0.130664
    34  H    0.031310
    35  H    0.029870
    36  H    0.027817
    37  H    0.025198
    38  H    0.063058
    39  H    0.059796
    40  H    0.074970
    41  H    0.032784
    42  C   -0.110807
    43  O   -0.269543
    44  C    0.159246
    45  H    0.135515
    46  N   -0.129728
    47  O   -0.348921
    48  C    0.359773
    49  H    0.050154
    50  C    0.172624
    51  C    0.043512
    52  N   -0.296101
    53  H    0.031927
    54  H    0.045957
    55  H    0.008429
    56  H    0.127850
    57  H    0.111741
    58  N   -0.061531
    59  C    0.095497
    60  C    0.234212
    61  N   -0.259056
    62  H    0.049162
    63  C    0.152678
    64  N   -0.295970
    65  H    0.028235
    66  C    0.126091
    67  N   -0.267577
    68  C    0.026564
    69  C    0.178793
    70  N   -0.305513
 Sum of Mulliken charges =  -0.00000

 Dipole moment (field-independent basis, Debye):
    X=              8.9555    Y=              5.1096    Z=              1.6441  Tot=             10.4409
 Quadrupole moment (field-independent basis, Debye-Ang):
   XX=           -150.6758   YY=           -213.9410   ZZ=           -249.8430
   XY=             -0.9493   XZ=             11.7473   YZ=             -7.2210

 Normal termination of Gaussian 16 at Fri Jan 26 01:26:37 2018.
