 Gaussian 16, Revision A.03,
 Gaussian 16:  EM64L-G16RevA.03 25-Dec-2016

 ---------------------------------------
 #p wb97xd/cc-pvdz sp scf=(maxcycles=20)
 ---------------------------------------

 ------------------
 Base pair stacking
 ------------------
 Symbolic Z-matrix:
 Charge =  0 Multiplicity = 1

                         Standard orientation:
 ---------------------------------------------------------------------
 Center     Atomic      Atomic             Coordinates (Angstroms)
 Number     Number       Type             X           Y           Z
 ---------------------------------------------------------------------
      1          7           0        5.229912   -1.858526   -1.401765
      2          6           0        6.640980   -1.428585   -1.356799
      3          6           0        3.031311   -1.867601   -1.459982
      4          7           0        3.425383   -3.197736   -1.473417
      5          6           0        4.734184   -3.139025   -1.437802
      6          1           0        5.393918   -4.007186   -1.435944
      7          7           0        1.722138    0.094289   -1.459394
      8          6           0        2.874072    0.771644   -1.416839
      9          1           0        2.775442    1.856191   -1.400008
     10          7           0        4.123699    0.312567   -1.392070
     11          6           0        4.132590   -1.030473   -1.415906
     12          6           0        1.764774   -1.255799   -1.482462
     13          7           0        0.615944   -1.933710   -1.524947
     14          1           0        0.599933   -2.934020   -1.543302
     15          1           0       -0.267400   -1.465070   -1.539871
     16          1           0        7.120071   -1.767428   -2.166641
     17          1           0        6.685556   -0.430193   -1.337739
     18          1           0        7.077485   -1.795781   -0.535444
     19          7           0        3.883491    2.965995    1.150683
     20          6           0        2.581301    2.528223    1.124186
     21          6           0        4.330341    4.335873    0.827465
     22          7           0       -0.791071    3.152010    0.576685
     23          1           0       -1.651350    2.644668    0.618603
     24          1           0       -0.844423    4.114274    0.308523
     25          7           0        1.499899    3.269974    0.801015
     26          6           0        0.381893    2.569020    0.866839
     27          7           0        0.325090    1.243008    1.221776
     28          1           0       -0.574202    0.787288    1.245274
     29          6           0        1.424979    0.460133    1.558216
     30          8           0        1.264767   -0.727963    1.864000
     31          6           0        2.633279    1.199400    1.492058
     32          7           0        3.941772    0.810755    1.744439
     33          6           0        4.646420    1.888524    1.529672
     34          1           0        5.730101    1.952837    1.633466
     35          1           0        4.964286    4.308003    0.055357
     36          1           0        3.537824    4.894559    0.586516
     37          1           0        4.789036    4.734546    1.620855
     38          1           0       -5.259150   -1.061560    0.548267
     39          1           0       -5.371436   -0.866558    2.295839
     40          1           0       -4.375926    0.238992    1.348171
     41          1           0       -2.797378   -4.922136    2.025495
     42          6           0       -2.656851   -3.846881    1.914541
     43          8           0       -0.292732   -3.953037    2.078297
     44          6           0       -1.331525   -3.307701    1.939543
     45          1           0       -0.346073   -1.519215    1.803297
     46          7           0       -1.265874   -1.936996    1.790812
     47          8           0       -2.159574    0.130723    1.502663
     48          6           0       -2.317868   -1.071049    1.626592
     49          1           0       -4.730665   -3.387492    1.730034
     50          6           0       -3.702947   -3.027662    1.755915
     51          6           0       -4.718588   -0.780950    1.439967
     52          7           0       -3.563820   -1.666565    1.612983
     53          1           0       -4.938080    4.365647   -1.741064
     54          1           0       -3.694011    4.109389   -0.716989
     55          1           0       -5.229155    4.058580   -0.164867
     56          1           0       -2.940227   -2.778802   -1.917007
     57          1           0       -4.555266   -2.266374   -2.114872
     58          7           0       -3.607174   -2.033936   -1.895071
     59          6           0       -3.249243   -0.785787   -1.586538
     60          6           0       -3.626918    1.532387   -1.205524
     61          7           0       -2.346389    1.815347   -0.914669
     62          1           0       -0.540010    0.858214   -0.767998
     63          6           0       -1.596944    0.717366   -0.990042
     64          7           0       -1.953570   -0.533641   -1.298892
     65          1           0       -6.775572    2.095182   -1.676068
     66          6           0       -5.784285    1.651321   -1.579752
     67          7           0       -5.512855    0.384245   -1.776042
     68          6           0       -4.148282    0.295261   -1.542009
     69          6           0       -4.633130    3.849987   -0.940376
     70          7           0       -4.689471    2.404333   -1.231744
 ---------------------------------------------------------------------

 SCF Done:  E(RwB97XD) =  -2048.72773291     A.U. after   15 cycles

 The electronic state is 1-A.
 Alpha  occ. eigenvalues --  -19.25292 -19.21525 -19.20158 -14.53030 -14.52107
 Alpha  occ. eigenvalues --  -14.49160 -14.48346 -14.48311 -14.47395 -14.46167
 Alpha  occ. eigenvalues --  -14.45919 -14.44896 -14.44718 -14.44623 -14.42711
 Alpha  occ. eigenvalues --  -14.41289 -14.41054 -14.40516 -14.40321 -14.40114
 Alpha  occ. eigenvalues --  -10.45007 -10.40696 -10.40345 -10.39662 -10.38486
 Alpha  occ. eigenvalues --  -10.37781 -10.37713 -10.37550 -10.36447 -10.35453
 Alpha  occ. eigenvalues --  -10.34707 -10.34575 -10.33781 -10.33725 -10.33199
 Alpha  occ. eigenvalues --  -10.32991 -10.32844 -10.32739 -10.30877 -10.30631
 Alpha  occ. eigenvalues --  -10.30462 -10.28239 -10.27469  -1.19077  -1.15751
 Alpha  occ. eigenvalues --   -1.12645  -1.12554  -1.10926  -1.10125  -1.10007
 Alpha  occ. eigenvalues --   -1.08985  -1.07847  -1.05647  -1.04921  -1.02037
 Alpha  occ. eigenvalues --   -1.01554  -1.00426  -0.98753  -0.97993  -0.97497
 Alpha  occ. eigenvalues --   -0.96652  -0.96110  -0.92601  -0.90770  -0.88277
 Alpha  occ. eigenvalues --   -0.86540  -0.83653  -0.83492  -0.83232  -0.82100
 Alpha  occ. eigenvalues --   -0.81950  -0.78561  -0.77678  -0.75686  -0.74079
 Alpha  occ. eigenvalues --   -0.72994  -0.72844  -0.72779  -0.71149  -0.70822
 Alpha  occ. eigenvalues --   -0.67670  -0.66622  -0.66196  -0.66103  -0.64998
 Alpha  occ. eigenvalues --   -0.64071  -0.63376  -0.62634  -0.62478  -0.61205
 Alpha  occ. eigenvalues --   -0.60902  -0.60752  -0.60538  -0.59859  -0.59428
 Alpha  occ. eigenvalues --   -0.59148  -0.57684  -0.56826  -0.56160  -0.55871
 Alpha  occ. eigenvalues --   -0.55849  -0.55819  -0.55526  -0.54684  -0.54550
 Alpha  occ. eigenvalues --   -0.53825  -0.53679  -0.53230  -0.53204  -0.52804
 Alpha  occ. eigenvalues --   -0.52440  -0.52002  -0.51434  -0.50631  -0.50133
 Alpha  occ. eigenvalues --   -0.50011  -0.49831  -0.49603  -0.48979  -0.48834
 Alpha  occ. eigenvalues --   -0.48382  -0.47941  -0.47822  -0.47079  -0.46900
 Alpha  occ. eigenvalues --   -0.46477  -0.45641  -0.45212  -0.44097  -0.43608
 Alpha  occ. eigenvalues --   -0.41505  -0.40907  -0.39069  -0.38333  -0.38226
 Alpha  occ. eigenvalues --   -0.37335  -0.36747  -0.36434  -0.35481  -0.35108
 Alpha  occ. eigenvalues --   -0.34869  -0.33399  -0.33284  -0.32677  -0.32533
 Alpha  occ. eigenvalues --   -0.32181  -0.31882  -0.31693  -0.31427  -0.30701
 Alpha  occ. eigenvalues --   -0.30568  -0.30224  -0.25668  -0.24569
 Alpha virt. eigenvalues --    0.02734   0.03992   0.06001   0.08273   0.08882
 Alpha virt. eigenvalues --    0.09532   0.10031   0.10452   0.11269   0.11497
 Alpha virt. eigenvalues --    0.12581   0.13972   0.14650   0.15231   0.15259

 Mulliken charges:
               1
     1  N   -0.314340
     2  C    0.183493
     3  C    0.046323
     4  N   -0.263404
     5  C    0.138218
     6  H    0.025992
     7  N   -0.296567
     8  C    0.140404
     9  H    0.015609
    10  N   -0.279813
    11  C    0.264454
    12  C    0.105499
    13  N   -0.064847
    14  H    0.106886
    15  H    0.079143
    16  H    0.022005
    17  H    0.031889
    18  H    0.029555
    19  N   -0.301539
    20  C    0.224557
    21  C    0.180683
    22  N   -0.080341
    23  H    0.109143
    24  H    0.107677
    25  N   -0.303920
    26  C    0.209608
    27  N   -0.144172
    28  H    0.116150
    29  C    0.191392
    30  O   -0.325104
    31  C   -0.023991
    32  N   -0.218876
    33  C    0.130166
    34  H    0.018393
    35  H    0.027985
    36  H    0.027668
    37  H    0.023527
    38  H    0.055362
    39  H    0.059884
    40  H    0.074853
    41  H    0.030094
    42  C   -0.114215
    43  O   -0.260388
    44  C    0.179041
    45  H    0.132939
    46  N   -0.129284
    47  O   -0.340584
    48  C    0.344565
    49  H    0.044133
    50  C    0.164382
    51  C    0.042837
    52  N   -0.284756
    53  H    0.037235
    54  H    0.032162
    55  H    0.033623
    56  H    0.119378
    57  H    0.118824
    58  N   -0.059362
    59  C    0.083630
    60  C    0.271361
    61  N   -0.303667
    62  H    0.059742
    63  C    0.170743
    64  N   -0.303251
    65  H    0.040288
    66  C    0.137482
    67  N   -0.258374
    68  C    0.015001
    69  C    0.181439
    70  N   -0.314622
 Sum of Mulliken charges =  -0.00000

 Dipole moment (field-independent basis, Debye):
    X=             -9.2523    Y=              5.2843    Z=             -2.8761  Tot=             11.0364
 Quadrupole moment (field-independent basis, Debye-Ang):
   XX=           -163.5244   YY=           -214.3283   ZZ=           -255.3244
   XY=              5.5849   XZ=             -9.6136   YZ=              9.9980

 Normal termination of Gaussian 16 at Fri Jan 26 09:46:41 2018.
