 Gaussian 16, Revision A.03,
 Gaussian 16:  EM64L-G16RevA.03 25-Dec-2016

 ---------------------------------------
 #p wb97xd/cc-pvdz sp scf=(maxcycles=20)
 ---------------------------------------

 ------------------
 Base pair stacking
 ------------------
 Symbolic Z-matrix:
 Charge =  0 Multiplicity = 1

                         Standard orientation:
 ---------------------------------------------------------------------
 Center     Atomic      Atomic             Coordinates (Angstroms)
 Number     Number       Type             X           Y           Z
 ---------------------------------------------------------------------
      1          7           0       -7.219931   -1.571852    0.044485
      2          6           0       -8.617588   -1.114934   -0.081171
      3          6           0       -5.049754   -1.641252    0.394982
      4          7           0       -5.423577   -2.923692    0.020387
      5          6           0       -6.716068   -2.830554   -0.175786
      6          1           0       -7.357360   -3.656501   -0.484837
      7          7           0       -3.779900    0.230246    1.064241
      8          6           0       -4.924598    0.920576    1.038064
      9          1           0       -4.839576    1.972375    1.307780
     10          7           0       -6.152774    0.508653    0.730174
     11          6           0       -6.146262   -0.796968    0.414336
     12          6           0       -3.806611   -1.081285    0.741341
     13          7           0       -2.664981   -1.772074    0.766882
     14          1           0       -2.637799   -2.745130    0.535273
     15          1           0       -1.798428   -1.340753    1.018274
     16          1           0       -9.197623   -1.635947    0.545147
     17          1           0       -8.672936   -0.142968    0.145415
     18          1           0       -8.933217   -1.255195   -1.019627
     19          7           0       -1.586239    3.006786   -1.886321
     20          6           0       -0.325027    2.525395   -1.630044
     21          6           0       -1.970182    4.432680   -1.895548
     22          7           0        3.011574    3.095396   -0.852936
     23          1           0        3.836047    2.551890   -0.697710
     24          1           0        3.102502    4.088883   -0.779178
     25          7           0        0.766588    3.268139   -1.345895
     26          6           0        1.836396    2.518794   -1.146842
     27          7           0        1.839078    1.146884   -1.220013
     28          1           0        2.703917    0.655864   -1.052929
     29          6           0        0.727640    0.362029   -1.510863
     30          8           0        0.837399   -0.869614   -1.552531
     31          6           0       -0.429288    1.152981   -1.727160
     32          7           0       -1.729776    0.780277   -2.038151
     33          6           0       -2.378572    1.909942   -2.122552
     34          1           0       -3.440156    2.000463   -2.355186
     35          1           0       -2.677136    4.593693   -1.207733
     36          1           0       -1.169567    4.992608   -1.686331
     37          1           0       -2.321329    4.679201   -2.798172
     38          1           0        7.164205   -1.219387    0.509752
     39          1           0        7.459881   -1.394949   -1.218367
     40          1           0        6.452341   -0.073519   -0.626720
     41          1           0        4.606851   -5.186293   -0.423063
     42          6           0        4.528194   -4.106079   -0.546258
     43          8           0        2.189692   -4.136554   -0.943263
     44          6           0        3.250636   -3.524215   -0.823952
     45          1           0        2.378135   -1.703405   -1.158212
     46          7           0        3.262347   -2.150828   -0.961479
     47          8           0        4.259520   -0.110852   -0.998113
     48          6           0        4.348639   -1.318201   -0.860203
     49          1           0        6.599982   -3.712918   -0.231736
     50          6           0        5.606054   -3.320018   -0.441700
     51          6           0        6.733512   -1.104871   -0.473835
     52          7           0        5.544733   -1.953882   -0.590978
     53          1           0        2.720498    4.154090    3.307153
     54          1           0        1.630906    4.188949    2.093204
     55          1           0        3.227419    4.246111    1.758615
     56          1           0        0.816174   -2.762725    1.410647
     57          1           0        2.382071   -2.350217    1.947201
     58          7           0        1.469558   -2.050282    1.666878
     59          6           0        1.139694   -0.757438    1.636463
     60          6           0        1.533604    1.573766    1.904814
     61          7           0        0.300734    1.947375    1.524180
     62          1           0       -1.455520    1.095630    0.899099
     63          6           0       -0.436749    0.881512    1.219289
     64          7           0       -0.108182   -0.414146    1.249112
     65          1           0        4.580947    1.934548    2.922519
     66          6           0        3.618190    1.549872    2.584786
     67          7           0        3.340124    0.280032    2.417853
     68          6           0        2.021421    0.281160    1.986869
     69          6           0        2.534412    3.862223    2.368972
     70          7           0        2.570583    2.388837    2.292575
 ---------------------------------------------------------------------

 SCF Done:  E(RwB97XD) =  -2048.74215084     A.U. after   15 cycles

 The electronic state is 1-A.
 Alpha  occ. eigenvalues --  -19.26158 -19.22569 -19.21074 -14.52812 -14.50939
 Alpha  occ. eigenvalues --  -14.49079 -14.48889 -14.48312 -14.47700 -14.47474
 Alpha  occ. eigenvalues --  -14.46287 -14.44018 -14.42551 -14.42412 -14.42368
 Alpha  occ. eigenvalues --  -14.42143 -14.41586 -14.41063 -14.40953 -14.40185
 Alpha  occ. eigenvalues --  -10.45838 -10.41808 -10.40643 -10.38698 -10.38210
 Alpha  occ. eigenvalues --  -10.38103 -10.36536 -10.35568 -10.35492 -10.35461
 Alpha  occ. eigenvalues --  -10.34665 -10.34237 -10.33995 -10.33549 -10.33480
 Alpha  occ. eigenvalues --  -10.33137 -10.32740 -10.31494 -10.31103 -10.31019
 Alpha  occ. eigenvalues --  -10.30951 -10.28663 -10.28497  -1.19763  -1.13857
 Alpha  occ. eigenvalues --   -1.13555  -1.13498  -1.11481  -1.10944  -1.09704
 Alpha  occ. eigenvalues --   -1.09192  -1.07426  -1.05035  -1.03075  -1.02898
 Alpha  occ. eigenvalues --   -1.00567  -1.00465  -0.99411  -0.98972  -0.97064
 Alpha  occ. eigenvalues --   -0.96905  -0.95006  -0.92669  -0.91449  -0.86077
 Alpha  occ. eigenvalues --   -0.84516  -0.84458  -0.84039  -0.84010  -0.82816
 Alpha  occ. eigenvalues --   -0.82405  -0.79281  -0.75396  -0.75045  -0.74265
 Alpha  occ. eigenvalues --   -0.73777  -0.73084  -0.72974  -0.71130  -0.68780
 Alpha  occ. eigenvalues --   -0.67961  -0.66952  -0.66367  -0.65147  -0.64839
 Alpha  occ. eigenvalues --   -0.64139  -0.63111  -0.62832  -0.62507  -0.62379
 Alpha  occ. eigenvalues --   -0.60232  -0.59912  -0.59899  -0.59174  -0.58961
 Alpha  occ. eigenvalues --   -0.58766  -0.58065  -0.56892  -0.56532  -0.56478
 Alpha  occ. eigenvalues --   -0.56328  -0.55412  -0.54790  -0.54683  -0.54039
 Alpha  occ. eigenvalues --   -0.53818  -0.53679  -0.53328  -0.52782  -0.52325
 Alpha  occ. eigenvalues --   -0.52012  -0.51759  -0.51287  -0.50814  -0.50549
 Alpha  occ. eigenvalues --   -0.50240  -0.49806  -0.49252  -0.49170  -0.48936
 Alpha  occ. eigenvalues --   -0.48628  -0.48554  -0.48138  -0.47836  -0.47447
 Alpha  occ. eigenvalues --   -0.47024  -0.45332  -0.45178  -0.44441  -0.43154
 Alpha  occ. eigenvalues --   -0.41239  -0.39776  -0.39256  -0.37765  -0.37670
 Alpha  occ. eigenvalues --   -0.37254  -0.36657  -0.35928  -0.35711  -0.35185
 Alpha  occ. eigenvalues --   -0.33716  -0.33634  -0.33584  -0.33123  -0.32989
 Alpha  occ. eigenvalues --   -0.32493  -0.32379  -0.32237  -0.32203  -0.31042
 Alpha  occ. eigenvalues --   -0.30385  -0.28278  -0.25897  -0.25820
 Alpha virt. eigenvalues --    0.02649   0.05557   0.07895   0.08023   0.08385
 Alpha virt. eigenvalues --    0.09059   0.09465   0.10936   0.11433   0.12400
 Alpha virt. eigenvalues --    0.12834   0.13916   0.14324   0.14779   0.15232

 Mulliken charges:
               1
     1  N   -0.310826
     2  C    0.181049
     3  C    0.028086
     4  N   -0.258796
     5  C    0.133304
     6  H    0.026811
     7  N   -0.291218
     8  C    0.131604
     9  H    0.009722
    10  N   -0.289122
    11  C    0.241847
    12  C    0.122586
    13  N   -0.054710
    14  H    0.108701
    15  H    0.089911
    16  H    0.025611
    17  H    0.035285
    18  H    0.025912
    19  N   -0.309236
    20  C    0.259727
    21  C    0.182815
    22  N   -0.114712
    23  H    0.116597
    24  H    0.119476
    25  N   -0.292364
    26  C    0.209619
    27  N   -0.121362
    28  H    0.121162
    29  C    0.169201
    30  O   -0.321598
    31  C   -0.021842
    32  N   -0.215974
    33  C    0.129088
    34  H    0.031579
    35  H    0.030484
    36  H    0.027314
    37  H    0.025229
    38  H    0.062330
    39  H    0.060534
    40  H    0.074928
    41  H    0.033155
    42  C   -0.110281
    43  O   -0.270014
    44  C    0.164248
    45  H    0.135091
    46  N   -0.136006
    47  O   -0.350040
    48  C    0.363683
    49  H    0.050001
    50  C    0.173919
    51  C    0.042797
    52  N   -0.298089
    53  H    0.030850
    54  H    0.045363
    55  H    0.001185
    56  H    0.125702
    57  H    0.112398
    58  N   -0.057222
    59  C    0.095481
    60  C    0.229632
    61  N   -0.259669
    62  H    0.039103
    63  C    0.163899
    64  N   -0.296749
    65  H    0.025819
    66  C    0.121886
    67  N   -0.265319
    68  C    0.027985
    69  C    0.183342
    70  N   -0.300901
 Sum of Mulliken charges =  -0.00000

 Dipole moment (field-independent basis, Debye):
    X=              8.8789    Y=              5.0465    Z=              1.6129  Tot=             10.3394
 Quadrupole moment (field-independent basis, Debye-Ang):
   XX=           -147.9997   YY=           -214.4668   ZZ=           -249.2975
   XY=              0.5541   XZ=             13.7316   YZ=             -7.6190

 Normal termination of Gaussian 16 at Fri Jan 26 02:11:12 2018.
