 Gaussian 16, Revision A.03,
 Gaussian 16:  EM64L-G16RevA.03 25-Dec-2016

 ---------------------------------------
 #p wb97xd/cc-pvdz sp scf=(maxcycles=20)
 ---------------------------------------

 ------------------
 Base pair stacking
 ------------------
 Symbolic Z-matrix:
 Charge =  0 Multiplicity = 1

                         Standard orientation:
 ---------------------------------------------------------------------
 Center     Atomic      Atomic             Coordinates (Angstroms)
 Number     Number       Type             X           Y           Z
 ---------------------------------------------------------------------
      1          7           0        4.599237   -2.017662   -1.717451
      2          6           0        6.015603   -1.615292   -1.817501
      3          6           0        2.403628   -1.984503   -1.592979
      4          7           0        2.774531   -3.320727   -1.551971
      5          6           0        4.082460   -3.287221   -1.628608
      6          1           0        4.726487   -4.167078   -1.624551
      7          7           0        1.129670    0.000332   -1.612377
      8          6           0        2.291474    0.654816   -1.709572
      9          1           0        2.211416    1.740042   -1.755565
     10          7           0        3.531503    0.172260   -1.758252
     11          6           0        3.517552   -1.169461   -1.694900
     12          6           0        1.149295   -1.349061   -1.550606
     13          7           0       -0.009408   -2.004160   -1.453563
     14          1           0       -0.042401   -3.003048   -1.405111
     15          1           0       -0.883532   -1.519080   -1.426007
     16          1           0        6.419796   -2.015080   -2.640286
     17          1           0        6.077089   -0.618880   -1.867477
     18          1           0        6.513700   -1.938345   -1.012801
     19          7           0        4.504656    2.942888    0.835869
     20          6           0        3.195795    2.532676    0.917432
     21          6           0        4.951726    4.307318    0.490680
     22          7           0       -0.196841    3.233633    0.671580
     23          1           0       -1.061154    2.743780    0.782195
     24          1           0       -0.252127    4.200253    0.419993
     25          7           0        2.106986    3.300958    0.697700
     26          6           0        0.983797    2.622604    0.852282
     27          7           0        0.928914    1.293492    1.195733
     28          1           0        0.025276    0.856289    1.291960
     29          6           0        2.036405    0.483535    1.426611
     30          8           0        1.877294   -0.704907    1.731640
     31          6           0        3.250330    1.198317    1.264308
     32          7           0        4.566940    0.779260    1.397829
     33          6           0        5.273767    1.844868    1.135006
     34          1           0        6.363504    1.885266    1.145142
     35          1           0        5.515778    4.276466   -0.333763
     36          1           0        4.153753    4.885501    0.325726
     37          1           0        5.485906    4.685871    1.245772
     38          1           0       -4.741674   -0.885366    0.982947
     39          1           0       -4.698160   -0.711153    2.735773
     40          1           0       -3.764381    0.385862    1.717950
     41          1           0       -2.246389   -4.815463    2.197202
     42          6           0       -2.092502   -3.741986    2.086694
     43          8           0        0.274028   -3.899444    2.043583
     44          6           0       -0.758513   -3.230866    2.002767
     45          1           0        0.250330   -1.461626    1.801890
     46          7           0       -0.676016   -1.859979    1.864472
     47          8           0       -1.545878    0.229501    1.678413
     48          6           0       -1.719096   -0.970249    1.801944
     49          1           0       -4.163970   -3.237180    2.087953
     50          6           0       -3.130246   -2.899173    2.028686
     51          6           0       -4.120039   -0.627857    1.827532
     52          7           0       -2.974269   -1.539500    1.889690
     53          1           0       -5.463724    4.383186   -1.621021
     54          1           0       -4.142289    4.166902   -0.688749
     55          1           0       -5.626325    4.183523   -0.009464
     56          1           0       -3.598603   -2.798096   -1.494197
     57          1           0       -5.216416   -2.265712   -1.590923
     58          7           0       -4.249749   -2.039573   -1.465922
     59          6           0       -3.847896   -0.782017   -1.270279
     60          6           0       -4.156332    1.563127   -1.011673
     61          7           0       -2.851694    1.837269   -0.846807
     62          1           0       -1.054423    0.853931   -0.787745
     63          6           0       -2.128311    0.721303   -0.911964
     64          7           0       -2.528924   -0.539142   -1.107839
     65          1           0       -7.324258    2.160383   -1.256060
     66          6           0       -6.335377    1.702971   -1.213233
     67          7           0       -6.101024    0.420557   -1.348055
     68          6           0       -4.723183    0.318203   -1.222330
     69          6           0       -5.100732    3.913442   -0.816299
     70          7           0       -5.203710    2.453622   -1.006903
 ---------------------------------------------------------------------

 SCF Done:  E(RwB97XD) =  -2048.74635132     A.U. after   15 cycles

 The electronic state is 1-A.
 Alpha  occ. eigenvalues --  -19.25155 -19.21294 -19.20361 -14.52777 -14.51859
 Alpha  occ. eigenvalues --  -14.49297 -14.48650 -14.48230 -14.47173 -14.46423
 Alpha  occ. eigenvalues --  -14.46007 -14.45700 -14.45103 -14.45062 -14.43044
 Alpha  occ. eigenvalues --  -14.41789 -14.40991 -14.40759 -14.40741 -14.40414
 Alpha  occ. eigenvalues --  -10.44801 -10.40847 -10.40732 -10.39428 -10.38256
 Alpha  occ. eigenvalues --  -10.37923 -10.37727 -10.37368 -10.36588 -10.35654
 Alpha  occ. eigenvalues --  -10.34437 -10.34167 -10.34096 -10.33697 -10.33249
 Alpha  occ. eigenvalues --  -10.33137 -10.33050 -10.32885 -10.30885 -10.30689
 Alpha  occ. eigenvalues --  -10.30198 -10.28354 -10.27854  -1.18836  -1.15562
 Alpha  occ. eigenvalues --   -1.12896  -1.12324  -1.10902  -1.10384  -1.10083
 Alpha  occ. eigenvalues --   -1.08741  -1.08204  -1.05632  -1.05142  -1.01809
 Alpha  occ. eigenvalues --   -1.01354  -1.00650  -0.99241  -0.98268  -0.97616
 Alpha  occ. eigenvalues --   -0.96621  -0.96415  -0.92818  -0.90571  -0.88129
 Alpha  occ. eigenvalues --   -0.86281  -0.83926  -0.83570  -0.83027  -0.82351
 Alpha  occ. eigenvalues --   -0.81886  -0.78339  -0.77623  -0.75496  -0.74378
 Alpha  occ. eigenvalues --   -0.73219  -0.72886  -0.72738  -0.71070  -0.70905
 Alpha  occ. eigenvalues --   -0.67521  -0.66971  -0.66283  -0.65977  -0.64848
 Alpha  occ. eigenvalues --   -0.64112  -0.63420  -0.62749  -0.62395  -0.61376
 Alpha  occ. eigenvalues --   -0.61081  -0.60778  -0.60333  -0.59873  -0.59233
 Alpha  occ. eigenvalues --   -0.59009  -0.57853  -0.56804  -0.56387  -0.55822
 Alpha  occ. eigenvalues --   -0.55679  -0.55617  -0.55579  -0.54936  -0.54134
 Alpha  occ. eigenvalues --   -0.53852  -0.53551  -0.53269  -0.53209  -0.52704
 Alpha  occ. eigenvalues --   -0.52491  -0.51893  -0.51382  -0.50485  -0.50363
 Alpha  occ. eigenvalues --   -0.49938  -0.49837  -0.49673  -0.48932  -0.48827
 Alpha  occ. eigenvalues --   -0.48517  -0.47937  -0.47809  -0.47519  -0.46977
 Alpha  occ. eigenvalues --   -0.46700  -0.45709  -0.45270  -0.44319  -0.43422
 Alpha  occ. eigenvalues --   -0.41319  -0.41138  -0.38920  -0.38260  -0.38159
 Alpha  occ. eigenvalues --   -0.37396  -0.37057  -0.36541  -0.35516  -0.35183
 Alpha  occ. eigenvalues --   -0.35027  -0.33937  -0.33354  -0.33151  -0.32675
 Alpha  occ. eigenvalues --   -0.32336  -0.32303  -0.31667  -0.31386  -0.30684
 Alpha  occ. eigenvalues --   -0.30546  -0.30214  -0.26183  -0.24856
 Alpha virt. eigenvalues --    0.03228   0.03836   0.06357   0.07957   0.09116
 Alpha virt. eigenvalues --    0.09502   0.09938   0.10277   0.10990   0.11445
 Alpha virt. eigenvalues --    0.13301   0.14321   0.14633   0.14867   0.15262

 Mulliken charges:
               1
     1  N   -0.313634
     2  C    0.185073
     3  C    0.058438
     4  N   -0.262867
     5  C    0.142750
     6  H    0.027285
     7  N   -0.287193
     8  C    0.119863
     9  H    0.017944
    10  N   -0.271475
    11  C    0.262559
    12  C    0.087764
    13  N   -0.070375
    14  H    0.109015
    15  H    0.081072
    16  H    0.020056
    17  H    0.032454
    18  H    0.032196
    19  N   -0.308891
    20  C    0.241682
    21  C    0.180893
    22  N   -0.108496
    23  H    0.113163
    24  H    0.114357
    25  N   -0.305711
    26  C    0.224292
    27  N   -0.120902
    28  H    0.111917
    29  C    0.168971
    30  O   -0.320916
    31  C    0.002654
    32  N   -0.229103
    33  C    0.124705
    34  H    0.020850
    35  H    0.027299
    36  H    0.028723
    37  H    0.024123
    38  H    0.058914
    39  H    0.058071
    40  H    0.075903
    41  H    0.028914
    42  C   -0.115393
    43  O   -0.259505
    44  C    0.176567
    45  H    0.135623
    46  N   -0.128933
    47  O   -0.344239
    48  C    0.354468
    49  H    0.042572
    50  C    0.162555
    51  C    0.037964
    52  N   -0.281630
    53  H    0.035142
    54  H    0.036519
    55  H    0.032078
    56  H    0.118678
    57  H    0.120933
    58  N   -0.060383
    59  C    0.063267
    60  C    0.251054
    61  N   -0.283291
    62  H    0.016285
    63  C    0.200244
    64  N   -0.308569
    65  H    0.040232
    66  C    0.140892
    67  N   -0.258301
    68  C    0.025357
    69  C    0.181351
    70  N   -0.313870
 Sum of Mulliken charges =  -0.00000

 Dipole moment (field-independent basis, Debye):
    X=             -8.9624    Y=              5.6072    Z=             -1.8723  Tot=             10.7364
 Quadrupole moment (field-independent basis, Debye-Ang):
   XX=           -169.8912   YY=           -212.7644   ZZ=           -253.0618
   XY=              7.8556   XZ=            -16.5118   YZ=              8.7149

 Normal termination of Gaussian 16 at Fri Jan 26 06:14:58 2018.
