 Gaussian 16, Revision A.03,
 Gaussian 16:  EM64L-G16RevA.03 25-Dec-2016

 ---------------------------------------
 #p wb97xd/cc-pvdz sp scf=(maxcycles=20)
 ---------------------------------------

 ------------------
 Base pair stacking
 ------------------
 Symbolic Z-matrix:
 Charge =  0 Multiplicity = 1

                         Standard orientation:
 ---------------------------------------------------------------------
 Center     Atomic      Atomic             Coordinates (Angstroms)
 Number     Number       Type             X           Y           Z
 ---------------------------------------------------------------------
      1          7           0       -6.494812   -1.667283    0.514630
      2          6           0       -7.900201   -1.217064    0.528404
      3          6           0       -4.305530   -1.744605    0.710530
      4          7           0       -4.697006   -2.988628    0.237376
      5          6           0       -6.000299   -2.892259    0.138291
      6          1           0       -6.656636   -3.691620   -0.206941
      7          7           0       -3.003266    0.067508    1.474258
      8          6           0       -4.150793    0.743312    1.592851
      9          1           0       -4.053325    1.764613    1.958506
     10          7           0       -5.394797    0.348791    1.328819
     11          6           0       -5.402710   -0.919484    0.886262
     12          6           0       -3.044784   -1.206344    1.026339
     13          7           0       -1.900365   -1.882578    0.907276
     14          1           0       -1.883728   -2.827900    0.579704
     15          1           0       -1.021085   -1.467556    1.141330
     16          1           0       -8.433645   -1.803788    1.137818
     17          1           0       -7.945277   -0.272671    0.852770
     18          1           0       -8.277966   -1.268593   -0.396057
     19          7           0       -2.406174    3.197745   -1.809701
     20          6           0       -1.133204    2.702653   -1.659788
     21          6           0       -2.778320    4.625864   -1.757906
     22          7           0        2.256711    3.233607   -1.122807
     23          1           0        3.086126    2.681494   -1.042230
     24          1           0        2.360841    4.224526   -1.033699
     25          7           0       -0.017450    3.431770   -1.441748
     26          6           0        1.058239    2.671332   -1.340558
     27          7           0        1.044457    1.301480   -1.444639
     28          1           0        1.915440    0.801323   -1.354091
     29          6           0       -0.091883    0.530549   -1.668817
     30          8           0        0.004590   -0.700466   -1.746378
     31          6           0       -1.255410    1.333538   -1.779731
     32          7           0       -2.578490    0.976287   -2.000488
     33          6           0       -3.222728    2.111656   -2.010442
     34          1           0       -4.298002    2.214179   -2.160581
     35          1           0       -3.430437    4.775388   -1.015486
     36          1           0       -1.959832    5.175767   -1.596832
     37          1           0       -3.194141    4.895357   -2.625830
     38          1           0        6.465153   -1.137486   -0.173484
     39          1           0        6.629075   -1.274952   -1.922446
     40          1           0        5.679307    0.038771   -1.227157
     41          1           0        3.813453   -5.065659   -1.000824
     42          6           0        3.734424   -3.982415   -1.093370
     43          8           0        1.372585   -3.989038   -1.314224
     44          6           0        2.444343   -3.386290   -1.261148
     45          1           0        1.563821   -1.552801   -1.487789
     46          7           0        2.456689   -2.010186   -1.368152
     47          8           0        3.464586    0.023787   -1.433552
     48          6           0        3.554139   -1.186961   -1.329994
     49          1           0        5.827029   -3.609631   -0.926542
     50          6           0        4.823333   -3.205761   -1.052353
     51          6           0        5.962896   -0.997590   -1.119121
     52          7           0        4.761925   -1.836188   -1.165770
     53          1           0        3.613098    3.830739    3.652353
     54          1           0        2.443548    3.971148    2.523399
     55          1           0        4.013375    4.079933    2.089945
     56          1           0        1.621683   -2.889636    1.215904
     57          1           0        3.218130   -2.512858    1.684439
     58          7           0        2.287108   -2.197909    1.496714
     59          6           0        1.949016   -0.912346    1.615863
     60          6           0        2.347719    1.385975    2.085424
     61          7           0        1.089899    1.780214    1.826810
     62          1           0       -0.700100    0.972729    1.239892
     63          6           0        0.339164    0.740535    1.468526
     64          7           0        0.675935   -0.547789    1.348603
     65          1           0        5.455068    1.681970    2.927426
     66          6           0        4.473705    1.320667    2.618664
     67          7           0        4.191771    0.070015    2.346534
     68          6           0        2.846896    0.097492    2.007000
     69          6           0        3.365407    3.629868    2.704570
     70          7           0        3.404212    2.171575    2.481252
 ---------------------------------------------------------------------

 SCF Done:  E(RwB97XD) =  -2048.74249706     A.U. after   15 cycles

 The electronic state is 1-A.
 Alpha  occ. eigenvalues --  -19.26227 -19.22773 -19.20829 -14.52898 -14.51672
 Alpha  occ. eigenvalues --  -14.48920 -14.48385 -14.48139 -14.47181 -14.47178
 Alpha  occ. eigenvalues --  -14.47172 -14.44733 -14.43292 -14.43275 -14.42278
 Alpha  occ. eigenvalues --  -14.41692 -14.41033 -14.40930 -14.40454 -14.39710
 Alpha  occ. eigenvalues --  -10.45852 -10.41527 -10.40761 -10.38958 -10.38435
 Alpha  occ. eigenvalues --  -10.38406 -10.37273 -10.36274 -10.35400 -10.34944
 Alpha  occ. eigenvalues --  -10.34731 -10.34542 -10.33702 -10.33370 -10.33321
 Alpha  occ. eigenvalues --  -10.32940 -10.32654 -10.31809 -10.31679 -10.31039
 Alpha  occ. eigenvalues --  -10.30656 -10.28298 -10.28095  -1.19812  -1.14372
 Alpha  occ. eigenvalues --   -1.13732  -1.13439  -1.10950  -1.10752  -1.09782
 Alpha  occ. eigenvalues --   -1.08840  -1.08327  -1.04523  -1.03926  -1.02909
 Alpha  occ. eigenvalues --   -1.00200  -1.00120  -0.99959  -0.98753  -0.96734
 Alpha  occ. eigenvalues --   -0.96575  -0.95847  -0.92169  -0.91590  -0.86789
 Alpha  occ. eigenvalues --   -0.85178  -0.84296  -0.83946  -0.83549  -0.82667
 Alpha  occ. eigenvalues --   -0.81937  -0.79376  -0.76183  -0.74837  -0.73971
 Alpha  occ. eigenvalues --   -0.73879  -0.73776  -0.72476  -0.70626  -0.69585
 Alpha  occ. eigenvalues --   -0.67672  -0.66973  -0.65942  -0.65876  -0.64827
 Alpha  occ. eigenvalues --   -0.64038  -0.63435  -0.62930  -0.62264  -0.62039
 Alpha  occ. eigenvalues --   -0.60087  -0.59942  -0.59877  -0.59715  -0.59048
 Alpha  occ. eigenvalues --   -0.58753  -0.58701  -0.56789  -0.56303  -0.56149
 Alpha  occ. eigenvalues --   -0.56043  -0.54989  -0.54825  -0.54714  -0.54418
 Alpha  occ. eigenvalues --   -0.53926  -0.53751  -0.53202  -0.52942  -0.52789
 Alpha  occ. eigenvalues --   -0.52706  -0.51993  -0.51400  -0.50438  -0.50323
 Alpha  occ. eigenvalues --   -0.49838  -0.49804  -0.49247  -0.49133  -0.48907
 Alpha  occ. eigenvalues --   -0.48504  -0.48404  -0.48265  -0.47916  -0.47656
 Alpha  occ. eigenvalues --   -0.46547  -0.45720  -0.44655  -0.44564  -0.43761
 Alpha  occ. eigenvalues --   -0.40694  -0.39868  -0.39760  -0.37569  -0.37464
 Alpha  occ. eigenvalues --   -0.37337  -0.36751  -0.36642  -0.35802  -0.34441
 Alpha  occ. eigenvalues --   -0.33936  -0.33849  -0.33367  -0.33111  -0.33009
 Alpha  occ. eigenvalues --   -0.32782  -0.32622  -0.32493  -0.31973  -0.30478
 Alpha  occ. eigenvalues --   -0.29958  -0.29116  -0.25724  -0.25258
 Alpha virt. eigenvalues --    0.02386   0.04866   0.07494   0.08366   0.08474
 Alpha virt. eigenvalues --    0.09091   0.09470   0.11264   0.11578   0.11833
 Alpha virt. eigenvalues --    0.12452   0.14259   0.14553   0.14798   0.15145

 Mulliken charges:
               1
     1  N   -0.311372
     2  C    0.181182
     3  C    0.036086
     4  N   -0.258379
     5  C    0.132919
     6  H    0.025034
     7  N   -0.296026
     8  C    0.137402
     9  H    0.007779
    10  N   -0.292694
    11  C    0.244102
    12  C    0.124654
    13  N   -0.053194
    14  H    0.111916
    15  H    0.090570
    16  H    0.024438
    17  H    0.033696
    18  H    0.025260
    19  N   -0.312524
    20  C    0.248275
    21  C    0.181347
    22  N   -0.121680
    23  H    0.115260
    24  H    0.116161
    25  N   -0.305473
    26  C    0.240144
    27  N   -0.135708
    28  H    0.112680
    29  C    0.166643
    30  O   -0.318492
    31  C    0.002369
    32  N   -0.223470
    33  C    0.130146
    34  H    0.029126
    35  H    0.029312
    36  H    0.028266
    37  H    0.025097
    38  H    0.065158
    39  H    0.058802
    40  H    0.075035
    41  H    0.032809
    42  C   -0.106790
    43  O   -0.265638
    44  C    0.138739
    45  H    0.135227
    46  N   -0.114697
    47  O   -0.346490
    48  C    0.350955
    49  H    0.050557
    50  C    0.164971
    51  C    0.043251
    52  N   -0.288442
    53  H    0.032586
    54  H    0.044654
    55  H    0.020150
    56  H    0.130011
    57  H    0.112316
    58  N   -0.065503
    59  C    0.084344
    60  C    0.234879
    61  N   -0.262051
    62  H    0.044842
    63  C    0.164553
    64  N   -0.301452
    65  H    0.032100
    66  C    0.134148
    67  N   -0.269558
    68  C    0.033159
    69  C    0.179043
    70  N   -0.312523
 Sum of Mulliken charges =  -0.00000

 Dipole moment (field-independent basis, Debye):
    X=              9.3338    Y=              5.2734    Z=              1.2035  Tot=             10.7878
 Quadrupole moment (field-independent basis, Debye-Ang):
   XX=           -155.6890   YY=           -212.6269   ZZ=           -250.0286
   XY=             -3.7296   XZ=              6.6231   YZ=             -4.6142

 Normal termination of Gaussian 16 at Fri Jan 26 04:55:05 2018.
