 Gaussian 16, Revision A.03,
 Gaussian 16:  EM64L-G16RevA.03 25-Dec-2016

 ---------------------------------------
 #p wb97xd/cc-pvdz sp scf=(maxcycles=20)
 ---------------------------------------

 ------------------
 Base pair stacking
 ------------------
 Symbolic Z-matrix:
 Charge =  0 Multiplicity = 1

                         Standard orientation:
 ---------------------------------------------------------------------
 Center     Atomic      Atomic             Coordinates (Angstroms)
 Number     Number       Type             X           Y           Z
 ---------------------------------------------------------------------
      1          7           0       -5.873248   -1.772936    1.010537
      2          6           0       -7.277050   -1.318717    0.978717
      3          6           0       -3.678812   -1.825685    1.148335
      4          7           0       -4.086566   -3.136206    0.945840
      5          6           0       -5.392312   -3.051977    0.870925
      6          1           0       -6.060222   -3.899314    0.713305
      7          7           0       -2.350816    0.092794    1.493038
      8          6           0       -3.493283    0.787077    1.510633
      9          1           0       -3.383081    1.860065    1.661661
     10          7           0       -4.745561    0.356938    1.370337
     11          6           0       -4.768987   -0.974049    1.190466
     12          6           0       -2.407988   -1.244496    1.310097
     13          7           0       -1.268636   -1.939276    1.292235
     14          1           0       -1.263485   -2.931052    1.159703
     15          1           0       -0.381851   -1.492362    1.410651
     16          1           0       -7.790869   -1.768068    1.709643
     17          1           0       -7.310728   -0.328278    1.109187
     18          1           0       -7.684775   -1.550936    0.095636
     19          7           0       -3.177826    3.076681   -1.516638
     20          6           0       -1.886944    2.615188   -1.423342
     21          6           0       -3.600441    4.477156   -1.314718
     22          7           0        1.485462    3.209918   -0.844619
     23          1           0        2.334632    2.682889   -0.824814
     24          1           0        1.554706    4.189268   -0.652774
     25          7           0       -0.796492    3.357598   -1.133856
     26          6           0        0.306381    2.630297   -1.116111
     27          7           0        0.340880    1.279189   -1.362718
     28          1           0        1.229802    0.804257   -1.327717
     29          6           0       -0.768694    0.495116   -1.662609
     30          8           0       -0.628794   -0.716785   -1.868693
     31          6           0       -1.960941    1.262518   -1.685301
     32          7           0       -3.271897    0.882456   -1.937971
     33          6           0       -3.956378    1.988531   -1.827173
     34          1           0       -5.035655    2.067060   -1.962351
     35          1           0       -4.252308    4.524636   -0.558662
     36          1           0       -2.801042    5.036601   -1.099666
     37          1           0       -4.031666    4.820433   -2.148392
     38          1           0        5.854053   -1.080700   -0.370657
     39          1           0        6.010613   -1.028937   -2.124924
     40          1           0        5.019326    0.169748   -1.293139
     41          1           0        3.338850   -4.994787   -1.595495
     42          6           0        3.220493   -3.911383   -1.574094
     43          8           0        0.858922   -3.980661   -1.786896
     44          6           0        1.908770   -3.348227   -1.674545
     45          1           0        0.961695   -1.534281   -1.705544
     46          7           0        1.871159   -1.968935   -1.637205
     47          8           0        2.805179    0.096004   -1.492925
     48          6           0        2.938695   -1.114898   -1.516739
     49          1           0        5.299538   -3.482331   -1.375888
     50          6           0        4.281192   -3.104240   -1.455613
     51          6           0        5.340546   -0.861251   -1.294892
     52          7           0        4.170044   -1.733445   -1.425094
     53          1           0        4.336205    4.166319    2.664530
     54          1           0        3.130634    4.087169    1.567985
     55          1           0        4.685601    4.095715    1.071942
     56          1           0        2.260732   -2.890317    1.683822
     57          1           0        3.871904   -2.439340    2.016752
     58          7           0        2.935546   -2.161359    1.799562
     59          6           0        2.602617   -0.875430    1.670229
     60          6           0        3.018364    1.467371    1.658410
     61          7           0        1.753132    1.811285    1.366319
     62          1           0       -0.055725    0.916077    1.009622
     63          6           0        0.990235    0.726562    1.246924
     64          7           0        1.321808   -0.562220    1.376080
     65          1           0        6.151746    1.902621    2.325268
     66          6           0        5.160537    1.494193    2.126198
     67          7           0        4.868814    0.216488    2.118416
     68          6           0        3.513612    0.185527    1.823091
     69          6           0        4.057606    3.782145    1.784309
     70          7           0        4.087858    2.308376    1.855630
 ---------------------------------------------------------------------

 SCF Done:  E(RwB97XD) =  -2048.73479696     A.U. after   15 cycles

 The electronic state is 1-A.
 Alpha  occ. eigenvalues --  -19.25792 -19.21946 -19.20526 -14.52459 -14.52374
 Alpha  occ. eigenvalues --  -14.48664 -14.48376 -14.48311 -14.47768 -14.46757
 Alpha  occ. eigenvalues --  -14.46135 -14.45436 -14.44109 -14.43826 -14.42142
 Alpha  occ. eigenvalues --  -14.41874 -14.41047 -14.40659 -14.40559 -14.39957
 Alpha  occ. eigenvalues --  -10.45409 -10.40899 -10.40069 -10.39802 -10.38083
 Alpha  occ. eigenvalues --  -10.37938 -10.37842 -10.37024 -10.35446 -10.35181
 Alpha  occ. eigenvalues --  -10.34904 -10.34206 -10.34178 -10.33731 -10.33144
 Alpha  occ. eigenvalues --  -10.32982 -10.32770 -10.32488 -10.31173 -10.30861
 Alpha  occ. eigenvalues --  -10.30627 -10.28180 -10.27937  -1.19374  -1.15138
 Alpha  occ. eigenvalues --   -1.13101  -1.12965  -1.10959  -1.10473  -1.09264
 Alpha  occ. eigenvalues --   -1.09195  -1.08372  -1.04784  -1.04691  -1.02399
 Alpha  occ. eigenvalues --   -1.00988  -1.00179  -0.99511  -0.98430  -0.96786
 Alpha  occ. eigenvalues --   -0.96544  -0.96459  -0.92387  -0.91050  -0.87568
 Alpha  occ. eigenvalues --   -0.86011  -0.83959  -0.83582  -0.83450  -0.82399
 Alpha  occ. eigenvalues --   -0.81989  -0.78853  -0.76965  -0.74815  -0.74445
 Alpha  occ. eigenvalues --   -0.73490  -0.73266  -0.72626  -0.70750  -0.70399
 Alpha  occ. eigenvalues --   -0.67206  -0.66812  -0.66462  -0.66035  -0.64381
 Alpha  occ. eigenvalues --   -0.64279  -0.63670  -0.62665  -0.62449  -0.61541
 Alpha  occ. eigenvalues --   -0.60602  -0.60250  -0.60119  -0.59488  -0.59404
 Alpha  occ. eigenvalues --   -0.59363  -0.58168  -0.56706  -0.56284  -0.55995
 Alpha  occ. eigenvalues --   -0.55919  -0.55501  -0.55195  -0.54747  -0.54292
 Alpha  occ. eigenvalues --   -0.53988  -0.53558  -0.53241  -0.53065  -0.52847
 Alpha  occ. eigenvalues --   -0.52604  -0.52248  -0.51459  -0.50402  -0.50069
 Alpha  occ. eigenvalues --   -0.49912  -0.49618  -0.49420  -0.49092  -0.48720
 Alpha  occ. eigenvalues --   -0.48620  -0.48193  -0.48020  -0.47645  -0.47263
 Alpha  occ. eigenvalues --   -0.46591  -0.45707  -0.44835  -0.44505  -0.43875
 Alpha  occ. eigenvalues --   -0.40834  -0.40799  -0.39381  -0.37832  -0.37684
 Alpha  occ. eigenvalues --   -0.37145  -0.36894  -0.36831  -0.35800  -0.34915
 Alpha  occ. eigenvalues --   -0.34338  -0.33333  -0.33251  -0.33092  -0.32550
 Alpha  occ. eigenvalues --   -0.32467  -0.32251  -0.31951  -0.31723  -0.30562
 Alpha  occ. eigenvalues --   -0.30139  -0.29816  -0.25712  -0.24882
 Alpha virt. eigenvalues --    0.02981   0.04199   0.07215   0.08264   0.08396
 Alpha virt. eigenvalues --    0.09393   0.09783   0.10674   0.11410   0.11655
 Alpha virt. eigenvalues --    0.12168   0.13998   0.14612   0.14673   0.15129

 Mulliken charges:
               1
     1  N   -0.313187
     2  C    0.181771
     3  C    0.042434
     4  N   -0.260196
     5  C    0.135675
     6  H    0.025645
     7  N   -0.294247
     8  C    0.143049
     9  H    0.007578
    10  N   -0.290002
    11  C    0.255677
    12  C    0.118703
    13  N   -0.059711
    14  H    0.109539
    15  H    0.083169
    16  H    0.023676
    17  H    0.032327
    18  H    0.027125
    19  N   -0.310500
    20  C    0.243690
    21  C    0.180871
    22  N   -0.083258
    23  H    0.111415
    24  H    0.112306
    25  N   -0.304269
    26  C    0.215606
    27  N   -0.142143
    28  H    0.124481
    29  C    0.174987
    30  O   -0.321167
    31  C    0.001107
    32  N   -0.224223
    33  C    0.129988
    34  H    0.023838
    35  H    0.028714
    36  H    0.027943
    37  H    0.024293
    38  H    0.060679
    39  H    0.058619
    40  H    0.073545
    41  H    0.030851
    42  C   -0.113085
    43  O   -0.262457
    44  C    0.169012
    45  H    0.132979
    46  N   -0.124303
    47  O   -0.343919
    48  C    0.342142
    49  H    0.046651
    50  C    0.163058
    51  C    0.041212
    52  N   -0.285890
    53  H    0.037446
    54  H    0.034483
    55  H    0.028572
    56  H    0.122183
    57  H    0.115794
    58  N   -0.063578
    59  C    0.080785
    60  C    0.236519
    61  N   -0.273701
    62  H    0.040377
    63  C    0.163210
    64  N   -0.300542
    65  H    0.036547
    66  C    0.136768
    67  N   -0.268087
    68  C    0.041539
    69  C    0.174666
    70  N   -0.314780
 Sum of Mulliken charges =  -0.00000

 Dipole moment (field-independent basis, Debye):
    X=              8.8972    Y=              5.3902    Z=              2.2390  Tot=             10.6409
 Quadrupole moment (field-independent basis, Debye-Ang):
   XX=           -159.8648   YY=           -212.9877   ZZ=           -254.2614
   XY=             -4.3700   XZ=             -1.0464   YZ=             -7.8896

 Normal termination of Gaussian 16 at Fri Jan 26 14:16:03 2018.
