 Gaussian 16, Revision A.03,
 Gaussian 16:  EM64L-G16RevA.03 25-Dec-2016

 ---------------------------------------
 #p wb97xd/cc-pvdz sp scf=(maxcycles=20)
 ---------------------------------------

 ------------------
 Base pair stacking
 ------------------
 Symbolic Z-matrix:
 Charge =  0 Multiplicity = 1

                         Standard orientation:
 ---------------------------------------------------------------------
 Center     Atomic      Atomic             Coordinates (Angstroms)
 Number     Number       Type             X           Y           Z
 ---------------------------------------------------------------------
      1          7           0       -6.429768   -1.655031    0.604030
      2          6           0       -7.823895   -1.189117    0.472414
      3          6           0       -4.249132   -1.724156    0.882175
      4          7           0       -4.656976   -3.035466    0.685060
      5          6           0       -5.954404   -2.941340    0.525380
      6          1           0       -6.619859   -3.786209    0.345630
      7          7           0       -2.925539    0.190064    1.265329
      8          6           0       -4.059486    0.894807    1.193969
      9          1           0       -3.947807    1.970105    1.326413
     10          7           0       -5.304818    0.472689    0.984546
     11          6           0       -5.330777   -0.861990    0.834919
     12          6           0       -2.985064   -1.150675    1.110631
     13          7           0       -1.854212   -1.855892    1.181529
     14          1           0       -1.851105   -2.850585    1.072954
     15          1           0       -0.972057   -1.414236    1.345499
     16          1           0       -8.387629   -1.616056    1.179589
     17          1           0       -7.855363   -0.195554    0.577147
     18          1           0       -8.177320   -1.438913   -0.429079
     19          7           0       -2.544145    3.026402   -1.712743
     20          6           0       -1.266673    2.555715   -1.526797
     21          6           0       -2.963966    4.435084   -1.571079
     22          7           0        2.068396    3.133913   -0.749142
     23          1           0        2.909030    2.599907   -0.663037
     24          1           0        2.135636    4.116948   -0.576374
     25          7           0       -0.189007    3.295068   -1.186164
     26          6           0        0.902844    2.558526   -1.081284
     27          7           0        0.938696    1.201603   -1.293352
     28          1           0        1.818583    0.719684   -1.190777
     29          6           0       -0.157841    0.420522   -1.644602
     30          8           0       -0.017908   -0.797209   -1.812819
     31          6           0       -1.338138    1.197844   -1.761036
     32          7           0       -2.634389    0.823579   -2.087473
     33          6           0       -3.312870    1.938112   -2.046434
     34          1           0       -4.380533    2.023060   -2.251712
     35          1           0       -3.661849    4.506668   -0.859289
     36          1           0       -2.173953    4.992352   -1.318894
     37          1           0       -3.337929    4.762006   -2.438307
     38          1           0        6.352937   -1.183095    0.102195
     39          1           0        6.620760   -1.175104   -1.639314
     40          1           0        5.591450    0.052170   -0.900612
     41          1           0        3.879354   -5.102850   -1.187554
     42          6           0        3.771260   -4.018225   -1.199206
     43          8           0        1.427288   -4.071386   -1.559922
     44          6           0        2.474511   -3.445894   -1.396007
     45          1           0        1.550394   -1.624787   -1.529770
     46          7           0        2.449095   -2.065820   -1.393586
     47          8           0        3.393737   -0.006476   -1.238870
     48          6           0        3.515769   -1.218743   -1.225653
     49          1           0        5.837980   -3.603212   -0.879464
     50          6           0        4.830748   -3.218012   -1.032594
     51          6           0        5.901294   -0.981405   -0.857701
     52          7           0        4.732289   -1.845936   -1.041451
     53          1           0        3.716316    4.230440    2.763142
     54          1           0        2.581798    4.135677    1.594386
     55          1           0        4.165052    4.118274    1.198060
     56          1           0        1.633109   -2.828880    1.818819
     57          1           0        3.224626   -2.384492    2.242725
     58          7           0        2.306853   -2.103432    1.960006
     59          6           0        1.996298   -0.818071    1.779570
     60          6           0        2.436543    1.519942    1.739086
     61          7           0        1.196005    1.868058    1.359203
     62          1           0       -0.595943    0.980792    0.909456
     63          6           0        0.430852    0.787669    1.217121
     64          7           0        0.740045   -0.500547    1.397362
     65          1           0        5.525818    1.942989    2.593238
     66          6           0        4.544964    1.538788    2.341259
     67          7           0        4.240919    0.263950    2.345017
     68          6           0        2.906886    0.238038    1.965012
     69          6           0        3.489975    3.827647    1.876281
     70          7           0        3.500180    2.355809    1.984015
 ---------------------------------------------------------------------

 SCF Done:  E(RwB97XD) =  -2048.72416615     A.U. after   15 cycles

 The electronic state is 1-A.
 Alpha  occ. eigenvalues --  -19.25983 -19.22126 -19.20707 -14.52531 -14.52130
 Alpha  occ. eigenvalues --  -14.48805 -14.48642 -14.47943 -14.47759 -14.46811
 Alpha  occ. eigenvalues --  -14.46565 -14.45058 -14.43561 -14.43059 -14.42189
 Alpha  occ. eigenvalues --  -14.42108 -14.41321 -14.40782 -14.40773 -14.40033
 Alpha  occ. eigenvalues --  -10.45583 -10.41220 -10.40233 -10.39322 -10.38263
 Alpha  occ. eigenvalues --  -10.37954 -10.37604 -10.36533 -10.35319 -10.35125
 Alpha  occ. eigenvalues --  -10.35003 -10.34406 -10.34000 -10.33985 -10.33236
 Alpha  occ. eigenvalues --  -10.33231 -10.32977 -10.32048 -10.31272 -10.30952
 Alpha  occ. eigenvalues --  -10.30845 -10.28414 -10.28150  -1.19543  -1.14802
 Alpha  occ. eigenvalues --   -1.13335  -1.13142  -1.11224  -1.10632  -1.09423
 Alpha  occ. eigenvalues --   -1.08863  -1.08510  -1.04860  -1.04227  -1.02583
 Alpha  occ. eigenvalues --   -1.00715  -1.00342  -0.99862  -0.98605  -0.96877
 Alpha  occ. eigenvalues --   -0.96606  -0.96186  -0.92521  -0.91174  -0.87220
 Alpha  occ. eigenvalues --   -0.85737  -0.84156  -0.83820  -0.83632  -0.82560
 Alpha  occ. eigenvalues --   -0.82206  -0.78993  -0.76587  -0.74720  -0.74310
 Alpha  occ. eigenvalues --   -0.73767  -0.73444  -0.72805  -0.70947  -0.70019
 Alpha  occ. eigenvalues --   -0.67497  -0.66647  -0.66367  -0.66218  -0.64533
 Alpha  occ. eigenvalues --   -0.63915  -0.63835  -0.62825  -0.62616  -0.61981
 Alpha  occ. eigenvalues --   -0.60278  -0.60181  -0.59956  -0.59603  -0.59473
 Alpha  occ. eigenvalues --   -0.59140  -0.58489  -0.56942  -0.56446  -0.56254
 Alpha  occ. eigenvalues --   -0.56060  -0.55515  -0.55341  -0.54822  -0.54428
 Alpha  occ. eigenvalues --   -0.53766  -0.53662  -0.53173  -0.53016  -0.52791
 Alpha  occ. eigenvalues --   -0.52414  -0.52276  -0.51658  -0.50614  -0.50220
 Alpha  occ. eigenvalues --   -0.50098  -0.49496  -0.49356  -0.48882  -0.48720
 Alpha  occ. eigenvalues --   -0.48664  -0.48414  -0.48255  -0.48205  -0.47452
 Alpha  occ. eigenvalues --   -0.46827  -0.45849  -0.44940  -0.44079  -0.43541
 Alpha  occ. eigenvalues --   -0.41043  -0.40153  -0.39526  -0.37751  -0.37298
 Alpha  occ. eigenvalues --   -0.37208  -0.37064  -0.36806  -0.35887  -0.34532
 Alpha  occ. eigenvalues --   -0.34104  -0.33469  -0.33373  -0.33272  -0.32754
 Alpha  occ. eigenvalues --   -0.32671  -0.32452  -0.32086  -0.31848  -0.30709
 Alpha  occ. eigenvalues --   -0.30256  -0.29151  -0.25830  -0.25326
 Alpha virt. eigenvalues --    0.02916   0.04460   0.07567   0.08075   0.08536
 Alpha virt. eigenvalues --    0.09061   0.09473   0.10959   0.11420   0.11860
 Alpha virt. eigenvalues --    0.12461   0.14019   0.14195   0.14660   0.14991

 Mulliken charges:
               1
     1  N   -0.312084
     2  C    0.181287
     3  C    0.036401
     4  N   -0.260040
     5  C    0.134418
     6  H    0.026173
     7  N   -0.292855
     8  C    0.140411
     9  H    0.006582
    10  N   -0.291912
    11  C    0.248331
    12  C    0.125068
    13  N   -0.057417
    14  H    0.109029
    15  H    0.087156
    16  H    0.024683
    17  H    0.033539
    18  H    0.026587
    19  N   -0.311722
    20  C    0.239694
    21  C    0.181360
    22  N   -0.095123
    23  H    0.115436
    24  H    0.112003
    25  N   -0.290732
    26  C    0.203987
    27  N   -0.116827
    28  H    0.114511
    29  C    0.146231
    30  O   -0.315922
    31  C    0.017027
    32  N   -0.222806
    33  C    0.126394
    34  H    0.028399
    35  H    0.028518
    36  H    0.027834
    37  H    0.024867
    38  H    0.063243
    39  H    0.057768
    40  H    0.074176
    41  H    0.031757
    42  C   -0.112358
    43  O   -0.264135
    44  C    0.168436
    45  H    0.133775
    46  N   -0.129826
    47  O   -0.346690
    48  C    0.354018
    49  H    0.048196
    50  C    0.166999
    51  C    0.042924
    52  N   -0.292150
    53  H    0.037719
    54  H    0.042246
    55  H    0.020848
    56  H    0.125180
    57  H    0.114618
    58  N   -0.068160
    59  C    0.084958
    60  C    0.211678
    61  N   -0.259135
    62  H    0.050152
    63  C    0.165272
    64  N   -0.301270
    65  H    0.033347
    66  C    0.133937
    67  N   -0.266836
    68  C    0.048550
    69  C    0.163740
    70  N   -0.311463
 Sum of Mulliken charges =  -0.00000

 Dipole moment (field-independent basis, Debye):
    X=              8.6243    Y=              5.1712    Z=              2.5478  Tot=             10.3736
 Quadrupole moment (field-independent basis, Debye-Ang):
   XX=           -155.9670   YY=           -214.1428   ZZ=           -253.5322
   XY=             -2.8574   XZ=              6.0055   YZ=             -9.2507

 Normal termination of Gaussian 16 at Fri Jan 26 15:24:22 2018.
