 Gaussian 16, Revision A.03,
 Gaussian 16:  EM64L-G16RevA.03 25-Dec-2016

 ---------------------------------------
 #p wb97xd/cc-pvdz sp scf=(maxcycles=20)
 ---------------------------------------

 ------------------
 Base pair stacking
 ------------------
 Symbolic Z-matrix:
 Charge =  0 Multiplicity = 1

                         Standard orientation:
 ---------------------------------------------------------------------
 Center     Atomic      Atomic             Coordinates (Angstroms)
 Number     Number       Type             X           Y           Z
 ---------------------------------------------------------------------
      1          7           0       -6.623181   -1.622279    0.476007
      2          6           0       -8.000457   -1.170583    0.198352
      3          6           0       -4.459939   -1.666465    0.870607
      4          7           0       -4.882564   -2.987856    0.876457
      5          6           0       -6.168926   -2.908354    0.638489
      6          1           0       -6.840868   -3.764366    0.570159
      7          7           0       -3.120263    0.270903    0.992455
      8          6           0       -4.236062    0.965419    0.747023
      9          1           0       -4.110579    2.046399    0.702332
     10          7           0       -5.477746    0.527153    0.549433
     11          6           0       -5.521684   -0.813276    0.625073
     12          6           0       -3.197600   -1.076023    1.062444
     13          7           0       -2.084874   -1.771040    1.307341
     14          1           0       -2.095329   -2.769766    1.367739
     15          1           0       -1.203364   -1.317377    1.438731
     16          1           0       -8.605132   -1.466097    0.938086
     17          1           0       -8.018160   -0.173310    0.132949
     18          1           0       -8.315237   -1.565175   -0.664897
     19          7           0       -2.362041    2.893053   -1.663317
     20          6           0       -1.089717    2.434602   -1.420256
     21          6           0       -2.820639    4.282986   -1.467144
     22          7           0        2.173599    3.023526   -0.387952
     23          1           0        3.018086    2.500205   -0.277370
     24          1           0        2.208051    3.995361   -0.153306
     25          7           0       -0.053062    3.170930   -0.965053
     26          6           0        1.045165    2.448772   -0.830904
     27          7           0        1.124241    1.107978   -1.119872
     28          1           0        2.005672    0.636338   -0.987188
     29          6           0        0.070360    0.330306   -1.589383
     30          8           0        0.247360   -0.872389   -1.819470
     31          6           0       -1.116229    1.092298   -1.738566
     32          7           0       -2.379767    0.715632   -2.172714
     33          6           0       -3.083413    1.813517   -2.111494
     34          1           0       -4.136818    1.891848   -2.382523
     35          1           0       -3.565270    4.299142   -0.800767
     36          1           0       -2.061177    4.837861   -1.130091
     37          1           0       -3.143628    4.655024   -2.336668
     38          1           0        6.485066   -1.260765    0.492232
     39          1           0        6.866789   -1.142925   -1.223883
     40          1           0        5.764768    0.019160   -0.484653
     41          1           0        4.187114   -5.138523   -1.189753
     42          6           0        4.056607   -4.057246   -1.144537
     43          8           0        1.743192   -4.129870   -1.664104
     44          6           0        2.763574   -3.497032   -1.393679
     45          1           0        1.811121   -1.687756   -1.481295
     46          7           0        2.708225   -2.120293   -1.311449
     47          8           0        3.595889   -0.057701   -0.972367
     48          6           0        3.742972   -1.266219   -1.022641
     49          1           0        6.088324   -3.625915   -0.662983
     50          6           0        5.085277   -3.249993   -0.860287
     51          6           0        6.093383   -1.009499   -0.482189
     52          7           0        4.957978   -1.881833   -0.794657
     53          1           0        3.517713    4.435829    2.120676
     54          1           0        2.438501    4.157171    0.929150
     55          1           0        4.038204    4.056446    0.621144
     56          1           0        1.349245   -2.659250    2.272812
     57          1           0        2.926887   -2.166506    2.695157
     58          7           0        2.029061   -1.927531    2.323652
     59          6           0        1.751685   -0.687838    1.914498
     60          6           0        2.237300    1.605042    1.503839
     61          7           0        1.023017    1.897124    1.009245
     62          1           0       -0.761906    0.965624    0.625849
     63          6           0        0.245279    0.816373    1.012599
     64          7           0        0.521233   -0.426137    1.421971
     65          1           0        5.289866    2.133561    2.428328
     66          6           0        4.314672    1.702998    2.199070
     67          7           0        3.986846    0.450347    2.401753
     68          6           0        2.672152    0.374763    1.965196
     69          6           0        3.326274    3.891567    1.303890
     70          7           0        3.303632    2.458999    1.657780
 ---------------------------------------------------------------------

 SCF Done:  E(RwB97XD) =  -2048.53701617     A.U. after   15 cycles

 The electronic state is 1-A.
 Alpha  occ. eigenvalues --  -19.25916 -19.21957 -19.20399 -14.52714 -14.52471
 Alpha  occ. eigenvalues --  -14.48981 -14.48449 -14.48259 -14.47902 -14.45560
 Alpha  occ. eigenvalues --  -14.45490 -14.44031 -14.43742 -14.42953 -14.42680
 Alpha  occ. eigenvalues --  -14.41695 -14.41156 -14.41131 -14.40432 -14.40424
 Alpha  occ. eigenvalues --  -10.45522 -10.41334 -10.40089 -10.39839 -10.38185
 Alpha  occ. eigenvalues --  -10.37864 -10.37835 -10.36964 -10.35744 -10.35356
 Alpha  occ. eigenvalues --  -10.35183 -10.34345 -10.34186 -10.34070 -10.33614
 Alpha  occ. eigenvalues --  -10.33371 -10.32820 -10.32589 -10.31154 -10.31081
 Alpha  occ. eigenvalues --  -10.30744 -10.28812 -10.27645  -1.19499  -1.16393
 Alpha  occ. eigenvalues --   -1.13482  -1.12994  -1.11582  -1.10380  -1.09736
 Alpha  occ. eigenvalues --   -1.09355  -1.08937  -1.05264  -1.04406  -1.03035
 Alpha  occ. eigenvalues --   -1.02488  -1.00774  -0.99234  -0.98266  -0.97276
 Alpha  occ. eigenvalues --   -0.96999  -0.96251  -0.92929  -0.91081  -0.88509
 Alpha  occ. eigenvalues --   -0.87118  -0.84170  -0.83802  -0.83626  -0.82537
 Alpha  occ. eigenvalues --   -0.82353  -0.78912  -0.77650  -0.75312  -0.74548
 Alpha  occ. eigenvalues --   -0.73826  -0.73371  -0.73195  -0.71344  -0.71089
 Alpha  occ. eigenvalues --   -0.68488  -0.67371  -0.66613  -0.66564  -0.65468
 Alpha  occ. eigenvalues --   -0.64378  -0.63691  -0.63558  -0.62966  -0.62874
 Alpha  occ. eigenvalues --   -0.61229  -0.60826  -0.60574  -0.60127  -0.59536
 Alpha  occ. eigenvalues --   -0.59454  -0.59225  -0.57254  -0.56828  -0.56545
 Alpha  occ. eigenvalues --   -0.56116  -0.55772  -0.55633  -0.54727  -0.54379
 Alpha  occ. eigenvalues --   -0.53691  -0.53371  -0.53313  -0.52961  -0.52560
 Alpha  occ. eigenvalues --   -0.52365  -0.51973  -0.51085  -0.50922  -0.50461
 Alpha  occ. eigenvalues --   -0.50084  -0.49803  -0.49370  -0.49220  -0.48689
 Alpha  occ. eigenvalues --   -0.48550  -0.48429  -0.48245  -0.47961  -0.47181
 Alpha  occ. eigenvalues --   -0.47139  -0.46335  -0.45305  -0.44000  -0.42874
 Alpha  occ. eigenvalues --   -0.41450  -0.39617  -0.39338  -0.38265  -0.37499
 Alpha  occ. eigenvalues --   -0.37456  -0.36871  -0.36463  -0.35782  -0.34997
 Alpha  occ. eigenvalues --   -0.34188  -0.33831  -0.33713  -0.33096  -0.32420
 Alpha  occ. eigenvalues --   -0.32141  -0.31982  -0.31551  -0.31010  -0.30822
 Alpha  occ. eigenvalues --   -0.30366  -0.28463  -0.26134  -0.24586
 Alpha virt. eigenvalues --    0.02857   0.03174   0.06958   0.07655   0.08402
 Alpha virt. eigenvalues --    0.08940   0.09390   0.10586   0.11646   0.12299
 Alpha virt. eigenvalues --    0.12876   0.13668   0.14093   0.14584   0.15268

 Mulliken charges:
               1
     1  N   -0.312323
     2  C    0.181230
     3  C    0.034479
     4  N   -0.261140
     5  C    0.135232
     6  H    0.027373
     7  N   -0.291865
     8  C    0.143413
     9  H    0.004752
    10  N   -0.289229
    11  C    0.249168
    12  C    0.125996
    13  N   -0.060830
    14  H    0.107132
    15  H    0.086726
    16  H    0.025177
    17  H    0.034407
    18  H    0.027621
    19  N   -0.309034
    20  C    0.221008
    21  C    0.181559
    22  N   -0.104087
    23  H    0.113254
    24  H    0.082757
    25  N   -0.262863
    26  C    0.186943
    27  N   -0.111259
    28  H    0.116714
    29  C    0.122862
    30  O   -0.316325
    31  C    0.019658
    32  N   -0.218858
    33  C    0.114980
    34  H    0.028156
    35  H    0.025020
    36  H    0.026638
    37  H    0.024730
    38  H    0.061458
    39  H    0.058122
    40  H    0.074164
    41  H    0.031974
    42  C   -0.112014
    43  O   -0.262467
    44  C    0.176963
    45  H    0.133396
    46  N   -0.137586
    47  O   -0.345214
    48  C    0.358916
    49  H    0.047524
    50  C    0.168321
    51  C    0.043666
    52  N   -0.296170
    53  H    0.025132
    54  H    0.040617
    55  H    0.013768
    56  H    0.122818
    57  H    0.116991
    58  N   -0.068156
    59  C    0.099632
    60  C    0.229645
    61  N   -0.269997
    62  H    0.081079
    63  C    0.172603
    64  N   -0.298047
    65  H    0.035754
    66  C    0.136903
    67  N   -0.263980
    68  C    0.046173
    69  C    0.203444
    70  N   -0.334605
 Sum of Mulliken charges =  -0.00000

 Dipole moment (field-independent basis, Debye):
    X=              8.1552    Y=              4.6415    Z=              4.2781  Tot=             10.3127
 Quadrupole moment (field-independent basis, Debye-Ang):
   XX=           -153.8334   YY=           -217.8425   ZZ=           -255.0165
   XY=             -1.6974   XZ=              8.7278   YZ=            -11.9073

 Normal termination of Gaussian 16 at Fri Jan 26 10:20:41 2018.
