 Gaussian 16, Revision A.03,
 Gaussian 16:  EM64L-G16RevA.03 25-Dec-2016

 ---------------------------------------
 #p wb97xd/cc-pvdz sp scf=(maxcycles=20)
 ---------------------------------------

 ------------------
 Base pair stacking
 ------------------
 Symbolic Z-matrix:
 Charge =  0 Multiplicity = 1

                         Standard orientation:
 ---------------------------------------------------------------------
 Center     Atomic      Atomic             Coordinates (Angstroms)
 Number     Number       Type             X           Y           Z
 ---------------------------------------------------------------------
      1          7           0        4.244882   -2.389561   -1.887013
      2          6           0        5.625836   -2.090785   -2.313281
      3          6           0        2.086220   -2.250325   -1.489391
      4          7           0        2.487228   -3.494050   -1.023479
      5          6           0        3.771698   -3.528162   -1.281690
      6          1           0        4.428658   -4.366927   -1.049730
      7          7           0        0.780005   -0.367040   -2.046136
      8          6           0        1.903905    0.175546   -2.525766
      9          1           0        1.795578    1.174697   -2.945542
     10          7           0        3.135742   -0.328426   -2.564511
     11          6           0        3.158685   -1.558131   -2.024381
     12          6           0        0.836158   -1.605435   -1.509211
     13          7           0       -0.284673   -2.148742   -1.029920
     14          1           0       -0.289804   -3.063110   -0.623563
     15          1           0       -1.156973   -1.660582   -1.060655
     16          1           0        5.923022   -2.769523   -2.984980
     17          1           0        5.659037   -1.180091   -2.723971
     18          1           0        6.235121   -2.119640   -1.520857
     19          7           0        4.812686    3.064047    0.632059
     20          6           0        3.510462    2.695951    0.870352
     21          6           0        5.273619    4.438717    0.351844
     22          7           0        0.158300    3.541559    1.201515
     23          1           0       -0.704518    3.075120    1.394431
     24          1           0        0.116252    4.529760    1.051790
     25          7           0        2.441799    3.521585    0.888401
     26          6           0        1.320013    2.872811    1.145887
     27          7           0        1.248126    1.519076    1.368934
     28          1           0        0.347053    1.107851    1.558462
     29          6           0        2.334752    0.650205    1.355201
     30          8           0        2.161437   -0.556015    1.569076
     31          6           0        3.546920    1.332660    1.079900
     32          7           0        4.845882    0.854494    0.975269
     33          6           0        5.560244    1.914339    0.709500
     34          1           0        6.640488    1.913614    0.560008
     35          1           0        5.709357    4.469214   -0.547054
     36          1           0        4.490608    5.059231    0.362614
     37          1           0        5.930578    4.720641    1.050221
     38          1           0       -4.496520   -0.418854    1.806774
     39          1           0       -4.189541   -0.421194    3.541824
     40          1           0       -3.359231    0.736511    2.501786
     41          1           0       -2.054380   -4.538759    2.263814
     42          6           0       -1.863779   -3.465979    2.231538
     43          8           0        0.460157   -3.704894    1.820033
     44          6           0       -0.531942   -2.998225    1.996519
     45          1           0        0.525647   -1.255906    1.811742
     46          7           0       -0.400786   -1.624323    1.975162
     47          8           0       -1.180971    0.503735    2.116073
     48          6           0       -1.395211   -0.695198    2.152356
     49          1           0       -3.884603   -2.888300    2.589862
     50          6           0       -2.854656   -2.584147    2.408044
     51          6           0       -3.746284   -0.269372    2.568917
     52          7           0       -2.651572   -1.224015    2.373942
     53          1           0       -5.844212    3.913706   -2.736954
     54          1           0       -4.404317    4.006135   -1.975209
     55          1           0       -5.782547    4.307300   -1.154323
     56          1           0       -3.828747   -2.800142   -0.302288
     57          1           0       -5.455559   -2.290573   -0.365070
     58          7           0       -4.485824   -2.062919   -0.460037
     59          6           0       -4.087657   -0.830642   -0.782731
     60          6           0       -4.407340    1.460228   -1.340831
     61          7           0       -3.098445    1.737095   -1.461430
     62          1           0       -1.289524    0.787815   -1.296280
     63          6           0       -2.367317    0.650867   -1.219659
     64          7           0       -2.764232   -0.584237   -0.896306
     65          1           0       -7.590980    2.022742   -1.355412
     66          6           0       -6.596047    1.582201   -1.284904
     67          7           0       -6.355260    0.329920   -0.982419
     68          6           0       -4.971264    0.239174   -1.014396
     69          6           0       -5.365664    3.751834   -1.873935
     70          7           0       -5.462862    2.323804   -1.514343
 ---------------------------------------------------------------------

 SCF Done:  E(RwB97XD) =  -2048.74195445     A.U. after   15 cycles

 The electronic state is 1-A.
 Alpha  occ. eigenvalues --  -19.25483 -19.21677 -19.20728 -14.52378 -14.52114
 Alpha  occ. eigenvalues --  -14.49092 -14.48946 -14.47733 -14.47380 -14.46991
 Alpha  occ. eigenvalues --  -14.46807 -14.45347 -14.44829 -14.44561 -14.42482
 Alpha  occ. eigenvalues --  -14.42206 -14.41242 -14.40438 -14.40302 -14.40090
 Alpha  occ. eigenvalues --  -10.45097 -10.41409 -10.40365 -10.39749 -10.38369
 Alpha  occ. eigenvalues --  -10.37943 -10.37811 -10.37316 -10.36031 -10.35207
 Alpha  occ. eigenvalues --  -10.34745 -10.34601 -10.33741 -10.33658 -10.33099
 Alpha  occ. eigenvalues --  -10.32863 -10.32622 -10.32613 -10.31212 -10.31088
 Alpha  occ. eigenvalues --  -10.29833 -10.28358 -10.27870  -1.19032  -1.15182
 Alpha  occ. eigenvalues --   -1.13357  -1.12690  -1.10835  -1.10398  -1.09729
 Alpha  occ. eigenvalues --   -1.08997  -1.08707  -1.05221  -1.04725  -1.02072
 Alpha  occ. eigenvalues --   -1.00988  -1.00211  -0.99892  -0.98735  -0.97210
 Alpha  occ. eigenvalues --   -0.96869  -0.96084  -0.92427  -0.90946  -0.87717
 Alpha  occ. eigenvalues --   -0.85868  -0.84380  -0.83260  -0.83119  -0.82759
 Alpha  occ. eigenvalues --   -0.81452  -0.78664  -0.77255  -0.75041  -0.74838
 Alpha  occ. eigenvalues --   -0.73789  -0.73032  -0.72416  -0.70678  -0.70469
 Alpha  occ. eigenvalues --   -0.67555  -0.67099  -0.66289  -0.65826  -0.64527
 Alpha  occ. eigenvalues --   -0.64442  -0.63728  -0.62750  -0.62303  -0.61943
 Alpha  occ. eigenvalues --   -0.60768  -0.60363  -0.59803  -0.59443  -0.59350
 Alpha  occ. eigenvalues --   -0.59159  -0.58505  -0.56883  -0.56126  -0.55836
 Alpha  occ. eigenvalues --   -0.55390  -0.55269  -0.55180  -0.54682  -0.54285
 Alpha  occ. eigenvalues --   -0.53745  -0.53658  -0.53596  -0.53130  -0.52879
 Alpha  occ. eigenvalues --   -0.52745  -0.52136  -0.50961  -0.50342  -0.50107
 Alpha  occ. eigenvalues --   -0.49924  -0.49578  -0.49437  -0.49139  -0.48881
 Alpha  occ. eigenvalues --   -0.48380  -0.48281  -0.48019  -0.47839  -0.47305
 Alpha  occ. eigenvalues --   -0.46289  -0.45669  -0.45320  -0.44525  -0.43713
 Alpha  occ. eigenvalues --   -0.40773  -0.40728  -0.39174  -0.37976  -0.37737
 Alpha  occ. eigenvalues --   -0.37517  -0.37444  -0.36420  -0.35519  -0.35033
 Alpha  occ. eigenvalues --   -0.34605  -0.34186  -0.33072  -0.32911  -0.32822
 Alpha  occ. eigenvalues --   -0.32707  -0.32588  -0.32046  -0.31737  -0.30426
 Alpha  occ. eigenvalues --   -0.30230  -0.29910  -0.25872  -0.25240
 Alpha virt. eigenvalues --    0.03006   0.04022   0.06816   0.08436   0.08753
 Alpha virt. eigenvalues --    0.09119   0.09617   0.10515   0.11223   0.11459
 Alpha virt. eigenvalues --    0.13774   0.14298   0.14491   0.14986   0.15206

 Mulliken charges:
               1
     1  N   -0.312652
     2  C    0.183815
     3  C    0.056427
     4  N   -0.250193
     5  C    0.143718
     6  H    0.026397
     7  N   -0.299585
     8  C    0.131889
     9  H    0.010098
    10  N   -0.283064
    11  C    0.259983
    12  C    0.089096
    13  N   -0.069826
    14  H    0.112550
    15  H    0.082260
    16  H    0.019654
    17  H    0.032048
    18  H    0.032012
    19  N   -0.311307
    20  C    0.250812
    21  C    0.180832
    22  N   -0.123556
    23  H    0.118849
    24  H    0.118237
    25  N   -0.312387
    26  C    0.249729
    27  N   -0.149853
    28  H    0.120958
    29  C    0.195066
    30  O   -0.320460
    31  C   -0.012694
    32  N   -0.231516
    33  C    0.126127
    34  H    0.023882
    35  H    0.027791
    36  H    0.029917
    37  H    0.025427
    38  H    0.056813
    39  H    0.058454
    40  H    0.075234
    41  H    0.028879
    42  C   -0.113650
    43  O   -0.248166
    44  C    0.148730
    45  H    0.136770
    46  N   -0.120200
    47  O   -0.352407
    48  C    0.354781
    49  H    0.041138
    50  C    0.157084
    51  C    0.040880
    52  N   -0.279750
    53  H    0.033924
    54  H    0.041875
    55  H    0.029701
    56  H    0.115883
    57  H    0.119526
    58  N   -0.066821
    59  C    0.083932
    60  C    0.249938
    61  N   -0.273166
    62  H    0.035782
    63  C    0.179088
    64  N   -0.317086
    65  H    0.039061
    66  C    0.142936
    67  N   -0.262759
    68  C    0.025905
    69  C    0.180047
    70  N   -0.312837
 Sum of Mulliken charges =  -0.00000

 Dipole moment (field-independent basis, Debye):
    X=             -8.6137    Y=              6.3696    Z=              0.4820  Tot=             10.7238
 Quadrupole moment (field-independent basis, Debye-Ang):
   XX=           -174.1348   YY=           -210.3916   ZZ=           -246.8966
   XY=              6.4730   XZ=            -17.3854   YZ=              0.4409

 Normal termination of Gaussian 16 at Fri Jan 26 07:22:08 2018.
