 Gaussian 16, Revision A.03,
 Gaussian 16:  EM64L-G16RevA.03 25-Dec-2016

 ---------------------------------------
 #p wb97xd/cc-pvdz sp scf=(maxcycles=20)
 ---------------------------------------

 ------------------
 Base pair stacking
 ------------------
 Symbolic Z-matrix:
 Charge =  0 Multiplicity = 1

                         Standard orientation:
 ---------------------------------------------------------------------
 Center     Atomic      Atomic             Coordinates (Angstroms)
 Number     Number       Type             X           Y           Z
 ---------------------------------------------------------------------
      1          7           0        4.596596   -2.307977   -1.742898
      2          6           0        5.986743   -1.985107   -2.118731
      3          6           0        2.422713   -2.206646   -1.424654
      4          7           0        2.828265   -3.442848   -0.942915
      5          6           0        4.121714   -3.454424   -1.153934
      6          1           0        4.784422   -4.281337   -0.897106
      7          7           0        1.104768   -0.346999   -2.031035
      8          6           0        2.235730    0.215067   -2.469885
      9          1           0        2.125249    1.211923   -2.894528
     10          7           0        3.476847   -0.267107   -2.462954
     11          6           0        3.501674   -1.495912   -1.920887
     12          6           0        1.163056   -1.583931   -1.490948
     13          7           0        0.035176   -2.146673   -1.052321
     14          1           0        0.031290   -3.060768   -0.645338
     15          1           0       -0.843881   -1.674001   -1.115517
     16          1           0        6.320218   -2.658848   -2.778306
     17          1           0        6.018899   -1.074192   -2.529014
     18          1           0        6.567042   -2.002765   -1.304522
     19          7           0        4.481109    3.141338    0.819640
     20          6           0        3.177725    2.750446    1.010585
     21          6           0        4.927696    4.523776    0.554836
     22          7           0       -0.198685    3.536940    1.217927
     23          1           0       -1.059633    3.055450    1.379713
     24          1           0       -0.252630    4.524163    1.065591
     25          7           0        2.094738    3.557100    0.988558
     26          6           0        0.975886    2.888769    1.205616
     27          7           0        0.919747    1.534097    1.427493
     28          1           0        0.019725    1.107137    1.584418
     29          6           0        2.021287    0.684532    1.454541
     30          8           0        1.861541   -0.524433    1.663367
     31          6           0        3.230504    1.388125    1.222946
     32          7           0        4.540647    0.932902    1.166458
     33          6           0        5.245462    2.005046    0.925737
     34          1           0        6.330304    2.023305    0.815840
     35          1           0        5.395425    4.561472   -0.327560
     36          1           0        4.133996    5.130382    0.536229
     37          1           0        5.553586    4.817631    1.276440
     38          1           0       -4.802039   -0.504680    1.657248
     39          1           0       -4.558752   -0.500660    3.402366
     40          1           0       -3.711470    0.670964    2.392015
     41          1           0       -2.306054   -4.580593    2.208189
     42          6           0       -2.133338   -3.504633    2.181635
     43          8           0        0.207955   -3.702721    1.855677
     44          6           0       -0.802231   -3.013576    1.994922
     45          1           0        0.230552   -1.252953    1.846878
     46          7           0       -0.694607   -1.637584    1.976745
     47          8           0       -1.516794    0.476448    2.086500
     48          6           0       -1.711063   -0.726059    2.116348
     49          1           0       -4.175773   -2.962517    2.465124
     50          6           0       -3.145385   -2.640332    2.320724
     51          6           0       -4.082940   -0.341567    2.446141
     52          7           0       -2.965188   -1.276846    2.292469
     53          1           0       -5.564125    3.815794   -2.968737
     54          1           0       -4.154916    3.934034   -2.154952
     55          1           0       -5.567350    4.211263   -1.385378
     56          1           0       -3.521122   -2.860126   -0.454017
     57          1           0       -5.153262   -2.379383   -0.576861
     58          7           0       -4.184871   -2.134690   -0.636566
     59          6           0       -3.796936   -0.895753   -0.945946
     60          6           0       -4.136296    1.388805   -1.518084
     61          7           0       -2.828944    1.688674   -1.591063
     62          1           0       -1.010826    0.771546   -1.358743
     63          6           0       -2.088121    0.615639   -1.321428
     64          7           0       -2.474779   -0.626102   -1.011341
     65          1           0       -7.326686    1.895036   -1.649757
     66          6           0       -6.327383    1.472160   -1.542389
     67          7           0       -6.075809    0.224489   -1.229809
     68          6           0       -4.690177    0.158165   -1.211045
     69          6           0       -5.114697    3.662851   -2.088602
     70          7           0       -5.199802    2.233532   -1.731112
 ---------------------------------------------------------------------

 SCF Done:  E(RwB97XD) =  -2048.74412138     A.U. after   15 cycles

 The electronic state is 1-A.
 Alpha  occ. eigenvalues --  -19.25604 -19.21906 -19.20677 -14.52389 -14.52293
 Alpha  occ. eigenvalues --  -14.49016 -14.48802 -14.47736 -14.47577 -14.46980
 Alpha  occ. eigenvalues --  -14.46782 -14.45383 -14.44721 -14.44502 -14.42178
 Alpha  occ. eigenvalues --  -14.42168 -14.41130 -14.40314 -14.40294 -14.39903
 Alpha  occ. eigenvalues --  -10.45271 -10.41377 -10.40278 -10.40004 -10.38327
 Alpha  occ. eigenvalues --  -10.38007 -10.37967 -10.37281 -10.35949 -10.35025
 Alpha  occ. eigenvalues --  -10.34909 -10.34542 -10.33763 -10.33561 -10.33094
 Alpha  occ. eigenvalues --  -10.32825 -10.32533 -10.32502 -10.31238 -10.31151
 Alpha  occ. eigenvalues --  -10.29944 -10.28292 -10.27759  -1.19185  -1.15179
 Alpha  occ. eigenvalues --   -1.13314  -1.12914  -1.10767  -1.10371  -1.09658
 Alpha  occ. eigenvalues --   -1.09156  -1.08674  -1.05142  -1.04548  -1.02264
 Alpha  occ. eigenvalues --   -1.00989  -1.00008  -0.99861  -0.98687  -0.97134
 Alpha  occ. eigenvalues --   -0.96799  -0.96054  -0.92247  -0.91132  -0.87686
 Alpha  occ. eigenvalues --   -0.85869  -0.84315  -0.83420  -0.83074  -0.82703
 Alpha  occ. eigenvalues --   -0.81454  -0.78837  -0.77203  -0.74990  -0.74788
 Alpha  occ. eigenvalues --   -0.73758  -0.73207  -0.72301  -0.70621  -0.70365
 Alpha  occ. eigenvalues --   -0.67517  -0.67051  -0.66441  -0.65709  -0.64542
 Alpha  occ. eigenvalues --   -0.64398  -0.63821  -0.62743  -0.62150  -0.61901
 Alpha  occ. eigenvalues --   -0.60733  -0.60318  -0.59894  -0.59523  -0.59341
 Alpha  occ. eigenvalues --   -0.59243  -0.58478  -0.56820  -0.56024  -0.55905
 Alpha  occ. eigenvalues --   -0.55330  -0.55306  -0.55064  -0.54559  -0.54302
 Alpha  occ. eigenvalues --   -0.53757  -0.53698  -0.53580  -0.53124  -0.52929
 Alpha  occ. eigenvalues --   -0.52859  -0.52286  -0.50957  -0.50314  -0.50058
 Alpha  occ. eigenvalues --   -0.49881  -0.49548  -0.49434  -0.49225  -0.48883
 Alpha  occ. eigenvalues --   -0.48404  -0.48306  -0.48089  -0.47903  -0.47341
 Alpha  occ. eigenvalues --   -0.46228  -0.45698  -0.45328  -0.44338  -0.43816
 Alpha  occ. eigenvalues --   -0.40745  -0.40593  -0.39265  -0.37880  -0.37694
 Alpha  occ. eigenvalues --   -0.37451  -0.37416  -0.36347  -0.35668  -0.34972
 Alpha  occ. eigenvalues --   -0.34553  -0.34131  -0.33140  -0.32829  -0.32733
 Alpha  occ. eigenvalues --   -0.32682  -0.32646  -0.32037  -0.32001  -0.30346
 Alpha  occ. eigenvalues --   -0.30166  -0.29819  -0.25733  -0.25169
 Alpha virt. eigenvalues --    0.02667   0.04247   0.06774   0.08486   0.08761
 Alpha virt. eigenvalues --    0.09169   0.09657   0.10542   0.11189   0.11602
 Alpha virt. eigenvalues --    0.13591   0.14387   0.14569   0.14851   0.15232

 Mulliken charges:
               1
     1  N   -0.312938
     2  C    0.183406
     3  C    0.054077
     4  N   -0.252554
     5  C    0.141527
     6  H    0.025470
     7  N   -0.301024
     8  C    0.133886
     9  H    0.009241
    10  N   -0.285216
    11  C    0.260020
    12  C    0.097947
    13  N   -0.070410
    14  H    0.113223
    15  H    0.081976
    16  H    0.020507
    17  H    0.031945
    18  H    0.029791
    19  N   -0.311346
    20  C    0.250565
    21  C    0.180763
    22  N   -0.122583
    23  H    0.117570
    24  H    0.117752
    25  N   -0.312165
    26  C    0.249637
    27  N   -0.149979
    28  H    0.120102
    29  C    0.196469
    30  O   -0.320808
    31  C   -0.013479
    32  N   -0.229602
    33  C    0.127564
    34  H    0.023571
    35  H    0.028055
    36  H    0.029601
    37  H    0.025192
    38  H    0.055774
    39  H    0.059818
    40  H    0.075151
    41  H    0.029679
    42  C   -0.117246
    43  O   -0.255336
    44  C    0.161406
    45  H    0.134880
    46  N   -0.123022
    47  O   -0.350348
    48  C    0.353030
    49  H    0.042180
    50  C    0.156971
    51  C    0.039882
    52  N   -0.278674
    53  H    0.034095
    54  H    0.041929
    55  H    0.029254
    56  H    0.116060
    57  H    0.117781
    58  N   -0.063313
    59  C    0.088950
    60  C    0.251282
    61  N   -0.273764
    62  H    0.036882
    63  C    0.178887
    64  N   -0.318112
    65  H    0.038872
    66  C    0.141583
    67  N   -0.264684
    68  C    0.025618
    69  C    0.179904
    70  N   -0.313122
 Sum of Mulliken charges =  -0.00000

 Dipole moment (field-independent basis, Debye):
    X=             -8.8433    Y=              6.2411    Z=              0.2131  Tot=             10.8259
 Quadrupole moment (field-independent basis, Debye-Ang):
   XX=           -171.0045   YY=           -210.7218   ZZ=           -247.9977
   XY=              5.9856   XZ=            -14.6817   YZ=              0.3970

 Normal termination of Gaussian 16 at Fri Jan 26 06:36:36 2018.
