 Gaussian 16, Revision A.03,
 Gaussian 16:  EM64L-G16RevA.03 25-Dec-2016

 ---------------------------------------
 #p wb97xd/cc-pvdz sp scf=(maxcycles=20)
 ---------------------------------------

 ------------------
 Base pair stacking
 ------------------
 Symbolic Z-matrix:
 Charge =  0 Multiplicity = 1

                         Standard orientation:
 ---------------------------------------------------------------------
 Center     Atomic      Atomic             Coordinates (Angstroms)
 Number     Number       Type             X           Y           Z
 ---------------------------------------------------------------------
      1          7           0       -6.193756   -1.721866    0.767758
      2          6           0       -7.597002   -1.264916    0.758052
      3          6           0       -4.001960   -1.791081    0.936716
      4          7           0       -4.405671   -3.074018    0.596408
      5          6           0       -5.709994   -2.980973    0.508228
      6          1           0       -6.374777   -3.807269    0.254793
      7          7           0       -2.680797    0.081200    1.495303
      8          6           0       -3.823688    0.771671    1.563358
      9          1           0       -3.716506    1.823859    1.823510
     10          7           0       -5.073222    0.359481    1.359252
     11          6           0       -5.093038   -0.946597    1.045904
     12          6           0       -2.734312   -1.230790    1.177694
     13          7           0       -1.594529   -1.921726    1.109267
     14          1           0       -1.586719   -2.895127    0.877648
     15          1           0       -0.710065   -1.490160    1.287097
     16          1           0       -8.122984   -1.784917    1.431202
     17          1           0       -7.633303   -0.292608    0.987001
     18          1           0       -7.989571   -1.406514   -0.150703
     19          7           0       -2.790836    3.141764   -1.680697
     20          6           0       -1.508420    2.664053   -1.557234
     21          6           0       -3.190246    4.557784   -1.553994
     22          7           0        1.871337    3.231177   -0.993858
     23          1           0        2.711287    2.691653   -0.942529
     24          1           0        1.956552    4.217882   -0.852931
     25          7           0       -0.406594    3.402050   -1.301488
     26          6           0        0.683603    2.658166   -1.240547
     27          7           0        0.695978    1.295643   -1.416331
     28          1           0        1.576505    0.808258   -1.352329
     29          6           0       -0.425637    0.515831   -1.680387
     30          8           0       -0.305660   -0.707346   -1.822422
     31          6           0       -1.604492    1.301015   -1.748782
     32          7           0       -2.920730    0.930465   -1.987699
     33          6           0       -3.586652    2.052200   -1.937942
     34          1           0       -4.663875    2.141767   -2.082272
     35          1           0       -3.844210    4.655613   -0.804612
     36          1           0       -2.382266    5.114123   -1.364473
     37          1           0       -3.612222    4.864373   -2.406496
     38          1           0        6.164016   -1.101972   -0.276000
     39          1           0        6.328408   -1.144372   -2.029805
     40          1           0        5.354455    0.112583   -1.266367
     41          1           0        3.587144   -5.031608   -1.307657
     42          6           0        3.487244   -3.946714   -1.343256
     43          8           0        1.125697   -3.987145   -1.563639
     44          6           0        2.185760   -3.367516   -1.479250
     45          1           0        1.269952   -1.541940   -1.609232
     46          7           0        2.171581   -1.987716   -1.513937
     47          8           0        3.140185    0.065883   -1.472793
     48          6           0        3.253078   -1.146688   -1.432891
     49          1           0        5.572514   -3.543043   -1.157548
     50          6           0        4.561101   -3.152497   -1.261786
     51          6           0        5.658006   -0.922365   -1.212893
     52          7           0        4.473293   -1.780291   -1.303202
     53          1           0        3.983687    4.007358    3.184194
     54          1           0        2.796946    4.040582    2.064975
     55          1           0        4.360114    4.097006    1.598727
     56          1           0        1.928066   -2.911965    1.462861
     57          1           0        3.533166   -2.498899    1.866760
     58          7           0        2.600517   -2.199244    1.662832
     59          6           0        2.269306   -0.906394    1.658012
     60          6           0        2.684238    1.425149    1.889218
     61          7           0        1.424006    1.798374    1.611843
     62          1           0       -0.378162    0.945991    1.136211
     63          6           0        0.663689    0.732183    1.370911
     64          7           0        0.993557   -0.563485    1.375242
     65          1           0        5.805645    1.786958    2.649517
     66          6           0        4.818132    1.401934    2.393568
     67          7           0        4.527106    0.131895    2.252223
     68          6           0        3.177139    0.132584    1.932362
     69          6           0        3.720243    3.714123    2.265170
     70          7           0        3.749880    2.240622    2.188214
 ---------------------------------------------------------------------

 SCF Done:  E(RwB97XD) =  -2048.74341973     A.U. after   15 cycles

 The electronic state is 1-A.
 Alpha  occ. eigenvalues --  -19.26034 -19.22316 -19.20697 -14.52615 -14.52082
 Alpha  occ. eigenvalues --  -14.48815 -14.48369 -14.47972 -14.47894 -14.46984
 Alpha  occ. eigenvalues --  -14.46796 -14.45116 -14.43743 -14.43613 -14.42123
 Alpha  occ. eigenvalues --  -14.41888 -14.41022 -14.40819 -14.40492 -14.39806
 Alpha  occ. eigenvalues --  -10.45642 -10.41270 -10.40384 -10.39452 -10.38279
 Alpha  occ. eigenvalues --  -10.38090 -10.37624 -10.36670 -10.35175 -10.35127
 Alpha  occ. eigenvalues --  -10.35038 -10.34396 -10.33757 -10.33699 -10.33279
 Alpha  occ. eigenvalues --  -10.32945 -10.32702 -10.32173 -10.31414 -10.30966
 Alpha  occ. eigenvalues --  -10.30640 -10.28151 -10.28116  -1.19596  -1.14772
 Alpha  occ. eigenvalues --   -1.13311  -1.13283  -1.10940  -1.10633  -1.09505
 Alpha  occ. eigenvalues --   -1.08830  -1.08616  -1.04595  -1.04368  -1.02652
 Alpha  occ. eigenvalues --   -1.00613  -1.00048  -0.99870  -0.98614  -0.96624
 Alpha  occ. eigenvalues --   -0.96620  -0.96277  -0.92254  -0.91296  -0.87198
 Alpha  occ. eigenvalues --   -0.85606  -0.84156  -0.83676  -0.83552  -0.82555
 Alpha  occ. eigenvalues --   -0.81951  -0.79094  -0.76609  -0.74690  -0.74336
 Alpha  occ. eigenvalues --   -0.73760  -0.73518  -0.72531  -0.70668  -0.70023
 Alpha  occ. eigenvalues --   -0.67470  -0.66700  -0.66411  -0.65938  -0.64589
 Alpha  occ. eigenvalues --   -0.63894  -0.63864  -0.62792  -0.62339  -0.61832
 Alpha  occ. eigenvalues --   -0.60214  -0.60044  -0.59967  -0.59680  -0.59345
 Alpha  occ. eigenvalues --   -0.59086  -0.58491  -0.56729  -0.56223  -0.56113
 Alpha  occ. eigenvalues --   -0.56016  -0.55170  -0.54953  -0.54669  -0.54498
 Alpha  occ. eigenvalues --   -0.53756  -0.53697  -0.53164  -0.53049  -0.52991
 Alpha  occ. eigenvalues --   -0.52473  -0.52360  -0.51424  -0.50345  -0.50254
 Alpha  occ. eigenvalues --   -0.49853  -0.49575  -0.49381  -0.48975  -0.48771
 Alpha  occ. eigenvalues --   -0.48505  -0.48446  -0.48328  -0.47885  -0.47468
 Alpha  occ. eigenvalues --   -0.46569  -0.45706  -0.44653  -0.44331  -0.44130
 Alpha  occ. eigenvalues --   -0.40741  -0.40274  -0.39574  -0.37596  -0.37334
 Alpha  occ. eigenvalues --   -0.37325  -0.36963  -0.36774  -0.35988  -0.34637
 Alpha  occ. eigenvalues --   -0.34021  -0.33582  -0.33411  -0.33134  -0.33014
 Alpha  occ. eigenvalues --   -0.32683  -0.32445  -0.32221  -0.31866  -0.30484
 Alpha  occ. eigenvalues --   -0.30030  -0.29510  -0.25720  -0.25147
 Alpha virt. eigenvalues --    0.02737   0.04481   0.07518   0.08329   0.08414
 Alpha virt. eigenvalues --    0.09128   0.09569   0.10979   0.11503   0.11687
 Alpha virt. eigenvalues --    0.12284   0.14141   0.14393   0.14734   0.15096

 Mulliken charges:
               1
     1  N   -0.312225
     2  C    0.181374
     3  C    0.039649
     4  N   -0.259192
     5  C    0.134187
     6  H    0.025271
     7  N   -0.295047
     8  C    0.140712
     9  H    0.006931
    10  N   -0.292610
    11  C    0.249489
    12  C    0.122566
    13  N   -0.055936
    14  H    0.111012
    15  H    0.086142
    16  H    0.024106
    17  H    0.033011
    18  H    0.026025
    19  N   -0.312811
    20  C    0.247818
    21  C    0.181129
    22  N   -0.108061
    23  H    0.114843
    24  H    0.114164
    25  N   -0.304208
    26  C    0.229543
    27  N   -0.135063
    28  H    0.115149
    29  C    0.168364
    30  O   -0.318678
    31  C    0.003670
    32  N   -0.225071
    33  C    0.130036
    34  H    0.027108
    35  H    0.028991
    36  H    0.028173
    37  H    0.024751
    38  H    0.063569
    39  H    0.058137
    40  H    0.074129
    41  H    0.031743
    42  C   -0.110499
    43  O   -0.263969
    44  C    0.156656
    45  H    0.134146
    46  N   -0.122049
    47  O   -0.345577
    48  C    0.347024
    49  H    0.048544
    50  C    0.162502
    51  C    0.041977
    52  N   -0.286827
    53  H    0.035073
    54  H    0.042148
    55  H    0.023305
    56  H    0.128175
    57  H    0.114991
    58  N   -0.066056
    59  C    0.078971
    60  C    0.228978
    61  N   -0.262104
    62  H    0.041453
    63  C    0.166189
    64  N   -0.302802
    65  H    0.034397
    66  C    0.136127
    67  N   -0.269474
    68  C    0.044239
    69  C    0.174584
    70  N   -0.313012
 Sum of Mulliken charges =  -0.00000

 Dipole moment (field-independent basis, Debye):
    X=              9.0467    Y=              5.3452    Z=              1.7390  Tot=             10.6508
 Quadrupole moment (field-independent basis, Debye-Ang):
   XX=           -158.0737   YY=           -212.6573   ZZ=           -252.3236
   XY=             -4.0332   XZ=              3.1660   YZ=             -6.3904

 Normal termination of Gaussian 16 at Fri Jan 26 15:01:28 2018.
