 Gaussian 16, Revision A.03,
 Gaussian 16:  EM64L-G16RevA.03 25-Dec-2016

 ---------------------------------------
 #p wb97xd/cc-pvdz sp scf=(maxcycles=20)
 ---------------------------------------

 ------------------
 Base pair stacking
 ------------------
 Symbolic Z-matrix:
 Charge =  0 Multiplicity = 1

                         Standard orientation:
 ---------------------------------------------------------------------
 Center     Atomic      Atomic             Coordinates (Angstroms)
 Number     Number       Type             X           Y           Z
 ---------------------------------------------------------------------
      1          7           0       -6.210087   -1.730871    0.745251
      2          6           0       -7.615162   -1.280359    0.773293
      3          6           0       -4.016743   -1.800157    0.892799
      4          7           0       -4.418084   -3.062718    0.480965
      5          6           0       -5.723421   -2.970438    0.408562
      6          1           0       -6.386945   -3.783387    0.112268
      7          7           0       -2.698567    0.041985    1.549959
      8          6           0       -3.843603    0.722207    1.667294
      9          1           0       -3.738516    1.757793    1.987888
     10          7           0       -5.093102    0.317163    1.449093
     11          6           0       -5.110248   -0.968372    1.059833
     12          6           0       -2.749429   -1.249354    1.156355
     13          7           0       -1.607503   -1.930034    1.038649
     14          1           0       -1.597692   -2.888128    0.750261
     15          1           0       -0.723356   -1.505722    1.234598
     16          1           0       -8.133656   -1.841252    1.418860
     17          1           0       -7.653476   -0.323318    1.059171
     18          1           0       -8.014453   -1.370164   -0.139123
     19          7           0       -2.758390    3.189666   -1.698769
     20          6           0       -1.477193    2.706095   -1.585959
     21          6           0       -3.147210    4.610241   -1.591567
     22          7           0        1.914078    3.261665   -1.083563
     23          1           0        2.751394    2.717800   -1.035125
     24          1           0        2.007418    4.250176   -0.961666
     25          7           0       -0.367154    3.441512   -1.360042
     26          6           0        0.719280    2.691907   -1.302086
     27          7           0        0.720697    1.326416   -1.453522
     28          1           0        1.599104    0.834649   -1.393968
     29          6           0       -0.409506    0.549157   -1.686700
     30          8           0       -0.299142   -0.677101   -1.808513
     31          6           0       -1.584453    1.340480   -1.751525
     32          7           0       -2.906389    0.974107   -1.963993
     33          6           0       -3.564620    2.100764   -1.924443
     34          1           0       -4.643345    2.194594   -2.054212
     35          1           0       -3.789172    4.725605   -0.834342
     36          1           0       -2.333076    5.164724   -1.424192
     37          1           0       -3.580122    4.904222   -2.443018
     38          1           0        6.190605   -1.085200   -0.352319
     39          1           0        6.328247   -1.159993   -2.107350
     40          1           0        5.373610    0.116586   -1.352118
     41          1           0        3.574547   -5.016163   -1.274486
     42          6           0        3.480728   -3.931472   -1.328067
     43          8           0        1.115927   -3.960803   -1.512288
     44          6           0        2.180894   -3.346521   -1.454941
     45          1           0        1.274385   -1.517761   -1.603976
     46          7           0        2.174615   -1.967502   -1.514199
     47          8           0        3.156233    0.080301   -1.524479
     48          6           0        3.262322   -1.132053   -1.464498
     49          1           0        5.570991   -3.537830   -1.180897
     50          6           0        4.560522   -3.142775   -1.276989
     51          6           0        5.671621   -0.919153   -1.284604
     52          7           0        4.480462   -1.770998   -1.341726
     53          1           0        3.963635    3.891844    3.414343
     54          1           0        2.767830    3.985381    2.308269
     55          1           0        4.326971    4.075973    1.833985
     56          1           0        1.921714   -2.923687    1.306108
     57          1           0        3.528361   -2.527904    1.721036
     58          7           0        2.592914   -2.220945    1.542307
     59          6           0        2.256551   -0.931519    1.615919
     60          6           0        2.664085    1.384278    1.980265
     61          7           0        1.400193    1.767539    1.735081
     62          1           0       -0.402342    0.936532    1.224307
     63          6           0        0.642207    0.713944    1.437946
     64          7           0        0.977224   -0.578271    1.363694
     65          1           0        5.790035    1.714707    2.736171
     66          6           0        4.802031    1.340989    2.465758
     67          7           0        4.514922    0.080143    2.252426
     68          6           0        3.162437    0.093609    1.943665
     69          6           0        3.693980    3.651842    2.481776
     70          7           0        3.728851    2.185530    2.318281
 ---------------------------------------------------------------------

 SCF Done:  E(RwB97XD) =  -2048.74469338     A.U. after   15 cycles

 The electronic state is 1-A.
 Alpha  occ. eigenvalues --  -19.26112 -19.22498 -19.20736 -14.52715 -14.51988
 Alpha  occ. eigenvalues --  -14.48851 -14.48300 -14.48033 -14.47777 -14.47056
 Alpha  occ. eigenvalues --  -14.46932 -14.45046 -14.43685 -14.43622 -14.42169
 Alpha  occ. eigenvalues --  -14.41753 -14.40944 -14.40863 -14.40410 -14.39719
 Alpha  occ. eigenvalues --  -10.45723 -10.41364 -10.40528 -10.39378 -10.38329
 Alpha  occ. eigenvalues --  -10.38208 -10.37558 -10.36608 -10.35205 -10.35114
 Alpha  occ. eigenvalues --  -10.34937 -10.34441 -10.33623 -10.33612 -10.33316
 Alpha  occ. eigenvalues --  -10.32867 -10.32621 -10.32126 -10.31526 -10.30995
 Alpha  occ. eigenvalues --  -10.30590 -10.28196 -10.28030  -1.19676  -1.14691
 Alpha  occ. eigenvalues --   -1.13465  -1.13331  -1.10866  -1.10670  -1.09606
 Alpha  occ. eigenvalues --   -1.08760  -1.08676  -1.04507  -1.04300  -1.02749
 Alpha  occ. eigenvalues --   -1.00523  -0.99955  -0.99942  -0.98658  -0.96659
 Alpha  occ. eigenvalues --   -0.96546  -0.96207  -0.92161  -0.91409  -0.87115
 Alpha  occ. eigenvalues --   -0.85495  -0.84202  -0.83764  -0.83481  -0.82592
 Alpha  occ. eigenvalues --   -0.81879  -0.79199  -0.76531  -0.74735  -0.74252
 Alpha  occ. eigenvalues --   -0.73825  -0.73613  -0.72443  -0.70585  -0.69939
 Alpha  occ. eigenvalues --   -0.67534  -0.66793  -0.66329  -0.65847  -0.64673
 Alpha  occ. eigenvalues --   -0.63927  -0.63801  -0.62830  -0.62246  -0.61896
 Alpha  occ. eigenvalues --   -0.60148  -0.59989  -0.59953  -0.59767  -0.59267
 Alpha  occ. eigenvalues --   -0.59002  -0.58571  -0.56731  -0.56185  -0.56141
 Alpha  occ. eigenvalues --   -0.55961  -0.55055  -0.54837  -0.54659  -0.54523
 Alpha  occ. eigenvalues --   -0.53814  -0.53681  -0.53151  -0.53103  -0.53000
 Alpha  occ. eigenvalues --   -0.52563  -0.52296  -0.51357  -0.50321  -0.50264
 Alpha  occ. eigenvalues --   -0.49780  -0.49669  -0.49332  -0.49076  -0.48714
 Alpha  occ. eigenvalues --   -0.48590  -0.48393  -0.48370  -0.47877  -0.47527
 Alpha  occ. eigenvalues --   -0.46497  -0.45713  -0.44577  -0.44373  -0.44211
 Alpha  occ. eigenvalues --   -0.40648  -0.40188  -0.39646  -0.37539  -0.37371
 Alpha  occ. eigenvalues --   -0.37340  -0.36953  -0.36693  -0.36023  -0.34551
 Alpha  occ. eigenvalues --   -0.34009  -0.33709  -0.33544  -0.33060  -0.32996
 Alpha  occ. eigenvalues --   -0.32703  -0.32485  -0.32338  -0.31905  -0.30418
 Alpha  occ. eigenvalues --   -0.29951  -0.29486  -0.25710  -0.25122
 Alpha virt. eigenvalues --    0.02585   0.04542   0.07519   0.08304   0.08500
 Alpha virt. eigenvalues --    0.09080   0.09565   0.11043   0.11579   0.11718
 Alpha virt. eigenvalues --    0.12328   0.14257   0.14383   0.14801   0.15121

 Mulliken charges:
               1
     1  N   -0.312022
     2  C    0.181325
     3  C    0.039722
     4  N   -0.258704
     5  C    0.133803
     6  H    0.024961
     7  N   -0.296227
     8  C    0.140080
     9  H    0.007137
    10  N   -0.292941
    11  C    0.248315
    12  C    0.122305
    13  N   -0.054709
    14  H    0.111849
    15  H    0.086952
    16  H    0.024043
    17  H    0.033081
    18  H    0.025659
    19  N   -0.312751
    20  C    0.248662
    21  C    0.181125
    22  N   -0.114676
    23  H    0.114894
    24  H    0.114925
    25  N   -0.306297
    26  C    0.236316
    27  N   -0.137843
    28  H    0.114340
    29  C    0.172216
    30  O   -0.318909
    31  C    0.000546
    32  N   -0.224965
    33  C    0.130396
    34  H    0.027434
    35  H    0.029083
    36  H    0.028292
    37  H    0.024860
    38  H    0.064215
    39  H    0.058369
    40  H    0.074394
    41  H    0.032088
    42  C   -0.109073
    43  O   -0.264047
    44  C    0.148897
    45  H    0.134542
    46  N   -0.118864
    47  O   -0.345315
    48  C    0.346661
    49  H    0.049148
    50  C    0.161156
    51  C    0.041974
    52  N   -0.285493
    53  H    0.034088
    54  H    0.043349
    55  H    0.022873
    56  H    0.129779
    57  H    0.114794
    58  N   -0.066356
    59  C    0.079367
    60  C    0.233313
    61  N   -0.262735
    62  H    0.041763
    63  C    0.166921
    64  N   -0.303832
    65  H    0.034131
    66  C    0.136254
    67  N   -0.270017
    68  C    0.041411
    69  C    0.177026
    70  N   -0.313054
 Sum of Mulliken charges =  -0.00000

 Dipole moment (field-independent basis, Debye):
    X=              9.2053    Y=              5.3722    Z=              1.4150  Tot=             10.7517
 Quadrupole moment (field-independent basis, Debye-Ang):
   XX=           -158.1066   YY=           -212.3705   ZZ=           -251.3840
   XY=             -4.2362   XZ=              3.3816   YZ=             -5.1157

 Normal termination of Gaussian 16 at Thu Jan 25 23:10:30 2018.
