 Gaussian 16, Revision A.03,
 Gaussian 16:  EM64L-G16RevA.03 25-Dec-2016

 ---------------------------------------
 #p wb97xd/cc-pvdz sp scf=(maxcycles=20)
 ---------------------------------------

 ------------------
 Base pair stacking
 ------------------
 Symbolic Z-matrix:
 Charge =  0 Multiplicity = 1

                         Standard orientation:
 ---------------------------------------------------------------------
 Center     Atomic      Atomic             Coordinates (Angstroms)
 Number     Number       Type             X           Y           Z
 ---------------------------------------------------------------------
      1          7           0       -6.953089   -1.594110    0.234410
      2          6           0       -8.343526   -1.129096    0.065699
      3          6           0       -4.783924   -1.664371    0.590919
      4          7           0       -5.178201   -2.970304    0.338290
      5          6           0       -6.469270   -2.875694    0.133615
      6          1           0       -7.123750   -3.716835   -0.096781
      7          7           0       -3.484180    0.241526    1.082006
      8          6           0       -4.617921    0.944246    0.990535
      9          1           0       -4.516137    2.015275    1.160279
     10          7           0       -5.852719    0.524584    0.722107
     11          6           0       -5.867022   -0.804866    0.530338
     12          6           0       -3.531807   -1.093953    0.883748
     13          7           0       -2.401131   -1.797152    0.974632
     14          1           0       -2.389455   -2.787976    0.835483
     15          1           0       -1.527663   -1.357803    1.184802
     16          1           0       -8.931042   -1.579778    0.737917
     17          1           0       -8.383393   -0.139390    0.199932
     18          1           0       -8.662252   -1.351914   -0.855588
     19          7           0       -1.927291    2.983976   -1.822418
     20          6           0       -0.660894    2.510944   -1.576390
     21          6           0       -2.336962    4.401208   -1.756609
     22          7           0        2.654651    3.094218   -0.722748
     23          1           0        3.486830    2.557272   -0.587085
     24          1           0        2.726541    4.083369   -0.591934
     25          7           0        0.413342    3.255364   -1.235928
     26          6           0        1.493981    2.514741   -1.064738
     27          7           0        1.522547    1.149418   -1.214993
     28          1           0        2.393983    0.664898   -1.063978
     29          6           0        0.429351    0.362995   -1.564772
     30          8           0        0.562015   -0.862222   -1.674219
     31          6           0       -0.738935    1.144615   -1.752038
     32          7           0       -2.028368    0.767450   -2.101316
     33          6           0       -2.696475    1.888598   -2.130869
     34          1           0       -3.756496    1.973594   -2.372567
     35          1           0       -3.055412    4.510714   -1.070577
     36          1           0       -1.549391    4.962286   -1.505244
     37          1           0       -2.681044    4.692204   -2.648657
     38          1           0        6.867435   -1.217621    0.451640
     39          1           0        7.188170   -1.290013   -1.279412
     40          1           0        6.149332   -0.021914   -0.628171
     41          1           0        4.394708   -5.169440   -0.738011
     42          6           0        4.297991   -4.085521   -0.801261
     43          8           0        1.965658   -4.134298   -1.231375
     44          6           0        3.013689   -3.511273   -1.063245
     45          1           0        2.112522   -1.689971   -1.306381
     46          7           0        3.002169   -2.132304   -1.123043
     47          8           0        3.962450   -0.076434   -1.031090
     48          6           0        4.071756   -1.287914   -0.960179
     49          1           0        6.358115   -3.674697   -0.436727
     50          6           0        5.359954   -3.287955   -0.637845
     51          6           0        6.447257   -1.055202   -0.529757
     52          7           0        5.275700   -1.916845   -0.710798
     53          1           0        3.079233    4.256041    2.949498
     54          1           0        1.989125    4.193826    1.737118
     55          1           0        3.585999    4.194194    1.399413
     56          1           0        1.064682   -2.777551    1.710313
     57          1           0        2.637394   -2.341131    2.206501
     58          7           0        1.729430   -2.054546    1.898794
     59          6           0        1.419863   -0.765263    1.746886
     60          6           0        1.850598    1.574374    1.795212
     61          7           0        0.623365    1.929895    1.380570
     62          1           0       -1.146669    1.050917    0.837422
     63          6           0       -0.131062    0.851831    1.176812
     64          7           0        0.177146   -0.440301    1.328391
     65          1           0        4.904229    1.981204    2.776003
     66          6           0        3.935213    1.581695    2.475436
     67          7           0        3.637086    0.306312    2.428417
     68          6           0        2.318133    0.287681    1.998590
     69          6           0        2.887665    3.880283    2.042804
     70          7           0        2.900616    2.405856    2.105185
 ---------------------------------------------------------------------

 SCF Done:  E(RwB97XD) =  -2048.73007538     A.U. after   15 cycles

 The electronic state is 1-A.
 Alpha  occ. eigenvalues --  -19.26024 -19.22289 -19.20780 -14.52646 -14.51465
 Alpha  occ. eigenvalues --  -14.48948 -14.48876 -14.48096 -14.47343 -14.47009
 Alpha  occ. eigenvalues --  -14.46995 -14.44465 -14.42946 -14.42724 -14.42249
 Alpha  occ. eigenvalues --  -14.42180 -14.41567 -14.40984 -14.40938 -14.40209
 Alpha  occ. eigenvalues --  -10.45678 -10.41523 -10.40390 -10.38706 -10.38423
 Alpha  occ. eigenvalues --  -10.38054 -10.37051 -10.35937 -10.35489 -10.35389
 Alpha  occ. eigenvalues --  -10.34517 -10.34313 -10.34221 -10.33475 -10.33436
 Alpha  occ. eigenvalues --  -10.33371 -10.33171 -10.31548 -10.31346 -10.31030
 Alpha  occ. eigenvalues --  -10.31014 -10.28657 -10.28375  -1.19611  -1.14258
 Alpha  occ. eigenvalues --   -1.13420  -1.13289  -1.11467  -1.10775  -1.09534
 Alpha  occ. eigenvalues --   -1.08954  -1.08019  -1.05054  -1.03592  -1.02732
 Alpha  occ. eigenvalues --   -1.00588  -1.00510  -0.99774  -0.98712  -0.97070
 Alpha  occ. eigenvalues --   -0.96750  -0.95577  -0.92700  -0.91287  -0.86651
 Alpha  occ. eigenvalues --   -0.85126  -0.84345  -0.84038  -0.83830  -0.82708
 Alpha  occ. eigenvalues --   -0.82406  -0.79108  -0.75949  -0.74879  -0.74106
 Alpha  occ. eigenvalues --   -0.73616  -0.73582  -0.72996  -0.71149  -0.69370
 Alpha  occ. eigenvalues --   -0.67770  -0.66774  -0.66395  -0.65728  -0.64679
 Alpha  occ. eigenvalues --   -0.63996  -0.63255  -0.62931  -0.62753  -0.62358
 Alpha  occ. eigenvalues --   -0.60304  -0.59818  -0.59741  -0.59551  -0.59309
 Alpha  occ. eigenvalues --   -0.59047  -0.58560  -0.56910  -0.56594  -0.56464
 Alpha  occ. eigenvalues --   -0.56159  -0.55484  -0.55075  -0.54597  -0.54333
 Alpha  occ. eigenvalues --   -0.53871  -0.53542  -0.53168  -0.52815  -0.52609
 Alpha  occ. eigenvalues --   -0.52258  -0.51822  -0.51799  -0.50812  -0.50355
 Alpha  occ. eigenvalues --   -0.50267  -0.49626  -0.49277  -0.49036  -0.48768
 Alpha  occ. eigenvalues --   -0.48664  -0.48491  -0.48243  -0.47723  -0.47588
 Alpha  occ. eigenvalues --   -0.47047  -0.45567  -0.45172  -0.44269  -0.43071
 Alpha  occ. eigenvalues --   -0.41258  -0.39678  -0.39544  -0.37863  -0.37433
 Alpha  occ. eigenvalues --   -0.37268  -0.36789  -0.36345  -0.35644  -0.34936
 Alpha  occ. eigenvalues --   -0.33677  -0.33570  -0.33444  -0.33203  -0.32885
 Alpha  occ. eigenvalues --   -0.32817  -0.32476  -0.32202  -0.32006  -0.31001
 Alpha  occ. eigenvalues --   -0.30431  -0.28801  -0.25870  -0.25593
 Alpha virt. eigenvalues --    0.02834   0.04945   0.07713   0.07860   0.08261
 Alpha virt. eigenvalues --    0.09269   0.09569   0.10866   0.11271   0.12333
 Alpha virt. eigenvalues --    0.12845   0.13880   0.14432   0.14566   0.14855

 Mulliken charges:
               1
     1  N   -0.311186
     2  C    0.181075
     3  C    0.030754
     4  N   -0.259325
     5  C    0.133878
     6  H    0.026870
     7  N   -0.290765
     8  C    0.133367
     9  H    0.007673
    10  N   -0.289696
    11  C    0.243517
    12  C    0.126115
    13  N   -0.056985
    14  H    0.108681
    15  H    0.089314
    16  H    0.025426
    17  H    0.034817
    18  H    0.026333
    19  N   -0.311046
    20  C    0.240768
    21  C    0.182219
    22  N   -0.107942
    23  H    0.117222
    24  H    0.115670
    25  N   -0.281517
    26  C    0.204272
    27  N   -0.112340
    28  H    0.116241
    29  C    0.150705
    30  O   -0.317747
    31  C   -0.003648
    32  N   -0.219015
    33  C    0.129855
    34  H    0.031348
    35  H    0.029398
    36  H    0.027521
    37  H    0.025085
    38  H    0.062456
    39  H    0.059232
    40  H    0.074335
    41  H    0.032324
    42  C   -0.113130
    43  O   -0.267258
    44  C    0.169194
    45  H    0.135703
    46  N   -0.135167
    47  O   -0.348260
    48  C    0.360895
    49  H    0.049073
    50  C    0.171663
    51  C    0.043943
    52  N   -0.296835
    53  H    0.032807
    54  H    0.045757
    55  H    0.004400
    56  H    0.125875
    57  H    0.113072
    58  N   -0.065690
    59  C    0.098347
    60  C    0.220934
    61  N   -0.256090
    62  H    0.057053
    63  C    0.149673
    64  N   -0.295928
    65  H    0.028779
    66  C    0.123796
    67  N   -0.265702
    68  C    0.033651
    69  C    0.175109
    70  N   -0.300926
 Sum of Mulliken charges =  -0.00000

 Dipole moment (field-independent basis, Debye):
    X=              8.5278    Y=              5.0783    Z=              2.3622  Tot=             10.2026
 Quadrupole moment (field-independent basis, Debye-Ang):
   XX=           -151.0074   YY=           -214.8080   ZZ=           -251.5658
   XY=             -0.3767   XZ=             11.6406   YZ=             -9.3323

 Normal termination of Gaussian 16 at Thu Jan 25 20:49:10 2018.
