 Gaussian 16, Revision A.03,
 Gaussian 16:  EM64L-G16RevA.03 25-Dec-2016

 ---------------------------------------
 #p wb97xd/cc-pvdz sp scf=(maxcycles=20)
 ---------------------------------------

 ------------------
 Base pair stacking
 ------------------
 Symbolic Z-matrix:
 Charge =  0 Multiplicity = 1

                         Standard orientation:
 ---------------------------------------------------------------------
 Center     Atomic      Atomic             Coordinates (Angstroms)
 Number     Number       Type             X           Y           Z
 ---------------------------------------------------------------------
      1          7           0       -6.935516   -1.597431    0.255603
      2          6           0       -8.321536   -1.133183    0.052091
      3          6           0       -4.769595   -1.662546    0.632256
      4          7           0       -5.170600   -2.977365    0.444683
      5          6           0       -6.459436   -2.885507    0.225270
      6          1           0       -7.117717   -3.733400    0.033732
      7          7           0       -3.460999    0.258176    1.033898
      8          6           0       -4.589353    0.962234    0.897190
      9          1           0       -4.481765    2.039974    1.011898
     10          7           0       -5.824850    0.536860    0.641252
     11          6           0       -5.846511   -0.800649    0.518649
     12          6           0       -3.515957   -1.085479    0.904863
     13          7           0       -2.390679   -1.790009    1.040992
     14          1           0       -2.384501   -2.786778    0.953552
     15          1           0       -1.515931   -1.345767    1.234898
     16          1           0       -8.917054   -1.544675    0.742187
     17          1           0       -8.355866   -0.137611    0.134453
     18          1           0       -8.634816   -1.401600   -0.858841
     19          7           0       -1.964786    2.951835   -1.790073
     20          6           0       -0.697737    2.484070   -1.537415
     21          6           0       -2.387982    4.363536   -1.696892
     22          7           0        2.600324    3.075643   -0.623859
     23          1           0        3.435318    2.542847   -0.489115
     24          1           0        2.661553    4.062027   -0.468935
     25          7           0        0.364976    3.229502   -1.164574
     26          6           0        1.449732    2.494395   -0.995596
     27          7           0        1.492578    1.133270   -1.177334
     28          1           0        2.366141    0.652862   -1.025470
     29          6           0        0.411413    0.345911   -1.560748
     30          8           0        0.556528   -0.875200   -1.696958
     31          6           0       -0.761112    1.121623   -1.746072
     32          7           0       -2.042170    0.741693   -2.122158
     33          6           0       -2.719803    1.857425   -2.134861
     34          1           0       -3.777093    1.938939   -2.389365
     35          1           0       -3.116814    4.450679   -1.018644
     36          1           0       -1.609014    4.925309   -1.421418
     37          1           0       -2.722271    4.672459   -2.586627
     38          1           0        6.834832   -1.226167    0.508392
     39          1           0        7.180143   -1.255062   -1.219200
     40          1           0        6.121090   -0.011634   -0.553127
     41          1           0        4.414252   -5.170071   -0.808031
     42          6           0        4.308725   -4.085839   -0.847258
     43          8           0        1.983110   -4.144578   -1.311118
     44          6           0        3.023094   -3.516673   -1.113749
     45          1           0        2.109133   -1.697994   -1.326841
     46          7           0        3.000074   -2.136833   -1.141423
     47          8           0        3.940566   -0.075500   -0.987909
     48          6           0        4.059709   -1.287325   -0.943822
     49          1           0        6.359864   -3.665972   -0.444296
     50          6           0        5.361155   -3.283216   -0.650315
     51          6           0        6.426852   -1.044343   -0.474741
     52          7           0        5.265664   -1.911546   -0.692345
     53          1           0        3.114619    4.323477    2.741790
     54          1           0        2.033247    4.205106    1.525771
     55          1           0        3.632580    4.178011    1.201014
     56          1           0        1.062968   -2.752371    1.853681
     57          1           0        2.634770   -2.300527    2.338837
     58          7           0        1.731049   -2.024691    2.009573
     59          6           0        1.431167   -0.743134    1.788516
     60          6           0        1.876969    1.593120    1.718688
     61          7           0        0.655262    1.934240    1.276554
     62          1           0       -1.116412    1.039234    0.765928
     63          6           0       -0.104724    0.851747    1.123135
     64          7           0        0.193788   -0.432647    1.344004
     65          1           0        4.925788    2.031396    2.700923
     66          6           0        3.956444    1.622834    2.413923
     67          7           0        3.650246    0.348609    2.430843
     68          6           0        2.334455    0.315861    1.992245
     69          6           0        2.927370    3.902307    1.854350
     70          7           0        2.930112    2.433053    1.993291
 ---------------------------------------------------------------------

 SCF Done:  E(RwB97XD) =  -2048.71101354     A.U. after   15 cycles

 The electronic state is 1-A.
 Alpha  occ. eigenvalues --  -19.25976 -19.22179 -19.20703 -14.52585 -14.51617
 Alpha  occ. eigenvalues --  -14.48937 -14.48896 -14.48037 -14.47187 -14.47045
 Alpha  occ. eigenvalues --  -14.46755 -14.44575 -14.43087 -14.42682 -14.42363
 Alpha  occ. eigenvalues --  -14.41989 -14.41633 -14.41066 -14.40890 -14.40291
 Alpha  occ. eigenvalues --  -10.45624 -10.41423 -10.40292 -10.38857 -10.38333
 Alpha  occ. eigenvalues --  -10.37977 -10.37193 -10.36019 -10.35577 -10.35345
 Alpha  occ. eigenvalues --  -10.34448 -10.34372 -10.34287 -10.33600 -10.33546
 Alpha  occ. eigenvalues --  -10.33402 -10.33257 -10.31689 -10.31277 -10.31059
 Alpha  occ. eigenvalues --  -10.31000 -10.28733 -10.28324  -1.19560  -1.14507
 Alpha  occ. eigenvalues --   -1.13345  -1.13190  -1.11532  -1.10722  -1.09471
 Alpha  occ. eigenvalues --   -1.08939  -1.08174  -1.05137  -1.03727  -1.02665
 Alpha  occ. eigenvalues --   -1.00927  -1.00601  -0.99655  -0.98621  -0.97142
 Alpha  occ. eigenvalues --   -0.96696  -0.95747  -0.92786  -0.91217  -0.86899
 Alpha  occ. eigenvalues --   -0.85424  -0.84285  -0.84104  -0.83777  -0.82674
 Alpha  occ. eigenvalues --   -0.82469  -0.79041  -0.76118  -0.74838  -0.74117
 Alpha  occ. eigenvalues --   -0.73775  -0.73518  -0.73075  -0.71229  -0.69569
 Alpha  occ. eigenvalues --   -0.67752  -0.66716  -0.66476  -0.65936  -0.64624
 Alpha  occ. eigenvalues --   -0.63955  -0.63493  -0.62907  -0.62830  -0.62590
 Alpha  occ. eigenvalues --   -0.60396  -0.59874  -0.59745  -0.59657  -0.59417
 Alpha  occ. eigenvalues --   -0.59170  -0.58671  -0.56956  -0.56664  -0.56515
 Alpha  occ. eigenvalues --   -0.56094  -0.55574  -0.55299  -0.54592  -0.54393
 Alpha  occ. eigenvalues --   -0.53805  -0.53483  -0.53166  -0.52955  -0.52556
 Alpha  occ. eigenvalues --   -0.52295  -0.51921  -0.51866  -0.50879  -0.50340
 Alpha  occ. eigenvalues --   -0.50287  -0.49563  -0.49367  -0.48958  -0.48803
 Alpha  occ. eigenvalues --   -0.48700  -0.48455  -0.48254  -0.47745  -0.47517
 Alpha  occ. eigenvalues --   -0.47120  -0.45595  -0.45241  -0.44174  -0.42854
 Alpha  occ. eigenvalues --   -0.41342  -0.39731  -0.39509  -0.37978  -0.37362
 Alpha  occ. eigenvalues --   -0.37332  -0.36774  -0.36379  -0.35609  -0.34906
 Alpha  occ. eigenvalues --   -0.33748  -0.33631  -0.33342  -0.33271  -0.32934
 Alpha  occ. eigenvalues --   -0.32772  -0.32370  -0.32120  -0.31946  -0.31060
 Alpha  occ. eigenvalues --   -0.30513  -0.28882  -0.25957  -0.25377
 Alpha virt. eigenvalues --    0.02919   0.04677   0.07551   0.07772   0.08288
 Alpha virt. eigenvalues --    0.09309   0.09669   0.10759   0.11224   0.12388
 Alpha virt. eigenvalues --    0.12956   0.13848   0.14265   0.14587   0.14834

 Mulliken charges:
               1
     1  N   -0.311323
     2  C    0.181080
     3  C    0.031126
     4  N   -0.259637
     5  C    0.134239
     6  H    0.027134
     7  N   -0.290154
     8  C    0.133512
     9  H    0.007319
    10  N   -0.289299
    11  C    0.244297
    12  C    0.126176
    13  N   -0.057822
    14  H    0.108246
    15  H    0.088893
    16  H    0.025487
    17  H    0.034842
    18  H    0.026622
    19  N   -0.310945
    20  C    0.234695
    21  C    0.182151
    22  N   -0.101178
    23  H    0.117796
    24  H    0.113974
    25  N   -0.271573
    26  C    0.186265
    27  N   -0.104734
    28  H    0.116091
    29  C    0.145124
    30  O   -0.317066
    31  C   -0.001081
    32  N   -0.218733
    33  C    0.129114
    34  H    0.031337
    35  H    0.028991
    36  H    0.027285
    37  H    0.025041
    38  H    0.062177
    39  H    0.059010
    40  H    0.074039
    41  H    0.032188
    42  C   -0.113362
    43  O   -0.266088
    44  C    0.172494
    45  H    0.135616
    46  N   -0.137271
    47  O   -0.347793
    48  C    0.361391
    49  H    0.048639
    50  C    0.171140
    51  C    0.044123
    52  N   -0.297090
    53  H    0.030279
    54  H    0.043139
    55  H    0.002889
    56  H    0.124647
    57  H    0.113737
    58  N   -0.067222
    59  C    0.099840
    60  C    0.212652
    61  N   -0.254438
    62  H    0.062035
    63  C    0.148062
    64  N   -0.295248
    65  H    0.029336
    66  C    0.123297
    67  N   -0.264715
    68  C    0.038045
    69  C    0.182532
    70  N   -0.301375
 Sum of Mulliken charges =  -0.00000

 Dipole moment (field-independent basis, Debye):
    X=              8.3304    Y=              5.0406    Z=              2.7544  Tot=             10.1188
 Quadrupole moment (field-independent basis, Debye-Ang):
   XX=           -151.1666   YY=           -215.3676   ZZ=           -252.4160
   XY=             -0.1922   XZ=             11.5751   YZ=            -10.2837

 Normal termination of Gaussian 16 at Fri Jan 26 16:54:51 2018.
