 Gaussian 16, Revision A.03,
 Gaussian 16:  EM64L-G16RevA.03 25-Dec-2016

 ---------------------------------------
 #p wb97xd/cc-pvdz sp scf=(maxcycles=20)
 ---------------------------------------

 ------------------
 Base pair stacking
 ------------------
 Symbolic Z-matrix:
 Charge =  0 Multiplicity = 1

                         Standard orientation:
 ---------------------------------------------------------------------
 Center     Atomic      Atomic             Coordinates (Angstroms)
 Number     Number       Type             X           Y           Z
 ---------------------------------------------------------------------
      1          7           0       -6.736222   -1.616798    0.354640
      2          6           0       -8.136815   -1.156232    0.289608
      3          6           0       -4.555194   -1.695968    0.626922
      4          7           0       -4.943625   -2.968421    0.233611
      5          6           0       -6.242074   -2.869797    0.085309
      6          1           0       -6.894911   -3.687417   -0.221680
      7          7           0       -3.260146    0.157548    1.297966
      8          6           0       -4.404135    0.848837    1.329301
      9          1           0       -4.308314    1.893490    1.622186
     10          7           0       -5.642901    0.445337    1.054455
     11          6           0       -5.649222   -0.851929    0.705918
     12          6           0       -3.299925   -1.145444    0.943392
     13          7           0       -2.159014   -1.837173    0.911527
     14          1           0       -2.141269   -2.804116    0.654752
     15          1           0       -1.283614   -1.412689    1.143092
     16          1           0       -8.695226   -1.692554    0.922631
     17          1           0       -8.182896   -0.190242    0.542315
     18          1           0       -8.485344   -1.272717   -0.640420
     19          7           0       -2.139814    3.102802   -1.852301
     20          6           0       -0.871046    2.614552   -1.652596
     21          6           0       -2.521941    4.528652   -1.812266
     22          7           0        2.491521    3.163334   -0.978982
     23          1           0        3.320203    2.615726   -0.866458
     24          1           0        2.586295    4.154613   -0.883552
     25          7           0        0.230862    3.349428   -1.388375
     26          6           0        1.305981    2.594832   -1.245849
     27          7           0        1.304274    1.225193   -1.353472
     28          1           0        2.173784    0.729737   -1.229211
     29          6           0        0.182274    0.448397   -1.624749
     30          8           0        0.288860   -0.781859   -1.701136
     31          6           0       -0.980470    1.245059   -1.780402
     32          7           0       -2.291559    0.880877   -2.054825
     33          6           0       -2.941408    2.012600   -2.088034
     34          1           0       -4.010374    2.109420   -2.280932
     35          1           0       -3.204136    4.672644   -1.096245
     36          1           0       -1.713745    5.082783   -1.617285
     37          1           0       -2.904194    4.797934   -2.695543
     38          1           0        6.683617   -1.186209    0.128466
     39          1           0        6.918269   -1.318431   -1.612835
     40          1           0        5.933860   -0.011825   -0.953226
     41          1           0        4.089823   -5.127264   -0.813304
     42          6           0        4.008346   -4.044260   -0.906518
     43          8           0        1.657323   -4.063690   -1.221865
     44          6           0        2.722614   -3.455023   -1.124525
     45          1           0        1.841361   -1.625994   -1.382168
     46          7           0        2.731329   -2.078619   -1.227861
     47          8           0        3.729317   -0.038820   -1.248259
     48          6           0        3.821615   -1.249293   -1.143911
     49          1           0        6.090412   -3.660065   -0.655107
     50          6           0        5.090259   -3.261564   -0.820151
     51          6           0        6.218853   -1.046821   -0.836229
     52          7           0        5.025564   -1.892081   -0.932857
     53          1           0        3.320126    4.020848    3.409169
     54          1           0        2.188693    4.086692    2.235457
     55          1           0        3.772567    4.151518    1.846596
     56          1           0        1.341248   -2.845267    1.407677
     57          1           0        2.925546   -2.447072    1.899138
     58          7           0        2.004166   -2.139784    1.658621
     59          6           0        1.675154   -0.846435    1.672252
     60          6           0        2.081353    1.477123    1.985030
     61          7           0        0.836395    1.860727    1.657385
     62          1           0       -0.941834    1.025763    1.073135
     63          6           0        0.087252    0.803196    1.351918
     64          7           0        0.414933   -0.492952    1.337661
     65          1           0        5.162988    1.810827    2.903918
     66          6           0        4.188467    1.435205    2.590626
     67          7           0        3.903024    0.170078    2.401750
     68          6           0        2.570012    0.182641    2.017455
     69          6           0        3.100876    3.752731    2.471067
     70          7           0        3.132369    2.281712    2.356499
 ---------------------------------------------------------------------

 SCF Done:  E(RwB97XD) =  -2048.74240322     A.U. after   15 cycles

 The electronic state is 1-A.
 Alpha  occ. eigenvalues --  -19.26138 -19.22582 -19.20818 -14.52802 -14.51529
 Alpha  occ. eigenvalues --  -14.48933 -14.48606 -14.48156 -14.47326 -14.47135
 Alpha  occ. eigenvalues --  -14.46992 -14.44563 -14.43040 -14.43031 -14.42286
 Alpha  occ. eigenvalues --  -14.41916 -14.41274 -14.40934 -14.40680 -14.39911
 Alpha  occ. eigenvalues --  -10.45785 -10.41554 -10.40627 -10.38760 -10.38440
 Alpha  occ. eigenvalues --  -10.38273 -10.37131 -10.36083 -10.35415 -10.35172
 Alpha  occ. eigenvalues --  -10.34557 -10.34478 -10.33935 -10.33382 -10.33261
 Alpha  occ. eigenvalues --  -10.33177 -10.32869 -10.31642 -10.31547 -10.31034
 Alpha  occ. eigenvalues --  -10.30818 -10.28341 -10.28332  -1.19733  -1.14224
 Alpha  occ. eigenvalues --   -1.13560  -1.13452  -1.11182  -1.10765  -1.09686
 Alpha  occ. eigenvalues --   -1.08884  -1.08100  -1.04744  -1.03693  -1.02855
 Alpha  occ. eigenvalues --   -1.00255  -1.00194  -0.99990  -0.98751  -0.96791
 Alpha  occ. eigenvalues --   -0.96741  -0.95639  -0.92389  -0.91472  -0.86637
 Alpha  occ. eigenvalues --   -0.85058  -0.84319  -0.83914  -0.83765  -0.82682
 Alpha  occ. eigenvalues --   -0.82144  -0.79275  -0.76003  -0.74855  -0.74011
 Alpha  occ. eigenvalues --   -0.73716  -0.73680  -0.72697  -0.70849  -0.69402
 Alpha  occ. eigenvalues --   -0.67709  -0.66907  -0.66100  -0.65753  -0.64774
 Alpha  occ. eigenvalues --   -0.64031  -0.63242  -0.62932  -0.62474  -0.62110
 Alpha  occ. eigenvalues --   -0.60053  -0.59933  -0.59871  -0.59532  -0.59048
 Alpha  occ. eigenvalues --   -0.58820  -0.58581  -0.56831  -0.56337  -0.56251
 Alpha  occ. eigenvalues --   -0.56233  -0.55186  -0.54833  -0.54707  -0.54327
 Alpha  occ. eigenvalues --   -0.53916  -0.53691  -0.53192  -0.52819  -0.52704
 Alpha  occ. eigenvalues --   -0.52510  -0.51845  -0.51582  -0.50538  -0.50411
 Alpha  occ. eigenvalues --   -0.50000  -0.49760  -0.49179  -0.49123  -0.48871
 Alpha  occ. eigenvalues --   -0.48528  -0.48471  -0.48184  -0.47911  -0.47645
 Alpha  occ. eigenvalues --   -0.46761  -0.45655  -0.44878  -0.44486  -0.43426
 Alpha  occ. eigenvalues --   -0.40938  -0.39745  -0.39636  -0.37659  -0.37464
 Alpha  occ. eigenvalues --   -0.37111  -0.36974  -0.36488  -0.35690  -0.34591
 Alpha  occ. eigenvalues --   -0.33702  -0.33654  -0.33331  -0.33224  -0.33013
 Alpha  occ. eigenvalues --   -0.32864  -0.32582  -0.32405  -0.31994  -0.30703
 Alpha  occ. eigenvalues --   -0.30149  -0.28931  -0.25705  -0.25534
 Alpha virt. eigenvalues --    0.02568   0.04967   0.07634   0.08153   0.08359
 Alpha virt. eigenvalues --    0.09300   0.09370   0.11164   0.11480   0.11981
 Alpha virt. eigenvalues --    0.12530   0.14109   0.14567   0.14723   0.14992

 Mulliken charges:
               1
     1  N   -0.311215
     2  C    0.181128
     3  C    0.032766
     4  N   -0.258721
     5  C    0.133145
     6  H    0.025827
     7  N   -0.293604
     8  C    0.135380
     9  H    0.007939
    10  N   -0.291458
    11  C    0.243119
    12  C    0.126457
    13  N   -0.054923
    14  H    0.110479
    15  H    0.090476
    16  H    0.024925
    17  H    0.034247
    18  H    0.025653
    19  N   -0.312325
    20  C    0.245550
    21  C    0.181680
    22  N   -0.120137
    23  H    0.115946
    24  H    0.116643
    25  N   -0.299366
    26  C    0.232529
    27  N   -0.127455
    28  H    0.113434
    29  C    0.156548
    30  O   -0.317587
    31  C    0.003382
    32  N   -0.221584
    33  C    0.130128
    34  H    0.030313
    35  H    0.029432
    36  H    0.028044
    37  H    0.025096
    38  H    0.063965
    39  H    0.058994
    40  H    0.074877
    41  H    0.032501
    42  C   -0.110424
    43  O   -0.267971
    44  C    0.152856
    45  H    0.135228
    46  N   -0.123299
    47  O   -0.347649
    48  C    0.356057
    49  H    0.050131
    50  C    0.169865
    51  C    0.043866
    52  N   -0.293169
    53  H    0.032893
    54  H    0.045666
    55  H    0.014727
    56  H    0.128995
    57  H    0.111801
    58  N   -0.064627
    59  C    0.090912
    60  C    0.231611
    61  N   -0.258676
    62  H    0.051783
    63  C    0.154504
    64  N   -0.297805
    65  H    0.030520
    66  C    0.130744
    67  N   -0.268770
    68  C    0.030746
    69  C    0.176544
    70  N   -0.309286
 Sum of Mulliken charges =  -0.00000

 Dipole moment (field-independent basis, Debye):
    X=              9.0626    Y=              5.1692    Z=              1.6299  Tot=             10.5597
 Quadrupole moment (field-independent basis, Debye-Ang):
   XX=           -153.2224   YY=           -213.4260   ZZ=           -250.4474
   XY=             -2.2687   XZ=              9.3363   YZ=             -6.6031

 Normal termination of Gaussian 16 at Fri Jan 26 00:41:38 2018.
