 Gaussian 16, Revision A.03,
 Gaussian 16:  EM64L-G16RevA.03 25-Dec-2016

 ---------------------------------------
 #p wb97xd/cc-pvdz sp scf=(maxcycles=20)
 ---------------------------------------

 ------------------
 Base pair stacking
 ------------------
 Symbolic Z-matrix:
 Charge =  0 Multiplicity = 1

                         Standard orientation:
 ---------------------------------------------------------------------
 Center     Atomic      Atomic             Coordinates (Angstroms)
 Number     Number       Type             X           Y           Z
 ---------------------------------------------------------------------
      1          7           0        4.591965   -2.097539   -1.749247
      2          6           0        6.002215   -1.707711   -1.942228
      3          6           0        2.401522   -2.052862   -1.556159
      4          7           0        2.780295   -3.375005   -1.373939
      5          6           0        4.084794   -3.349005   -1.497554
      6          1           0        4.733023   -4.221768   -1.413707
      7          7           0        1.117658   -0.084999   -1.761492
      8          6           0        2.272307    0.555277   -1.972170
      9          1           0        2.185313    1.627887   -2.140155
     10          7           0        3.512463    0.071812   -2.006329
     11          6           0        3.507368   -1.253680   -1.788439
     12          6           0        1.146095   -1.418255   -1.545389
     13          7           0       -0.005459   -2.059172   -1.334886
     14          1           0       -0.031811   -3.045851   -1.170625
     15          1           0       -0.880616   -1.575185   -1.334200
     16          1           0        6.380994   -2.199208   -2.726540
     17          1           0        6.056989   -0.723627   -2.108675
     18          1           0        6.528233   -1.935243   -1.122765
     19          7           0        4.504286    2.997086    0.853896
     20          6           0        3.196021    2.593187    0.969498
     21          6           0        4.949516    4.370866    0.545342
     22          7           0       -0.197411    3.327089    0.881448
     23          1           0       -1.061044    2.839349    1.005904
     24          1           0       -0.253988    4.303231    0.670092
     25          7           0        2.106221    3.377147    0.821835
     26          6           0        0.983986    2.701142    0.992762
     27          7           0        0.930879    1.359972    1.285919
     28          1           0        0.027869    0.925686    1.399584
     29          6           0        2.039410    0.533800    1.442376
     30          8           0        1.881879   -0.664569    1.706655
     31          6           0        3.252325    1.245877    1.261682
     32          7           0        4.569438    0.812639    1.328169
     33          6           0        5.274814    1.882770    1.080242
     34          1           0        6.364461    1.915084    1.050169
     35          1           0        5.481514    4.368505   -0.300692
     36          1           0        4.150800    4.960677    0.433804
     37          1           0        5.515225    4.715658    1.293600
     38          1           0       -4.762063   -0.768932    1.205794
     39          1           0       -4.650434   -0.664109    2.961127
     40          1           0       -3.746722    0.465512    1.951860
     41          1           0       -2.255985   -4.761184    2.169147
     42          6           0       -2.097277   -3.685304    2.094811
     43          8           0        0.264472   -3.857555    1.954888
     44          6           0       -0.763134   -3.180657    1.979826
     45          1           0        0.252381   -1.412014    1.809635
     46          7           0       -0.674273   -1.806007    1.892089
     47          8           0       -1.532744    0.295232    1.821216
     48          6           0       -1.711360   -0.907196    1.904379
     49          1           0       -4.162816   -3.166389    2.195190
     50          6           0       -3.129251   -2.833584    2.109579
     51          6           0       -4.106582   -0.549207    2.035339
     52          7           0       -2.967091   -1.470624    2.017885
     53          1           0       -5.494377    4.259802   -2.054656
     54          1           0       -4.141794    4.154004   -1.148343
     55          1           0       -5.602637    4.247068   -0.426299
     56          1           0       -3.589993   -2.856754   -1.163898
     57          1           0       -5.212775   -2.340997   -1.267206
     58          7           0       -4.243656   -2.100799   -1.201445
     59          6           0       -3.841888   -0.828615   -1.165483
     60          6           0       -4.153396    1.530348   -1.168561
     61          7           0       -2.845421    1.823215   -1.080038
     62          1           0       -1.042265    0.855380   -0.968166
     63          6           0       -2.118993    0.708041   -1.040344
     64          7           0       -2.519504   -0.567063   -1.076247
     65          1           0       -7.330626    2.091690   -1.374159
     66          6           0       -6.338594    1.643431   -1.311995
     67          7           0       -6.102380    0.354310   -1.305959
     68          6           0       -4.720634    0.268764   -1.215366
     69          6           0       -5.102637    3.886393   -1.213763
     70          7           0       -5.204506    2.414217   -1.231401
 ---------------------------------------------------------------------

 SCF Done:  E(RwB97XD) =  -2048.74882882     A.U. after   15 cycles

 The electronic state is 1-A.
 Alpha  occ. eigenvalues --  -19.25256 -19.21415 -19.20440 -14.52661 -14.51931
 Alpha  occ. eigenvalues --  -14.49145 -14.48774 -14.48089 -14.47236 -14.46616
 Alpha  occ. eigenvalues --  -14.46308 -14.45608 -14.44969 -14.44904 -14.42828
 Alpha  occ. eigenvalues --  -14.41896 -14.40898 -14.40793 -14.40645 -14.40309
 Alpha  occ. eigenvalues --  -10.44899 -10.41026 -10.40588 -10.39538 -10.38183
 Alpha  occ. eigenvalues --  -10.38054 -10.37583 -10.37505 -10.36356 -10.35493
 Alpha  occ. eigenvalues --  -10.34555 -10.34262 -10.34051 -10.33523 -10.33353
 Alpha  occ. eigenvalues --  -10.33065 -10.32910 -10.32829 -10.30973 -10.30808
 Alpha  occ. eigenvalues --  -10.30127 -10.28193 -10.28010  -1.18866  -1.15447
 Alpha  occ. eigenvalues --   -1.13018  -1.12428  -1.10752  -1.10508  -1.09932
 Alpha  occ. eigenvalues --   -1.08809  -1.08351  -1.05462  -1.04983  -1.01886
 Alpha  occ. eigenvalues --   -1.01247  -1.00478  -0.99454  -0.98397  -0.97453
 Alpha  occ. eigenvalues --   -0.96542  -0.96460  -0.92670  -0.90680  -0.87981
 Alpha  occ. eigenvalues --   -0.86157  -0.84048  -0.83434  -0.83090  -0.82465
 Alpha  occ. eigenvalues --   -0.81767  -0.78431  -0.77486  -0.75313  -0.74506
 Alpha  occ. eigenvalues --   -0.73396  -0.72821  -0.72718  -0.70925  -0.70747
 Alpha  occ. eigenvalues --   -0.67357  -0.67149  -0.66123  -0.66059  -0.64705
 Alpha  occ. eigenvalues --   -0.64218  -0.63497  -0.62584  -0.62458  -0.61554
 Alpha  occ. eigenvalues --   -0.60972  -0.60625  -0.60167  -0.59700  -0.59214
 Alpha  occ. eigenvalues --   -0.59099  -0.58063  -0.56672  -0.56388  -0.55662
 Alpha  occ. eigenvalues --   -0.55603  -0.55578  -0.55439  -0.54798  -0.54049
 Alpha  occ. eigenvalues --   -0.53946  -0.53487  -0.53367  -0.53126  -0.52825
 Alpha  occ. eigenvalues --   -0.52578  -0.51961  -0.51266  -0.50326  -0.50291
 Alpha  occ. eigenvalues --   -0.50005  -0.49785  -0.49584  -0.49011  -0.48678
 Alpha  occ. eigenvalues --   -0.48620  -0.48044  -0.47847  -0.47642  -0.47061
 Alpha  occ. eigenvalues --   -0.46569  -0.45655  -0.45342  -0.44419  -0.43532
 Alpha  occ. eigenvalues --   -0.41108  -0.41015  -0.38960  -0.38160  -0.38005
 Alpha  occ. eigenvalues --   -0.37253  -0.37153  -0.36653  -0.35406  -0.35130
 Alpha  occ. eigenvalues --   -0.34956  -0.33858  -0.33229  -0.33141  -0.32766
 Alpha  occ. eigenvalues --   -0.32428  -0.32405  -0.31767  -0.31523  -0.30615
 Alpha  occ. eigenvalues --   -0.30476  -0.30178  -0.25954  -0.25091
 Alpha virt. eigenvalues --    0.03130   0.03958   0.06460   0.08151   0.09042
 Alpha virt. eigenvalues --    0.09433   0.09895   0.10315   0.11118   0.11356
 Alpha virt. eigenvalues --    0.13329   0.14474   0.14661   0.14850   0.15022

 Mulliken charges:
               1
     1  N   -0.313265
     2  C    0.184532
     3  C    0.057436
     4  N   -0.259962
     5  C    0.142908
     6  H    0.026973
     7  N   -0.292559
     8  C    0.126573
     9  H    0.013593
    10  N   -0.277170
    11  C    0.262252
    12  C    0.091586
    13  N   -0.070489
    14  H    0.111548
    15  H    0.081267
    16  H    0.020238
    17  H    0.032309
    18  H    0.031652
    19  N   -0.310535
    20  C    0.249427
    21  C    0.180830
    22  N   -0.115121
    23  H    0.115506
    24  H    0.115652
    25  N   -0.310961
    26  C    0.239706
    27  N   -0.135047
    28  H    0.113922
    29  C    0.181030
    30  O   -0.321583
    31  C   -0.006205
    32  N   -0.229962
    33  C    0.126305
    34  H    0.021746
    35  H    0.027600
    36  H    0.029097
    37  H    0.024477
    38  H    0.057376
    39  H    0.058888
    40  H    0.075393
    41  H    0.028757
    42  C   -0.116676
    43  O   -0.257975
    44  C    0.171555
    45  H    0.135467
    46  N   -0.127079
    47  O   -0.346522
    48  C    0.353768
    49  H    0.041943
    50  C    0.161325
    51  C    0.038232
    52  N   -0.281084
    53  H    0.034921
    54  H    0.038144
    55  H    0.030985
    56  H    0.118406
    57  H    0.120050
    58  N   -0.061781
    59  C    0.071844
    60  C    0.252380
    61  N   -0.278501
    62  H    0.027165
    63  C    0.185471
    64  N   -0.311482
    65  H    0.039929
    66  C    0.141436
    67  N   -0.260431
    68  C    0.025748
    69  C    0.180726
    70  N   -0.313686
 Sum of Mulliken charges =  -0.00000

 Dipole moment (field-independent basis, Debye):
    X=             -8.9216    Y=              5.8217    Z=             -1.1883  Tot=             10.7191
 Quadrupole moment (field-independent basis, Debye-Ang):
   XX=           -170.2537   YY=           -211.5824   ZZ=           -251.8009
   XY=              7.2821   XZ=            -15.9151   YZ=              6.2574

 Normal termination of Gaussian 16 at Fri Jan 26 17:06:10 2018.
