 Gaussian 16, Revision A.03,
 Gaussian 16:  EM64L-G16RevA.03 25-Dec-2016

 ---------------------------------------
 #p wb97xd/cc-pvdz sp scf=(maxcycles=20)
 ---------------------------------------

 ------------------
 Base pair stacking
 ------------------
 Symbolic Z-matrix:
 Charge =  0 Multiplicity = 1

                         Standard orientation:
 ---------------------------------------------------------------------
 Center     Atomic      Atomic             Coordinates (Angstroms)
 Number     Number       Type             X           Y           Z
 ---------------------------------------------------------------------
      1          7           0       -6.915597   -1.600716    0.276249
      2          6           0       -8.297025   -1.139453    0.037727
      3          6           0       -4.753115   -1.659031    0.673267
      4          7           0       -5.160989   -2.979420    0.550980
      5          6           0       -6.447472   -2.891439    0.316685
      6          1           0       -7.109628   -3.744211    0.164117
      7          7           0       -3.435509    0.272168    0.985200
      8          6           0       -4.558272    0.974856    0.803011
      9          1           0       -4.444746    2.056445    0.862475
     10          7           0       -5.794427    0.544098    0.559535
     11          6           0       -5.823624   -0.797821    0.506362
     12          6           0       -3.497995   -1.076032    0.925666
     13          7           0       -2.378295   -1.779211    1.107269
     14          1           0       -2.377773   -2.779188    1.071763
     15          1           0       -1.502279   -1.330687    1.284911
     16          1           0       -8.900475   -1.510972    0.743414
     17          1           0       -8.325661   -0.140759    0.067998
     18          1           0       -8.604917   -1.452982   -0.860551
     19          7           0       -2.003888    2.920718   -1.756600
     20          6           0       -0.736419    2.457646   -1.497510
     21          6           0       -2.440627    4.326178   -1.635542
     22          7           0        2.543444    3.054682   -0.523953
     23          1           0        3.381110    2.525810   -0.390335
     24          1           0        2.593923    4.037531   -0.344585
     25          7           0        0.314509    3.202765   -1.092063
     26          6           0        1.403202    2.472925   -0.925584
     27          7           0        1.460415    1.116984   -1.139275
     28          1           0        2.335966    0.640403   -0.986763
     29          6           0        0.391548    0.330057   -1.556559
     30          8           0        0.549178   -0.886169   -1.719944
     31          6           0       -0.785023    1.100139   -1.739634
     32          7           0       -2.057402    0.718651   -2.142618
     33          6           0       -2.744505    1.828638   -2.138059
     34          1           0       -3.798850    1.907400   -2.405313
     35          1           0       -3.179475    4.390836   -0.965670
     36          1           0       -1.670460    4.887658   -1.335801
     37          1           0       -2.765283    4.653622   -2.522210
     38          1           0        6.799273   -1.237497    0.564046
     39          1           0        7.168632   -1.221860   -1.158741
     40          1           0        6.089685   -0.003764   -0.477949
     41          1           0        4.431574   -5.168706   -0.880306
     42          6           0        4.317153   -4.084769   -0.894994
     43          8           0        1.998762   -4.151808   -1.392651
     44          6           0        3.030403   -3.520141   -1.165745
     45          1           0        2.103651   -1.704581   -1.347964
     46          7           0        2.995734   -2.140280   -1.160656
     47          8           0        3.916006   -0.075420   -0.944626
     48          6           0        4.045103   -1.286918   -0.927939
     49          1           0        6.358796   -3.657531   -0.453407
     50          6           0        5.359731   -3.278319   -0.664159
     51          6           0        6.403330   -1.035463   -0.420062
     52          7           0        5.252862   -1.906880   -0.674631
     53          1           0        3.152350    4.381609    2.532783
     54          1           0        2.079706    4.206628    1.315857
     55          1           0        3.681306    4.153200    1.005868
     56          1           0        1.062755   -2.718516    1.996708
     57          1           0        2.633580   -2.251409    2.470441
     58          7           0        1.734213   -1.987698    2.120005
     59          6           0        1.444195   -0.717614    1.830295
     60          6           0        1.905360    1.609174    1.642867
     61          7           0        0.689309    1.934101    1.173749
     62          1           0       -1.084002    1.024302    0.695992
     63          6           0       -0.076326    0.849629    1.070616
     64          7           0        0.212308   -0.423303    1.360276
     65          1           0        4.949191    2.079796    2.625605
     66          6           0        3.979522    1.662628    2.352385
     67          7           0        3.665117    0.392848    2.432974
     68          6           0        2.352591    0.345164    1.986052
     69          6           0        2.969319    3.916006    1.666923
     70          7           0        2.961649    2.455971    1.881983
 ---------------------------------------------------------------------

 SCF Done:  E(RwB97XD) =  -2048.67288051     A.U. after   15 cycles

 The electronic state is 1-A.
 Alpha  occ. eigenvalues --  -19.25933 -19.22085 -19.20591 -14.52532 -14.51826
 Alpha  occ. eigenvalues --  -14.49001 -14.48808 -14.47979 -14.47397 -14.46480
 Alpha  occ. eigenvalues --  -14.46400 -14.44712 -14.43274 -14.42650 -14.42484
 Alpha  occ. eigenvalues --  -14.41702 -14.41702 -14.41152 -14.40816 -14.40379
 Alpha  occ. eigenvalues --  -10.45575 -10.41321 -10.40206 -10.39050 -10.38198
 Alpha  occ. eigenvalues --  -10.37911 -10.37387 -10.36131 -10.35671 -10.35308
 Alpha  occ. eigenvalues --  -10.34465 -10.34355 -10.34354 -10.33871 -10.33620
 Alpha  occ. eigenvalues --  -10.33348 -10.33341 -10.31875 -10.31215 -10.31104
 Alpha  occ. eigenvalues --  -10.30954 -10.28812 -10.28234  -1.19514  -1.14923
 Alpha  occ. eigenvalues --   -1.13259  -1.13104  -1.11599  -1.10643  -1.09416
 Alpha  occ. eigenvalues --   -1.08981  -1.08385  -1.05224  -1.03888  -1.02607
 Alpha  occ. eigenvalues --   -1.01573  -1.00697  -0.99407  -0.98499  -0.97216
 Alpha  occ. eigenvalues --   -0.96616  -0.95997  -0.92877  -0.91156  -0.87351
 Alpha  occ. eigenvalues --   -0.85865  -0.84185  -0.84165  -0.83730  -0.82613
 Alpha  occ. eigenvalues --   -0.82534  -0.78981  -0.76368  -0.74790  -0.74160
 Alpha  occ. eigenvalues --   -0.73993  -0.73459  -0.73159  -0.71312  -0.69874
 Alpha  occ. eigenvalues --   -0.67789  -0.66685  -0.66560  -0.66256  -0.64583
 Alpha  occ. eigenvalues --   -0.64044  -0.63796  -0.63067  -0.62905  -0.62800
 Alpha  occ. eigenvalues --   -0.60508  -0.60087  -0.59813  -0.59637  -0.59488
 Alpha  occ. eigenvalues --   -0.59410  -0.58780  -0.57024  -0.56719  -0.56567
 Alpha  occ. eigenvalues --   -0.56025  -0.55663  -0.55578  -0.54574  -0.54269
 Alpha  occ. eigenvalues --   -0.53723  -0.53455  -0.53364  -0.52917  -0.52520
 Alpha  occ. eigenvalues --   -0.52453  -0.51971  -0.51869  -0.50949  -0.50417
 Alpha  occ. eigenvalues --   -0.50197  -0.49516  -0.49470  -0.48950  -0.48872
 Alpha  occ. eigenvalues --   -0.48694  -0.48397  -0.48224  -0.47790  -0.47422
 Alpha  occ. eigenvalues --   -0.47194  -0.45635  -0.45314  -0.44093  -0.42570
 Alpha  occ. eigenvalues --   -0.41429  -0.39737  -0.39440  -0.38152  -0.37430
 Alpha  occ. eigenvalues --   -0.37230  -0.36823  -0.36352  -0.35560  -0.34830
 Alpha  occ. eigenvalues --   -0.33825  -0.33701  -0.33322  -0.33243  -0.33000
 Alpha  occ. eigenvalues --   -0.32670  -0.32210  -0.32042  -0.31856  -0.31119
 Alpha  occ. eigenvalues --   -0.30601  -0.28965  -0.26049  -0.25010
 Alpha virt. eigenvalues --    0.02989   0.04258   0.07332   0.07676   0.08320
 Alpha virt. eigenvalues --    0.09330   0.09770   0.10656   0.11245   0.12427
 Alpha virt. eigenvalues --    0.13022   0.13861   0.14093   0.14611   0.14884

 Mulliken charges:
               1
     1  N   -0.311504
     2  C    0.181093
     3  C    0.031542
     4  N   -0.259976
     5  C    0.134604
     6  H    0.027401
     7  N   -0.289574
     8  C    0.133611
     9  H    0.007128
    10  N   -0.288791
    11  C    0.245152
    12  C    0.126229
    13  N   -0.058705
    14  H    0.107832
    15  H    0.088525
    16  H    0.025536
    17  H    0.034884
    18  H    0.026937
    19  N   -0.310880
    20  C    0.228038
    21  C    0.182044
    22  N   -0.095803
    23  H    0.117870
    24  H    0.111429
    25  N   -0.260649
    26  C    0.163842
    27  N   -0.097751
    28  H    0.116203
    29  C    0.139380
    30  O   -0.316966
    31  C    0.001255
    32  N   -0.218507
    33  C    0.127974
    34  H    0.031254
    35  H    0.028340
    36  H    0.026953
    37  H    0.024982
    38  H    0.061858
    39  H    0.058820
    40  H    0.073779
    41  H    0.032088
    42  C   -0.113199
    43  O   -0.264980
    44  C    0.174919
    45  H    0.135287
    46  N   -0.138610
    47  O   -0.347175
    48  C    0.361426
    49  H    0.048245
    50  C    0.170596
    51  C    0.044295
    52  N   -0.297287
    53  H    0.023563
    54  H    0.037467
    55  H   -0.002894
    56  H    0.123608
    57  H    0.114560
    58  N   -0.068312
    59  C    0.101407
    60  C    0.204924
    61  N   -0.253511
    62  H    0.067837
    63  C    0.150676
    64  N   -0.295204
    65  H    0.030290
    66  C    0.123261
    67  N   -0.264303
    68  C    0.043079
    69  C    0.209395
    70  N   -0.306835
 Sum of Mulliken charges =  -0.00000

 Dipole moment (field-independent basis, Debye):
    X=              8.1465    Y=              4.9758    Z=              3.1986  Tot=             10.0676
 Quadrupole moment (field-independent basis, Debye-Ang):
   XX=           -151.3065   YY=           -216.0675   ZZ=           -253.2617
   XY=             -0.0546   XZ=             11.5103   YZ=            -11.1691

 Normal termination of Gaussian 16 at Fri Jan 26 01:04:05 2018.
