 Gaussian 16, Revision A.03,
 Gaussian 16:  EM64L-G16RevA.03 25-Dec-2016

 ---------------------------------------
 #p wb97xd/cc-pvdz sp scf=(maxcycles=20)
 ---------------------------------------

 ------------------
 Base pair stacking
 ------------------
 Symbolic Z-matrix:
 Charge =  0 Multiplicity = 1

                         Standard orientation:
 ---------------------------------------------------------------------
 Center     Atomic      Atomic             Coordinates (Angstroms)
 Number     Number       Type             X           Y           Z
 ---------------------------------------------------------------------
      1          7           0       -7.000793   -1.581251    0.137046
      2          6           0       -8.407369   -1.135583    0.106709
      3          6           0       -4.820403   -1.656583    0.415533
      4          7           0       -5.188616   -2.890683   -0.100347
      5          6           0       -6.487480   -2.795910   -0.247485
      6          1           0       -7.126974   -3.589149   -0.635757
      7          7           0       -3.555443    0.141538    1.269695
      8          6           0       -4.709251    0.811096    1.359121
      9          1           0       -4.629838    1.824119    1.751232
     10          7           0       -5.940642    0.419028    1.038415
     11          6           0       -5.926683   -0.838885    0.567356
     12          6           0       -3.574828   -1.121933    0.791858
     13          7           0       -2.424098   -1.791924    0.701836
     14          1           0       -2.391244   -2.729516    0.353886
     15          1           0       -1.556082   -1.379749    0.978964
     16          1           0       -8.961654   -1.737564    0.681668
     17          1           0       -8.468509   -0.198941    0.450328
     18          1           0       -8.749033   -1.167209   -0.832577
     19          7           0       -1.790000    3.134430   -1.928259
     20          6           0       -0.528785    2.633092   -1.713678
     21          6           0       -2.144574    4.567533   -1.962503
     22          7           0        2.850176    3.151962   -1.101190
     23          1           0        3.669401    2.595224   -0.966478
     24          1           0        2.964708    4.144919   -1.060747
     25          7           0        0.589462    3.359601   -1.499773
     26          6           0        1.651454    2.593044   -1.326042
     27          7           0        1.622665    1.219867   -1.358899
     28          1           0        2.483822    0.715036   -1.215659
     29          6           0        0.483459    0.451523   -1.577376
     30          8           0        0.565899   -0.782910   -1.587606
     31          6           0       -0.665457    1.261077   -1.765722
     32          7           0       -1.985916    0.908168   -2.008107
     33          6           0       -2.614467    2.048878   -2.097067
     34          1           0       -3.683283    2.155904   -2.285324
     35          1           0       -2.816694    4.763447   -1.249283
     36          1           0       -1.324088    5.115558   -1.805260
     37          1           0       -2.530501    4.795877   -2.855661
     38          1           0        6.969871   -1.211964    0.203750
     39          1           0        7.184497   -1.443045   -1.529802
     40          1           0        6.231730   -0.083623   -0.933510
     41          1           0        4.292430   -5.147006   -0.498647
     42          6           0        4.230588   -4.069274   -0.649966
     43          8           0        1.876582   -4.059957   -0.942642
     44          6           0        2.954144   -3.467785   -0.888168
     45          1           0        2.105228   -1.638600   -1.237111
     46          7           0        2.987949   -2.099442   -1.066386
     47          8           0        4.024220   -0.083600   -1.206814
     48          6           0        4.094563   -1.288202   -1.037528
     49          1           0        6.321990   -3.712659   -0.438578
     50          6           0        5.327976   -3.304285   -0.616071
     51          6           0        6.498178   -1.116101   -0.762885
     52          7           0        5.288151   -1.941932   -0.802611
     53          1           0        2.957695    3.873739    3.786043
     54          1           0        1.831986    4.036316    2.616240
     55          1           0        3.416927    4.159512    2.246287
     56          1           0        1.087259   -2.795398    1.123401
     57          1           0        2.663009   -2.424671    1.661612
     58          7           0        1.738725   -2.108266    1.445247
     59          6           0        1.391402   -0.826742    1.580247
     60          6           0        1.762959    1.461482    2.116620
     61          7           0        0.514543    1.857801    1.818604
     62          1           0       -1.248429    1.058603    1.144924
     63          6           0       -0.217871    0.824330    1.408226
     64          7           0        0.128178   -0.459950    1.272324
     65          1           0        4.834400    1.747393    3.084443
     66          6           0        3.867042    1.390320    2.729940
     67          7           0        3.600565    0.145344    2.418961
     68          6           0        2.269685    0.176584    2.028459
     69          6           0        2.747481    3.693711    2.825106
     70          7           0        2.800408    2.240976    2.570590
 ---------------------------------------------------------------------

 SCF Done:  E(RwB97XD) =  -2048.74103274     A.U. after   15 cycles

 The electronic state is 1-A.
 Alpha  occ. eigenvalues --  -19.26278 -19.22975 -19.21009 -14.53018 -14.51035
 Alpha  occ. eigenvalues --  -14.49063 -14.48631 -14.48444 -14.47509 -14.47437
 Alpha  occ. eigenvalues --  -14.46153 -14.44111 -14.42571 -14.42502 -14.42423
 Alpha  occ. eigenvalues --  -14.41790 -14.41306 -14.41064 -14.40658 -14.39873
 Alpha  occ. eigenvalues --  -10.45970 -10.41772 -10.40965 -10.38647 -10.38491
 Alpha  occ. eigenvalues --  -10.38114 -10.36653 -10.35635 -10.35593 -10.35133
 Alpha  occ. eigenvalues --  -10.34703 -10.34006 -10.33962 -10.33520 -10.33191
 Alpha  occ. eigenvalues --  -10.32840 -10.32780 -10.31747 -10.31120 -10.31092
 Alpha  occ. eigenvalues --  -10.30831 -10.28483 -10.28355  -1.19915  -1.13958
 Alpha  occ. eigenvalues --   -1.13777  -1.13601  -1.11206  -1.10924  -1.09900
 Alpha  occ. eigenvalues --   -1.09097  -1.07482  -1.04722  -1.03331  -1.02927
 Alpha  occ. eigenvalues --   -1.00408  -1.00145  -0.99509  -0.98948  -0.96890
 Alpha  occ. eigenvalues --   -0.96787  -0.95063  -0.92352  -0.91692  -0.86129
 Alpha  occ. eigenvalues --   -0.84559  -0.84455  -0.84141  -0.83777  -0.82804
 Alpha  occ. eigenvalues --   -0.82150  -0.79504  -0.75469  -0.75011  -0.74201
 Alpha  occ. eigenvalues --   -0.73962  -0.73139  -0.72680  -0.70835  -0.68854
 Alpha  occ. eigenvalues --   -0.67894  -0.67146  -0.66073  -0.65214  -0.64987
 Alpha  occ. eigenvalues --   -0.64194  -0.63103  -0.62706  -0.62392  -0.62263
 Alpha  occ. eigenvalues --   -0.60109  -0.60091  -0.59952  -0.59016  -0.58951
 Alpha  occ. eigenvalues --   -0.58540  -0.58087  -0.56909  -0.56422  -0.56279
 Alpha  occ. eigenvalues --   -0.56258  -0.55106  -0.54969  -0.54643  -0.54092
 Alpha  occ. eigenvalues --   -0.53946  -0.53760  -0.53345  -0.52916  -0.52444
 Alpha  occ. eigenvalues --   -0.52160  -0.51557  -0.51363  -0.50623  -0.50542
 Alpha  occ. eigenvalues --   -0.49998  -0.49977  -0.49430  -0.49154  -0.48929
 Alpha  occ. eigenvalues --   -0.48641  -0.48411  -0.48003  -0.47877  -0.47717
 Alpha  occ. eigenvalues --   -0.46745  -0.45450  -0.44890  -0.44679  -0.43134
 Alpha  occ. eigenvalues --   -0.40925  -0.39882  -0.39232  -0.37737  -0.37649
 Alpha  occ. eigenvalues --   -0.37076  -0.36967  -0.36031  -0.35514  -0.34926
 Alpha  occ. eigenvalues --   -0.34082  -0.33393  -0.33299  -0.33117  -0.32920
 Alpha  occ. eigenvalues --   -0.32711  -0.32651  -0.32331  -0.32168  -0.30744
 Alpha  occ. eigenvalues --   -0.30103  -0.28349  -0.25872  -0.25517
 Alpha virt. eigenvalues --    0.02292   0.05479   0.07681   0.08201   0.08485
 Alpha virt. eigenvalues --    0.09261   0.09354   0.11239   0.11609   0.12207
 Alpha virt. eigenvalues --    0.12721   0.14078   0.14545   0.14778   0.15537

 Mulliken charges:
               1
     1  N   -0.310743
     2  C    0.181090
     3  C    0.029243
     4  N   -0.258158
     5  C    0.132355
     6  H    0.025751
     7  N   -0.292635
     8  C    0.132495
     9  H    0.009745
    10  N   -0.290571
    11  C    0.240760
    12  C    0.124722
    13  N   -0.053288
    14  H    0.110372
    15  H    0.091595
    16  H    0.025151
    17  H    0.034772
    18  H    0.025207
    19  N   -0.311670
    20  C    0.252718
    21  C    0.181872
    22  N   -0.123590
    23  H    0.116118
    24  H    0.117619
    25  N   -0.303173
    26  C    0.234333
    27  N   -0.131423
    28  H    0.117607
    29  C    0.171198
    30  O   -0.322050
    31  C   -0.008653
    32  N   -0.220045
    33  C    0.131213
    34  H    0.031434
    35  H    0.030142
    36  H    0.028052
    37  H    0.025413
    38  H    0.063869
    39  H    0.060509
    40  H    0.075770
    41  H    0.033683
    42  C   -0.105201
    43  O   -0.272393
    44  C    0.145269
    45  H    0.135267
    46  N   -0.123339
    47  O   -0.348880
    48  C    0.358206
    49  H    0.051559
    50  C    0.173721
    51  C    0.043028
    52  N   -0.295074
    53  H    0.030060
    54  H    0.044308
    55  H    0.015844
    56  H    0.129354
    57  H    0.109875
    58  N   -0.057046
    59  C    0.094040
    60  C    0.243498
    61  N   -0.265389
    62  H    0.043280
    63  C    0.157533
    64  N   -0.296754
    65  H    0.027793
    66  C    0.128035
    67  N   -0.269967
    68  C    0.022691
    69  C    0.182260
    70  N   -0.310388
 Sum of Mulliken charges =  -0.00000

 Dipole moment (field-independent basis, Debye):
    X=              9.4001    Y=              5.0915    Z=              0.9435  Tot=             10.7320
 Quadrupole moment (field-independent basis, Debye-Ang):
   XX=           -150.3743   YY=           -213.3369   ZZ=           -248.0432
   XY=             -1.9461   XZ=             11.7428   YZ=             -4.9249

 Normal termination of Gaussian 16 at Fri Jan 26 11:30:04 2018.
