 Gaussian 16, Revision A.03,
 Gaussian 16:  EM64L-G16RevA.03 25-Dec-2016

 ---------------------------------------
 #p wb97xd/cc-pvdz sp scf=(maxcycles=20)
 ---------------------------------------

 ------------------
 Base pair stacking
 ------------------
 Symbolic Z-matrix:
 Charge =  0 Multiplicity = 1

                         Standard orientation:
 ---------------------------------------------------------------------
 Center     Atomic      Atomic             Coordinates (Angstroms)
 Number     Number       Type             X           Y           Z
 ---------------------------------------------------------------------
      1          7           0        5.557554   -1.831667   -1.222746
      2          6           0        6.964879   -1.387611   -1.206899
      3          6           0        3.359960   -1.865136   -1.304935
      4          7           0        3.763598   -3.186029   -1.174343
      5          6           0        5.071415   -3.112991   -1.130067
      6          1           0        5.737217   -3.970648   -1.029646
      7          7           0        2.036978    0.075030   -1.525005
      8          6           0        3.183472    0.762705   -1.540457
      9          1           0        3.076938    1.842193   -1.638532
     10          7           0        4.435921    0.319200   -1.453363
     11          6           0        4.454636   -1.018830   -1.336201
     12          6           0        2.089481   -1.269639   -1.405950
     13          7           0        0.946108   -1.957840   -1.390336
     14          1           0        0.937420   -2.954669   -1.303913
     15          1           0        0.059704   -1.500732   -1.464442
     16          1           0        7.456283   -1.805390   -1.971212
     17          1           0        7.002131   -0.392381   -1.292073
     18          1           0        7.393849   -1.663118   -0.346624
     19          7           0        3.530887    3.042049    1.352297
     20          6           0        2.233367    2.592856    1.300015
     21          6           0        3.964404    4.430710    1.098537
     22          7           0       -1.143783    3.208485    0.773109
     23          1           0       -1.998877    2.690933    0.787157
     24          1           0       -1.206352    4.182229    0.552612
     25          7           0        1.145236    3.338591    1.010378
     26          6           0        0.034367    2.623871    1.037905
     27          7           0       -0.009678    1.281435    1.326761
     28          1           0       -0.904261    0.815949    1.324829
     29          6           0        1.097345    0.494162    1.627692
     30          8           0        0.948604   -0.709163    1.873926
     31          6           0        2.298101    1.248079    1.602005
     32          7           0        3.609863    0.860823    1.839108
     33          6           0        4.303888    1.955003    1.680084
     34          1           0        5.386566    2.025178    1.790423
     35          1           0        4.600706    4.447485    0.328059
     36          1           0        3.166812    4.992494    0.882918
     37          1           0        4.416789    4.794362    1.912129
     38          1           0       -5.567906   -1.043908    0.522291
     39          1           0       -5.686959   -0.936633    2.276985
     40          1           0       -4.700365    0.224486    1.388279
     41          1           0       -3.070331   -4.947427    1.815048
     42          6           0       -2.940632   -3.866627    1.757777
     43          8           0       -0.576004   -3.956609    1.923712
     44          6           0       -1.621039   -3.315842    1.813638
     45          1           0       -0.653779   -1.512854    1.769034
     46          7           0       -1.569170   -1.938872    1.732976
     47          8           0       -2.483448    0.131334    1.544379
     48          6           0       -2.629630   -1.076645    1.608310
     49          1           0       -5.018590   -3.419866    1.589475
     50          6           0       -3.994724   -3.051293    1.636409
     51          6           0       -5.032701   -0.802190    1.428492
     52          7           0       -3.869310   -1.683447    1.561297
     53          1           0       -4.649423    4.237654   -2.329268
     54          1           0       -3.416252    4.100450   -1.269757
     55          1           0       -4.957665    4.094923   -0.733008
     56          1           0       -2.598886   -2.869007   -1.732448
     57          1           0       -4.214982   -2.393613   -2.001467
     58          7           0       -3.271335   -2.131525   -1.796364
     59          6           0       -2.926083   -0.854985   -1.616273
     60          6           0       -3.324861    1.487100   -1.484690
     61          7           0       -2.050042    1.809646   -1.210416
     62          1           0       -0.238856    0.888255   -0.943505
     63          6           0       -1.291959    0.716109   -1.161687
     64          7           0       -1.635872   -0.563299   -1.341779
     65          1           0       -6.471408    1.971223   -2.047743
     66          6           0       -5.478252    1.548182   -1.894073
     67          7           0       -5.195444    0.269828   -1.953340
     68          6           0       -3.833260    0.217235   -1.695614
     69          6           0       -4.350682    3.811246   -1.475494
     70          7           0       -4.393183    2.342611   -1.614358
 ---------------------------------------------------------------------

 SCF Done:  E(RwB97XD) =  -2048.73409341     A.U. after   15 cycles

 The electronic state is 1-A.
 Alpha  occ. eigenvalues --  -19.25546 -19.21738 -19.20343 -14.52714 -14.52220
 Alpha  occ. eigenvalues --  -14.48655 -14.48507 -14.48340 -14.47573 -14.46513
 Alpha  occ. eigenvalues --  -14.45666 -14.45614 -14.44479 -14.44226 -14.42353
 Alpha  occ. eigenvalues --  -14.41593 -14.41028 -14.40582 -14.40505 -14.40065
 Alpha  occ. eigenvalues --  -10.45208 -10.40677 -10.40181 -10.39872 -10.38205
 Alpha  occ. eigenvalues --  -10.37912 -10.37707 -10.37365 -10.35786 -10.35288
 Alpha  occ. eigenvalues --  -10.34789 -10.34395 -10.33977 -10.33716 -10.32986
 Alpha  occ. eigenvalues --  -10.32979 -10.32829 -10.32787 -10.31026 -10.30751
 Alpha  occ. eigenvalues --  -10.30558 -10.28203 -10.27718  -1.19189  -1.15417
 Alpha  occ. eigenvalues --   -1.12886  -1.12757  -1.10935  -1.10297  -1.09539
 Alpha  occ. eigenvalues --   -1.09103  -1.08147  -1.05136  -1.04791  -1.02210
 Alpha  occ. eigenvalues --   -1.01250  -1.00272  -0.99184  -0.98221  -0.97083
 Alpha  occ. eigenvalues --   -0.96602  -0.96295  -0.92482  -0.90907  -0.87866
 Alpha  occ. eigenvalues --   -0.86259  -0.83770  -0.83568  -0.83320  -0.82243
 Alpha  occ. eigenvalues --   -0.81978  -0.78700  -0.77269  -0.75169  -0.74260
 Alpha  occ. eigenvalues --   -0.73242  -0.73074  -0.72681  -0.70816  -0.70676
 Alpha  occ. eigenvalues --   -0.67162  -0.66944  -0.66292  -0.66086  -0.64601
 Alpha  occ. eigenvalues --   -0.64202  -0.63513  -0.62530  -0.62493  -0.61284
 Alpha  occ. eigenvalues --   -0.60857  -0.60444  -0.60288  -0.59591  -0.59414
 Alpha  occ. eigenvalues --   -0.59279  -0.57919  -0.56675  -0.56261  -0.55921
 Alpha  occ. eigenvalues --   -0.55801  -0.55688  -0.55330  -0.54668  -0.54308
 Alpha  occ. eigenvalues --   -0.54004  -0.53427  -0.53392  -0.53138  -0.52751
 Alpha  occ. eigenvalues --   -0.52618  -0.52118  -0.51445  -0.50438  -0.49983
 Alpha  occ. eigenvalues --   -0.49899  -0.49798  -0.49591  -0.49095  -0.48709
 Alpha  occ. eigenvalues --   -0.48547  -0.48038  -0.47835  -0.47316  -0.47083
 Alpha  occ. eigenvalues --   -0.46558  -0.45666  -0.45155  -0.44403  -0.43725
 Alpha  occ. eigenvalues --   -0.41172  -0.40853  -0.39221  -0.38027  -0.37921
 Alpha  occ. eigenvalues --   -0.36987  -0.36946  -0.36760  -0.35521  -0.35059
 Alpha  occ. eigenvalues --   -0.34602  -0.33363  -0.33289  -0.32882  -0.32401
 Alpha  occ. eigenvalues --   -0.32372  -0.32083  -0.31799  -0.31577  -0.30616
 Alpha  occ. eigenvalues --   -0.30263  -0.30170  -0.25643  -0.24738
 Alpha virt. eigenvalues --    0.02917   0.04063   0.06691   0.08262   0.08658
 Alpha virt. eigenvalues --    0.09465   0.10119   0.10328   0.11378   0.11572
 Alpha virt. eigenvalues --    0.12263   0.14016   0.14706   0.14869   0.15169

 Mulliken charges:
               1
     1  N   -0.313698
     2  C    0.182351
     3  C    0.044727
     4  N   -0.261083
     5  C    0.137226
     6  H    0.025895
     7  N   -0.297132
     8  C    0.142193
     9  H    0.010457
    10  N   -0.285224
    11  C    0.260534
    12  C    0.113647
    13  N   -0.061483
    14  H    0.108771
    15  H    0.081504
    16  H    0.023038
    17  H    0.031993
    18  H    0.028186
    19  N   -0.307666
    20  C    0.239017
    21  C    0.180734
    22  N   -0.075586
    23  H    0.109963
    24  H    0.111071
    25  N   -0.305228
    26  C    0.209014
    27  N   -0.148973
    28  H    0.125874
    29  C    0.185665
    30  O   -0.323896
    31  C   -0.011036
    32  N   -0.222371
    33  C    0.130711
    34  H    0.020902
    35  H    0.028425
    36  H    0.027782
    37  H    0.023867
    38  H    0.057955
    39  H    0.059538
    40  H    0.073410
    41  H    0.030233
    42  C   -0.114943
    43  O   -0.261788
    44  C    0.174591
    45  H    0.132488
    46  N   -0.125980
    47  O   -0.342076
    48  C    0.340247
    49  H    0.045134
    50  C    0.163319
    51  C    0.041610
    52  N   -0.284426
    53  H    0.037662
    54  H    0.032264
    55  H    0.031026
    56  H    0.119495
    57  H    0.116411
    58  N   -0.060731
    59  C    0.083874
    60  C    0.253328
    61  N   -0.286837
    62  H    0.054038
    63  C    0.156925
    64  N   -0.301658
    65  H    0.038494
    66  C    0.137630
    67  N   -0.264415
    68  C    0.030029
    69  C    0.178313
    70  N   -0.315331
 Sum of Mulliken charges =  -0.00000

 Dipole moment (field-independent basis, Debye):
    X=             -9.0084    Y=              5.4038    Z=             -2.4450  Tot=             10.7856
 Quadrupole moment (field-independent basis, Debye-Ang):
   XX=           -161.6531   YY=           -213.1947   ZZ=           -254.8378
   XY=              4.7245   XZ=             -5.3183   YZ=              8.3050

 Normal termination of Gaussian 16 at Thu Jan 25 22:59:27 2018.
