 Gaussian 16, Revision A.03,
 Gaussian 16:  EM64L-G16RevA.03 25-Dec-2016

 ---------------------------------------
 #p wb97xd/cc-pvdz sp scf=(maxcycles=20)
 ---------------------------------------

 ------------------
 Base pair stacking
 ------------------
 Symbolic Z-matrix:
 Charge =  0 Multiplicity = 1

                         Standard orientation:
 ---------------------------------------------------------------------
 Center     Atomic      Atomic             Coordinates (Angstroms)
 Number     Number       Type             X           Y           Z
 ---------------------------------------------------------------------
      1          7           0       -5.627425   -1.954020    1.155601
      2          6           0       -7.033916   -1.549002    1.344674
      3          6           0       -3.428550   -1.973868    1.112410
      4          7           0       -3.837612   -3.202081    0.613529
      5          6           0       -5.145981   -3.140971    0.659516
      6          1           0       -5.815563   -3.940502    0.341179
      7          7           0       -2.097133   -0.166094    1.835088
      8          6           0       -3.241665    0.466399    2.113576
      9          1           0       -3.130849    1.469006    2.524377
     10          7           0       -4.496652    0.048314    1.961530
     11          6           0       -4.520615   -1.193860    1.450776
     12          6           0       -2.154926   -1.414597    1.322262
     13          7           0       -1.013505   -2.047601    1.043601
     14          1           0       -1.008716   -2.972892    0.662778
     15          1           0       -0.124753   -1.618747    1.205917
     16          1           0       -7.483490   -2.184016    1.973005
     17          1           0       -7.067295   -0.625337    1.725281
     18          1           0       -7.507995   -1.562240    0.464296
     19          7           0       -3.416123    3.276957   -1.406896
     20          6           0       -2.122404    2.814223   -1.421924
     21          6           0       -3.816126    4.687979   -1.234438
     22          7           0        1.291324    3.420286   -1.219778
     23          1           0        2.138148    2.890628   -1.259625
     24          1           0        1.379634    4.407713   -1.085940
     25          7           0       -1.008234    3.564760   -1.282797
     26          6           0        0.090790    2.833686   -1.340293
     27          7           0        0.100136    1.471691   -1.520218
     28          1           0        0.988051    0.994619   -1.551634
     29          6           0       -1.034120    0.679114   -1.665625
     30          8           0       -0.915807   -0.542346   -1.823057
     31          6           0       -2.222554    1.450447   -1.605998
     32          7           0       -3.552374    1.064761   -1.704538
     33          6           0       -4.222143    2.178485   -1.581070
     34          1           0       -5.309575    2.255565   -1.609705
     35          1           0       -4.387702    4.776906   -0.419457
     36          1           0       -2.999047    5.253505   -1.130404
     37          1           0       -4.329949    4.990889   -2.036340
     38          1           0        5.685833   -0.863052   -0.974907
     39          1           0        5.663119   -0.900767   -2.736355
     40          1           0        4.761487    0.343424   -1.870096
     41          1           0        3.059415   -4.821188   -1.737555
     42          6           0        2.943748   -3.737492   -1.759274
     43          8           0        0.572787   -3.805429   -1.727246
     44          6           0        1.628574   -3.173476   -1.754392
     45          1           0        0.683098   -1.358628   -1.781064
     46          7           0        1.594835   -1.793892   -1.783498
     47          8           0        2.538516    0.270934   -1.839878
     48          6           0        2.669023   -0.940288   -1.815624
     49          1           0        5.032144   -3.309546   -1.795362
     50          6           0        4.010935   -2.930796   -1.790299
     51          6           0        5.080950   -0.687953   -1.852132
     52          7           0        3.903347   -1.559653   -1.818283
     53          1           0        4.619621    3.677462    3.506784
     54          1           0        3.331727    3.842261    2.518710
     55          1           0        4.842290    4.022917    1.927389
     56          1           0        2.545368   -2.960133    0.917330
     57          1           0        4.173163   -2.559864    1.233821
     58          7           0        3.219724   -2.264256    1.164621
     59          6           0        2.864415   -0.998113    1.392188
     60          6           0        3.253874    1.282780    1.946811
     61          7           0        1.965985    1.651204    1.846572
     62          1           0        0.143810    0.821440    1.408641
     63          6           0        1.207187    0.609588    1.511651
     64          7           0        1.561166   -0.659322    1.283290
     65          1           0        6.425636    1.629112    2.468458
     66          6           0        5.426001    1.254741    2.245920
     67          7           0        5.147701    0.012459    1.934542
     68          6           0        3.773739    0.016500    1.742346
     69          6           0        4.276032    3.520455    2.580885
     70          7           0        4.326955    2.078246    2.271957
 ---------------------------------------------------------------------

 SCF Done:  E(RwB97XD) =  -2048.74437542     A.U. after   15 cycles

 The electronic state is 1-A.
 Alpha  occ. eigenvalues --  -19.26021 -19.22456 -19.20685 -14.52656 -14.52209
 Alpha  occ. eigenvalues --  -14.48872 -14.48230 -14.48065 -14.47969 -14.47049
 Alpha  occ. eigenvalues --  -14.46809 -14.45297 -14.44115 -14.44050 -14.42127
 Alpha  occ. eigenvalues --  -14.41590 -14.40911 -14.40581 -14.40180 -14.39606
 Alpha  occ. eigenvalues --  -10.45671 -10.41347 -10.40530 -10.39775 -10.38298
 Alpha  occ. eigenvalues --  -10.38253 -10.37810 -10.36948 -10.35459 -10.35156
 Alpha  occ. eigenvalues --  -10.34741 -10.34417 -10.33690 -10.33360 -10.33294
 Alpha  occ. eigenvalues --  -10.32576 -10.32476 -10.32404 -10.31543 -10.31026
 Alpha  occ. eigenvalues --  -10.30309 -10.28176 -10.27745  -1.19609  -1.14956
 Alpha  occ. eigenvalues --   -1.13429  -1.13292  -1.10667  -1.10541  -1.09590
 Alpha  occ. eigenvalues --   -1.09119  -1.08658  -1.04695  -1.04308  -1.02731
 Alpha  occ. eigenvalues --   -1.00787  -0.99867  -0.99725  -0.98640  -0.96679
 Alpha  occ. eigenvalues --   -0.96671  -0.96162  -0.91982  -0.91452  -0.87390
 Alpha  occ. eigenvalues --   -0.85687  -0.84199  -0.83736  -0.83191  -0.82598
 Alpha  occ. eigenvalues --   -0.81604  -0.79211  -0.76851  -0.74731  -0.74589
 Alpha  occ. eigenvalues --   -0.73778  -0.73590  -0.72207  -0.70369  -0.70224
 Alpha  occ. eigenvalues --   -0.67496  -0.66798  -0.66668  -0.65601  -0.64672
 Alpha  occ. eigenvalues --   -0.64115  -0.63925  -0.62788  -0.62007  -0.61854
 Alpha  occ. eigenvalues --   -0.60429  -0.60113  -0.60011  -0.59766  -0.59339
 Alpha  occ. eigenvalues --   -0.59106  -0.58491  -0.56712  -0.56144  -0.55940
 Alpha  occ. eigenvalues --   -0.55648  -0.55101  -0.54777  -0.54623  -0.54265
 Alpha  occ. eigenvalues --   -0.53802  -0.53648  -0.53449  -0.53237  -0.53096
 Alpha  occ. eigenvalues --   -0.52584  -0.52560  -0.51103  -0.50317  -0.50010
 Alpha  occ. eigenvalues --   -0.49720  -0.49652  -0.49415  -0.49075  -0.49045
 Alpha  occ. eigenvalues --   -0.48499  -0.48379  -0.48210  -0.47802  -0.47477
 Alpha  occ. eigenvalues --   -0.46252  -0.45755  -0.45208  -0.44236  -0.44025
 Alpha  occ. eigenvalues --   -0.40482  -0.40388  -0.39586  -0.37536  -0.37405
 Alpha  occ. eigenvalues --   -0.37364  -0.37292  -0.36405  -0.36086  -0.34694
 Alpha  occ. eigenvalues --   -0.34209  -0.33929  -0.33541  -0.32819  -0.32784
 Alpha  occ. eigenvalues --   -0.32738  -0.32468  -0.32328  -0.31936  -0.30201
 Alpha  occ. eigenvalues --   -0.29910  -0.29734  -0.25652  -0.24927
 Alpha virt. eigenvalues --    0.02347   0.04273   0.07329   0.08133   0.08719
 Alpha virt. eigenvalues --    0.09204   0.09684   0.10733   0.11498   0.11758
 Alpha virt. eigenvalues --    0.12759   0.14425   0.14465   0.15024   0.15079

 Mulliken charges:
               1
     1  N   -0.312955
     2  C    0.181780
     3  C    0.044630
     4  N   -0.256989
     5  C    0.135751
     6  H    0.024343
     7  N   -0.300151
     8  C    0.139282
     9  H    0.007498
    10  N   -0.291370
    11  C    0.255184
    12  C    0.114800
    13  N   -0.058534
    14  H    0.113684
    15  H    0.082042
    16  H    0.022874
    17  H    0.032299
    18  H    0.026027
    19  N   -0.312061
    20  C    0.248758
    21  C    0.180814
    22  N   -0.117399
    23  H    0.113973
    24  H    0.115940
    25  N   -0.310688
    26  C    0.244040
    27  N   -0.150067
    28  H    0.121649
    29  C    0.193014
    30  O   -0.320884
    31  C   -0.011061
    32  N   -0.225659
    33  C    0.131129
    34  H    0.024839
    35  H    0.028793
    36  H    0.028757
    37  H    0.024844
    38  H    0.061259
    39  H    0.059790
    40  H    0.074542
    41  H    0.031658
    42  C   -0.118190
    43  O   -0.263115
    44  C    0.158261
    45  H    0.132467
    46  N   -0.116099
    47  O   -0.343641
    48  C    0.338118
    49  H    0.046538
    50  C    0.157845
    51  C    0.039694
    52  N   -0.275969
    53  H    0.034174
    54  H    0.042851
    55  H    0.026578
    56  H    0.124123
    57  H    0.114673
    58  N   -0.059620
    59  C    0.087552
    60  C    0.246139
    61  N   -0.270543
    62  H    0.040854
    63  C    0.168062
    64  N   -0.308933
    65  H    0.036694
    66  C    0.138534
    67  N   -0.271485
    68  C    0.032456
    69  C    0.178907
    70  N   -0.313093
 Sum of Mulliken charges =  -0.00000

 Dipole moment (field-independent basis, Debye):
    X=              9.3279    Y=              5.6840    Z=              0.6728  Tot=             10.9440
 Quadrupole moment (field-independent basis, Debye-Ang):
   XX=           -162.5911   YY=           -211.4982   ZZ=           -250.4453
   XY=             -5.4530   XZ=             -3.8041   YZ=             -1.8852

 Normal termination of Gaussian 16 at Fri Jan 26 04:20:22 2018.
