 Gaussian 16, Revision A.03,
 Gaussian 16:  EM64L-G16RevA.03 25-Dec-2016

 ---------------------------------------
 #p wb97xd/cc-pvdz sp scf=(maxcycles=20)
 ---------------------------------------

 ------------------
 Base pair stacking
 ------------------
 Symbolic Z-matrix:
 Charge =  0 Multiplicity = 1

                         Standard orientation:
 ---------------------------------------------------------------------
 Center     Atomic      Atomic             Coordinates (Angstroms)
 Number     Number       Type             X           Y           Z
 ---------------------------------------------------------------------
      1          7           0        5.244363   -1.909789   -1.415278
      2          6           0        6.655490   -1.479568   -1.456007
      3          6           0        3.045011   -1.922171   -1.414664
      4          7           0        3.440597   -3.245893   -1.288121
      5          6           0        4.749791   -3.185452   -1.293552
      6          1           0        5.410648   -4.048803   -1.210914
      7          7           0        1.733349    0.029141   -1.601399
      8          6           0        2.884989    0.705288   -1.665685
      9          1           0        2.785194    1.784946   -1.768844
     10          7           0        4.135519    0.250131   -1.621883
     11          6           0        4.145798   -1.087032   -1.494151
     12          6           0        1.777399   -1.314982   -1.472996
     13          7           0        0.628877   -1.991682   -1.408651
     14          1           0        0.613892   -2.987645   -1.313522
     15          1           0       -0.255266   -1.526441   -1.453322
     16          1           0        7.113772   -1.908378   -2.234650
     17          1           0        6.699041   -0.485479   -1.550958
     18          1           0        7.113829   -1.752325   -0.610117
     19          7           0        3.860164    3.031534    1.193495
     20          6           0        2.557351    2.594793    1.193741
     21          6           0        4.297133    4.413733    0.911893
     22          7           0       -0.831156    3.239518    0.788711
     23          1           0       -1.690049    2.730585    0.839217
     24          1           0       -0.892645    4.212012    0.562465
     25          7           0        1.466296    3.348886    0.938819
     26          6           0        0.350448    2.645443    1.014074
     27          7           0        0.304432    1.305895    1.315744
     28          1           0       -0.594012    0.849285    1.351324
     29          6           0        1.414389    0.510173    1.581595
     30          8           0        1.263485   -0.689584    1.843432
     31          6           0        2.620501    1.251937    1.504484
     32          7           0        3.936477    0.853657    1.695490
     33          6           0        4.634488    1.939589    1.501266
     34          1           0        5.721173    1.999937    1.570299
     35          1           0        4.904138    4.417956    0.117959
     36          1           0        3.497410    4.981613    0.721583
     37          1           0        4.783245    4.779479    1.704816
     38          1           0       -5.302145   -0.970779    0.740122
     39          1           0       -5.354109   -0.848094    2.497084
     40          1           0       -4.390541    0.295953    1.562165
     41          1           0       -2.795261   -4.888203    1.971331
     42          6           0       -2.657452   -3.809242    1.900061
     43          8           0       -0.289229   -3.921271    1.977920
     44          6           0       -1.331473   -3.271108    1.901701
     45          1           0       -0.349338   -1.478202    1.805551
     46          7           0       -1.269479   -1.895419    1.807476
     47          8           0       -2.170317    0.182135    1.635765
     48          6           0       -2.325563   -1.023779    1.715376
     49          1           0       -4.735893   -3.343317    1.806065
     50          6           0       -3.707501   -2.984526    1.811426
     51          6           0       -4.730955   -0.727024    1.623523
     52          7           0       -3.571884   -1.618645    1.720057
     53          1           0       -4.938361    4.251071   -2.189496
     54          1           0       -3.667596    4.110259   -1.175879
     55          1           0       -5.187722    4.124355   -0.581642
     56          1           0       -2.935042   -2.870460   -1.609793
     57          1           0       -4.555469   -2.381295   -1.822010
     58          7           0       -3.602318   -2.126902   -1.654687
     59          6           0       -3.238321   -0.852433   -1.498505
     60          6           0       -3.609403    1.494485   -1.371922
     61          7           0       -2.322139    1.806614   -1.148415
     62          1           0       -0.511115    0.869530   -0.941838
     63          6           0       -1.573278    0.706050   -1.118889
     64          7           0       -1.935964   -0.571302   -1.275097
     65          1           0       -6.770112    2.005141   -1.820602
     66          6           0       -5.775981    1.573553   -1.700720
     67          7           0       -5.507865    0.292022   -1.759722
     68          6           0       -4.137520    0.228044   -1.552847
     69          6           0       -4.611831    3.828669   -1.343946
     70          7           0       -4.673587    2.359436   -1.468663
 ---------------------------------------------------------------------

 SCF Done:  E(RwB97XD) =  -2048.74461178     A.U. after   15 cycles

 The electronic state is 1-A.
 Alpha  occ. eigenvalues --  -19.25384 -19.21629 -19.20295 -14.52785 -14.52134
 Alpha  occ. eigenvalues --  -14.48900 -14.48536 -14.48241 -14.47444 -14.46478
 Alpha  occ. eigenvalues --  -14.45739 -14.45682 -14.44715 -14.44675 -14.42505
 Alpha  occ. eigenvalues --  -14.41607 -14.40942 -14.40557 -14.40540 -14.40097
 Alpha  occ. eigenvalues --  -10.45081 -10.40736 -10.40435 -10.39763 -10.38302
 Alpha  occ. eigenvalues --  -10.37898 -10.37648 -10.37561 -10.36143 -10.35338
 Alpha  occ. eigenvalues --  -10.34738 -10.34312 -10.34020 -10.33637 -10.33039
 Alpha  occ. eigenvalues --  -10.33025 -10.32929 -10.32760 -10.30959 -10.30775
 Alpha  occ. eigenvalues --  -10.30427 -10.28166 -10.27742  -1.19067  -1.15520
 Alpha  occ. eigenvalues --   -1.12839  -1.12642  -1.10853  -1.10294  -1.09754
 Alpha  occ. eigenvalues --   -1.09014  -1.08113  -1.05342  -1.04825  -1.02093
 Alpha  occ. eigenvalues --   -1.01333  -1.00310  -0.99111  -0.98200  -0.97310
 Alpha  occ. eigenvalues --   -0.96552  -0.96307  -0.92514  -0.90840  -0.87997
 Alpha  occ. eigenvalues --   -0.86291  -0.83788  -0.83499  -0.83254  -0.82254
 Alpha  occ. eigenvalues --   -0.81904  -0.78617  -0.77431  -0.75313  -0.74275
 Alpha  occ. eigenvalues --   -0.73179  -0.72981  -0.72674  -0.70894  -0.70716
 Alpha  occ. eigenvalues --   -0.67332  -0.66886  -0.66202  -0.66079  -0.64723
 Alpha  occ. eigenvalues --   -0.64161  -0.63491  -0.62518  -0.62436  -0.61267
 Alpha  occ. eigenvalues --   -0.60926  -0.60564  -0.60328  -0.59663  -0.59377
 Alpha  occ. eigenvalues --   -0.59207  -0.57795  -0.56639  -0.56263  -0.55800
 Alpha  occ. eigenvalues --   -0.55736  -0.55707  -0.55377  -0.54608  -0.54230
 Alpha  occ. eigenvalues --   -0.53955  -0.53504  -0.53366  -0.53139  -0.52831
 Alpha  occ. eigenvalues --   -0.52603  -0.52065  -0.51382  -0.50404  -0.50141
 Alpha  occ. eigenvalues --   -0.49855  -0.49819  -0.49731  -0.49063  -0.48702
 Alpha  occ. eigenvalues --   -0.48516  -0.48027  -0.47869  -0.47308  -0.47027
 Alpha  occ. eigenvalues --   -0.46543  -0.45673  -0.45317  -0.44235  -0.43662
 Alpha  occ. eigenvalues --   -0.41227  -0.40869  -0.39085  -0.38096  -0.37989
 Alpha  occ. eigenvalues --   -0.37110  -0.36951  -0.36613  -0.35404  -0.35149
 Alpha  occ. eigenvalues --   -0.34836  -0.33335  -0.33230  -0.33036  -0.32772
 Alpha  occ. eigenvalues --   -0.32354  -0.32110  -0.31768  -0.31590  -0.30588
 Alpha  occ. eigenvalues --   -0.30472  -0.30173  -0.25577  -0.24962
 Alpha virt. eigenvalues --    0.02790   0.04116   0.06338   0.08319   0.08929
 Alpha virt. eigenvalues --    0.09450   0.10129   0.10231   0.11293   0.11462
 Alpha virt. eigenvalues --    0.12567   0.14116   0.14750   0.14964   0.15297

 Mulliken charges:
               1
     1  N   -0.313725
     2  C    0.183097
     3  C    0.047501
     4  N   -0.261424
     5  C    0.138739
     6  H    0.026008
     7  N   -0.297499
     8  C    0.137336
     9  H    0.012531
    10  N   -0.282393
    11  C    0.262972
    12  C    0.108345
    13  N   -0.064088
    14  H    0.109222
    15  H    0.080146
    16  H    0.022190
    17  H    0.031945
    18  H    0.029052
    19  N   -0.307893
    20  C    0.241952
    21  C    0.180587
    22  N   -0.089447
    23  H    0.109556
    24  H    0.111514
    25  N   -0.307699
    26  C    0.218520
    27  N   -0.145371
    28  H    0.119179
    29  C    0.192187
    30  O   -0.324251
    31  C   -0.020054
    32  N   -0.222642
    33  C    0.130497
    34  H    0.020350
    35  H    0.028295
    36  H    0.028121
    37  H    0.023832
    38  H    0.056041
    39  H    0.060141
    40  H    0.074183
    41  H    0.029771
    42  C   -0.115801
    43  O   -0.261148
    44  C    0.176327
    45  H    0.132683
    46  N   -0.127651
    47  O   -0.342024
    48  C    0.342759
    49  H    0.043959
    50  C    0.163241
    51  C    0.040513
    52  N   -0.282316
    53  H    0.036518
    54  H    0.034851
    55  H    0.031297
    56  H    0.118792
    57  H    0.117352
    58  N   -0.059273
    59  C    0.084699
    60  C    0.258508
    61  N   -0.284918
    62  H    0.050379
    63  C    0.165729
    64  N   -0.306432
    65  H    0.039614
    66  C    0.138673
    67  N   -0.262583
    68  C    0.023589
    69  C    0.179861
    70  N   -0.314524
 Sum of Mulliken charges =  -0.00000

 Dipole moment (field-independent basis, Debye):
    X=             -9.0865    Y=              5.4817    Z=             -2.1688  Tot=             10.8313
 Quadrupole moment (field-independent basis, Debye-Ang):
   XX=           -164.0380   YY=           -212.8380   ZZ=           -254.2916
   XY=              5.6009   XZ=             -9.1595   YZ=              7.8930

 Normal termination of Gaussian 16 at Thu Jan 25 23:44:58 2018.
