 Gaussian 16, Revision A.03,
 Gaussian 16:  EM64L-G16RevA.03 25-Dec-2016

 ---------------------------------------
 #p wb97xd/cc-pvdz sp scf=(maxcycles=20)
 ---------------------------------------

 ------------------
 Base pair stacking
 ------------------
 Symbolic Z-matrix:
 Charge =  0 Multiplicity = 1

                         Standard orientation:
 ---------------------------------------------------------------------
 Center     Atomic      Atomic             Coordinates (Angstroms)
 Number     Number       Type             X           Y           Z
 ---------------------------------------------------------------------
      1          7           0       -6.240399   -1.751978    0.686947
      2          6           0       -7.648625   -1.322720    0.790052
      3          6           0       -4.044533   -1.816310    0.793546
      4          7           0       -4.441526   -3.023012    0.235853
      5          6           0       -5.748570   -2.935946    0.193954
      6          1           0       -6.409704   -3.713282   -0.190235
      7          7           0       -2.731954   -0.055054    1.652624
      8          6           0       -3.880737    0.593917    1.868780
      9          1           0       -3.779445    1.583489    2.312338
     10          7           0       -5.129990    0.205833    1.620449
     11          6           0       -5.142310   -1.022486    1.076852
     12          6           0       -2.777996   -1.288953    1.104489
     13          7           0       -1.632324   -1.938351    0.887948
     14          1           0       -1.618899   -2.853787    0.484208
     15          1           0       -0.748867   -1.532177    1.121777
     16          1           0       -8.152351   -1.963709    1.369341
     17          1           0       -7.690589   -0.408312    1.191580
     18          1           0       -8.061176   -1.304248   -0.120694
     19          7           0       -2.692846    3.299360   -1.711780
     20          6           0       -1.414955    2.802088   -1.623675
     21          6           0       -3.060321    4.727556   -1.634930
     22          7           0        1.996863    3.326425   -1.241192
     23          1           0        2.828389    2.773003   -1.202132
     24          1           0        2.106318    4.316738   -1.151519
     25          7           0       -0.289357    3.528789   -1.453464
     26          6           0        0.788863    2.766659   -1.406363
     27          7           0        0.768475    1.397425   -1.517263
     28          1           0        1.642048    0.895842   -1.469889
     29          6           0       -0.378032    0.628965   -1.692888
     30          8           0       -0.286874   -0.601701   -1.781631
     31          6           0       -1.544390    1.433798   -1.745393
     32          7           0       -2.876726    1.079179   -1.906675
     33          6           0       -3.519243    2.215267   -1.880527
     34          1           0       -4.600176    2.319772   -1.980192
     35          1           0       -3.677190    4.873616   -0.862315
     36          1           0       -2.234525    5.275680   -1.508865
     37          1           0       -3.515492    5.002332   -2.481171
     38          1           0        6.238960   -1.054352   -0.511792
     39          1           0        6.321608   -1.182222   -2.267205
     40          1           0        5.406758    0.128599   -1.521462
     41          1           0        3.546642   -4.975031   -1.237266
     42          6           0        3.464850   -3.891204   -1.320068
     43          8           0        1.095309   -3.894087   -1.431423
     44          6           0        2.169171   -3.292779   -1.424661
     45          1           0        1.281529   -1.457121   -1.600183
     46          7           0        2.178375   -1.916114   -1.524523
     47          8           0        3.184847    0.117129   -1.625246
     48          6           0        3.277497   -1.094280   -1.532635
     49          1           0        5.563428   -3.521576   -1.248183
     50          6           0        4.555522   -3.115947   -1.325191
     51          6           0        5.693672   -0.908640   -1.432387
     52          7           0        4.490728   -1.745688   -1.428055
     53          1           0        3.925549    3.605744    3.879420
     54          1           0        2.712063    3.821707    2.810343
     55          1           0        4.262885    3.985661    2.328521
     56          1           0        1.908846   -2.921021    0.981177
     57          1           0        3.518312   -2.562560    1.418499
     58          7           0        2.577670   -2.245641    1.292110
     59          6           0        2.231621   -0.978438    1.527992
     60          6           0        2.625196    1.279395    2.167549
     61          7           0        1.354484    1.676798    1.989261
     62          1           0       -0.448644    0.896129    1.406286
     63          6           0        0.600909    0.659790    1.576095
     64          7           0        0.945632   -0.610108    1.339260
     65          1           0        5.759555    1.546840    2.913520
     66          6           0        4.770678    1.198917    2.613492
     67          7           0        4.490944   -0.029210    2.251369
     68          6           0        3.133785    0.008085    1.965934
     69          6           0        3.643566    3.478950    2.928416
     70          7           0        3.688268    2.044120    2.585972
 ---------------------------------------------------------------------

 SCF Done:  E(RwB97XD) =  -2048.74135043     A.U. after   15 cycles

 The electronic state is 1-A.
 Alpha  occ. eigenvalues --  -19.26313 -19.22971 -19.20843 -14.52972 -14.51793
 Alpha  occ. eigenvalues --  -14.48938 -14.48171 -14.48163 -14.47420 -14.47212
 Alpha  occ. eigenvalues --  -14.47096 -14.44884 -14.43513 -14.43507 -14.42282
 Alpha  occ. eigenvalues --  -14.41467 -14.40955 -14.40789 -14.40241 -14.39537
 Alpha  occ. eigenvalues --  -10.45928 -10.41525 -10.40889 -10.39159 -10.38500
 Alpha  occ. eigenvalues --  -10.38446 -10.37398 -10.36443 -10.35393 -10.34939
 Alpha  occ. eigenvalues --  -10.34727 -10.34543 -10.33469 -10.33401 -10.33367
 Alpha  occ. eigenvalues --  -10.32709 -10.32456 -10.31976 -10.31796 -10.31064
 Alpha  occ. eigenvalues --  -10.30489 -10.28296 -10.27858  -1.19887  -1.14511
 Alpha  occ. eigenvalues --   -1.13899  -1.13444  -1.10765  -1.10719  -1.09865
 Alpha  occ. eigenvalues --   -1.08835  -1.08551  -1.04324  -1.04143  -1.02983
 Alpha  occ. eigenvalues --   -1.00333  -1.00096  -0.99737  -0.98770  -0.96754
 Alpha  occ. eigenvalues --   -0.96380  -0.96031  -0.91966  -0.91699  -0.86932
 Alpha  occ. eigenvalues --   -0.85285  -0.84305  -0.83984  -0.83337  -0.82681
 Alpha  occ. eigenvalues --   -0.81733  -0.79473  -0.76356  -0.74845  -0.74067
 Alpha  occ. eigenvalues --   -0.73983  -0.73832  -0.72264  -0.70414  -0.69764
 Alpha  occ. eigenvalues --   -0.67671  -0.67028  -0.66147  -0.65660  -0.64890
 Alpha  occ. eigenvalues --   -0.64064  -0.63645  -0.62945  -0.62055  -0.62020
 Alpha  occ. eigenvalues --   -0.60251  -0.60014  -0.59879  -0.59768  -0.59083
 Alpha  occ. eigenvalues --   -0.58815  -0.58711  -0.56785  -0.56362  -0.55967
 Alpha  occ. eigenvalues --   -0.55849  -0.54903  -0.54823  -0.54701  -0.54429
 Alpha  occ. eigenvalues --   -0.53952  -0.53744  -0.53232  -0.53120  -0.52914
 Alpha  occ. eigenvalues --   -0.52781  -0.52129  -0.51218  -0.50485  -0.50118
 Alpha  occ. eigenvalues --   -0.49918  -0.49625  -0.49321  -0.49191  -0.48923
 Alpha  occ. eigenvalues --   -0.48529  -0.48434  -0.48186  -0.47912  -0.47674
 Alpha  occ. eigenvalues --   -0.46344  -0.45779  -0.44540  -0.44410  -0.44196
 Alpha  occ. eigenvalues --   -0.40459  -0.40015  -0.39834  -0.37540  -0.37479
 Alpha  occ. eigenvalues --   -0.37450  -0.36794  -0.36529  -0.36021  -0.34482
 Alpha  occ. eigenvalues --   -0.34073  -0.33999  -0.33541  -0.33032  -0.32865
 Alpha  occ. eigenvalues --   -0.32731  -0.32657  -0.32498  -0.31994  -0.30278
 Alpha  occ. eigenvalues --   -0.29783  -0.29321  -0.25758  -0.24987
 Alpha virt. eigenvalues --    0.02206   0.04704   0.07456   0.08272   0.08679
 Alpha virt. eigenvalues --    0.08994   0.09529   0.11184   0.11735   0.11841
 Alpha virt. eigenvalues --    0.12602   0.14336   0.14535   0.14934   0.15294

 Mulliken charges:
               1
     1  N   -0.311737
     2  C    0.181266
     3  C    0.039638
     4  N   -0.257793
     5  C    0.132956
     6  H    0.024285
     7  N   -0.298102
     8  C    0.138704
     9  H    0.007608
    10  N   -0.293380
    11  C    0.246029
    12  C    0.121340
    13  N   -0.052251
    14  H    0.113483
    15  H    0.088954
    16  H    0.023902
    17  H    0.033204
    18  H    0.024934
    19  N   -0.312439
    20  C    0.249625
    21  C    0.181067
    22  N   -0.122201
    23  H    0.114817
    24  H    0.116447
    25  N   -0.309073
    26  C    0.244880
    27  N   -0.142801
    28  H    0.114085
    29  C    0.180311
    30  O   -0.319744
    31  C   -0.004324
    32  N   -0.224489
    33  C    0.130532
    34  H    0.028004
    35  H    0.029207
    36  H    0.028503
    37  H    0.025134
    38  H    0.065693
    39  H    0.059031
    40  H    0.075216
    41  H    0.033154
    42  C   -0.104878
    43  O   -0.262594
    44  C    0.129204
    45  H    0.135280
    46  N   -0.109692
    47  O   -0.344585
    48  C    0.344854
    49  H    0.050762
    50  C    0.158440
    51  C    0.042045
    52  N   -0.282378
    53  H    0.032827
    54  H    0.044296
    55  H    0.023322
    56  H    0.130497
    57  H    0.114375
    58  N   -0.067809
    59  C    0.083198
    60  C    0.240162
    61  N   -0.266193
    62  H    0.041129
    63  C    0.169378
    64  N   -0.305776
    65  H    0.033433
    66  C    0.136259
    67  N   -0.270822
    68  C    0.034886
    69  C    0.179605
    70  N   -0.312897
 Sum of Mulliken charges =  -0.00000

 Dipole moment (field-independent basis, Debye):
    X=              9.5193    Y=              5.4138    Z=              0.7523  Tot=             10.9769
 Quadrupole moment (field-independent basis, Debye-Ang):
   XX=           -158.2136   YY=           -212.0468   ZZ=           -249.2719
   XY=             -4.8856   XZ=              3.6357   YZ=             -2.3500

 Normal termination of Gaussian 16 at Fri Jan 26 09:11:00 2018.
