 Gaussian 16, Revision A.03,
 Gaussian 16:  EM64L-G16RevA.03 25-Dec-2016

 ---------------------------------------
 #p wb97xd/cc-pvdz sp scf=(maxcycles=20)
 ---------------------------------------

 ------------------
 Base pair stacking
 ------------------
 Symbolic Z-matrix:
 Charge =  0 Multiplicity = 1

                         Standard orientation:
 ---------------------------------------------------------------------
 Center     Atomic      Atomic             Coordinates (Angstroms)
 Number     Number       Type             X           Y           Z
 ---------------------------------------------------------------------
      1          7           0       -5.598119   -1.898514    1.198490
      2          6           0       -7.005886   -1.468727    1.305601
      3          6           0       -3.398961   -1.929979    1.203412
      4          7           0       -3.804622   -3.210465    0.856268
      5          6           0       -5.113302   -3.140262    0.867197
      6          1           0       -5.780723   -3.971860    0.639294
      7          7           0       -2.072460   -0.048821    1.717839
      8          6           0       -3.218884    0.617216    1.890135
      9          1           0       -3.110860    1.663579    2.172442
     10          7           0       -4.472836    0.186782    1.766635
     11          6           0       -4.493317   -1.110164    1.417414
     12          6           0       -2.126766   -1.352210    1.366679
     13          7           0       -0.983460   -2.018752    1.194226
     14          1           0       -0.976087   -2.984957    0.934203
     15          1           0       -0.095812   -1.575296    1.318998
     16          1           0       -7.471419   -2.017447    2.000125
     17          1           0       -7.041847   -0.504091    1.565030
     18          1           0       -7.462290   -1.592413    0.424465
     19          7           0       -3.465514    3.170125   -1.405701
     20          6           0       -2.169427    2.714066   -1.391120
     21          6           0       -3.878774    4.574045   -1.208428
     22          7           0        1.232534    3.330537   -1.061883
     23          1           0        2.083154    2.806142   -1.088416
     24          1           0        1.310947    4.314376   -0.898719
     25          7           0       -1.064549    3.465813   -1.195702
     26          6           0        0.039826    2.741763   -1.237094
     27          7           0        0.062622    1.385188   -1.453212
     28          1           0        0.953731    0.913343   -1.468580
     29          6           0       -1.061893    0.591500   -1.656683
     30          8           0       -0.931716   -0.624671   -1.842997
     31          6           0       -2.255924    1.355318   -1.614977
     32          7           0       -3.579686    0.966172   -1.767045
     33          6           0       -4.259319    2.072971   -1.635474
     34          1           0       -5.345666    2.145677   -1.697360
     35          1           0       -4.476922    4.638175   -0.410357
     36          1           0       -3.068670    5.140393   -1.062707
     37          1           0       -4.368063    4.896142   -2.018161
     38          1           0        5.640707   -0.937075   -0.789656
     39          1           0        5.675226   -0.927199   -2.551294
     40          1           0        4.739077    0.288816   -1.681628
     41          1           0        3.062522   -4.885459   -1.743512
     42          6           0        2.941568   -3.802142   -1.739810
     43          8           0        0.571227   -3.882097   -1.786705
     44          6           0        1.623790   -3.244674   -1.762500
     45          1           0        0.669525   -1.434240   -1.771042
     46          7           0        1.583291   -1.864977   -1.755551
     47          8           0        2.516729    0.205046   -1.725645
     48          6           0        2.653159   -1.005753   -1.729761
     49          1           0        5.027600   -3.363526   -1.696469
     50          6           0        4.004667   -2.989861   -1.714418
     51          6           0        5.063565   -0.741151   -1.681050
     52          7           0        3.890375   -1.619002   -1.708966
     53          1           0        4.630276    3.956832    3.025614
     54          1           0        3.363367    3.998388    1.998325
     55          1           0        4.886436    4.098094    1.420038
     56          1           0        2.572196   -2.950106    1.258138
     57          1           0        4.195481   -2.517514    1.554633
     58          7           0        3.245244   -2.230374    1.428839
     59          6           0        2.892350   -0.944561    1.486376
     60          6           0        3.283046    1.387196    1.754690
     61          7           0        1.999449    1.743575    1.581982
     62          1           0        0.181922    0.870092    1.215600
     63          6           0        1.241857    0.670013    1.366541
     64          7           0        1.593415   -0.618639    1.308543
     65          1           0        6.445558    1.787958    2.293250
     66          6           0        5.448561    1.391209    2.099562
     67          7           0        5.169789    0.120216    1.942841
     68          6           0        3.799998    0.103727    1.723453
     69          6           0        4.304463    3.684394    2.120280
     70          7           0        4.353717    2.214473    1.998161
 ---------------------------------------------------------------------

 SCF Done:  E(RwB97XD) =  -2048.74627585     A.U. after   15 cycles

 The electronic state is 1-A.
 Alpha  occ. eigenvalues --  -19.25794 -19.22094 -19.20550 -14.52435 -14.52401
 Alpha  occ. eigenvalues --  -14.48747 -14.48426 -14.48126 -14.47822 -14.46867
 Alpha  occ. eigenvalues --  -14.46502 -14.45449 -14.44277 -14.44229 -14.41954
 Alpha  occ. eigenvalues --  -14.41929 -14.40780 -14.40768 -14.40363 -14.39816
 Alpha  occ. eigenvalues --  -10.45444 -10.41130 -10.40207 -10.39950 -10.38156
 Alpha  occ. eigenvalues --  -10.37993 -10.37968 -10.37126 -10.35623 -10.34982
 Alpha  occ. eigenvalues --  -10.34970 -10.34267 -10.33930 -10.33474 -10.33237
 Alpha  occ. eigenvalues --  -10.32753 -10.32631 -10.32580 -10.31299 -10.30929
 Alpha  occ. eigenvalues --  -10.30418 -10.28024 -10.27943  -1.19391  -1.15135
 Alpha  occ. eigenvalues --   -1.13141  -1.13089  -1.10709  -1.10534  -1.09372
 Alpha  occ. eigenvalues --   -1.09261  -1.08470  -1.04864  -1.04518  -1.02471
 Alpha  occ. eigenvalues --   -1.00963  -0.99965  -0.99625  -0.98488  -0.96847
 Alpha  occ. eigenvalues --   -0.96543  -0.96351  -0.92202  -0.91182  -0.87570
 Alpha  occ. eigenvalues --   -0.85894  -0.84050  -0.83525  -0.83353  -0.82471
 Alpha  occ. eigenvalues --   -0.81767  -0.78955  -0.77014  -0.74811  -0.74542
 Alpha  occ. eigenvalues --   -0.73574  -0.73346  -0.72412  -0.70554  -0.70396
 Alpha  occ. eigenvalues --   -0.67298  -0.66851  -0.66543  -0.65812  -0.64469
 Alpha  occ. eigenvalues --   -0.64272  -0.63755  -0.62644  -0.62228  -0.61655
 Alpha  occ. eigenvalues --   -0.60565  -0.60181  -0.60088  -0.59566  -0.59386
 Alpha  occ. eigenvalues --   -0.59297  -0.58259  -0.56626  -0.56137  -0.55944
 Alpha  occ. eigenvalues --   -0.55770  -0.55318  -0.54999  -0.54511  -0.54280
 Alpha  occ. eigenvalues --   -0.53803  -0.53635  -0.53392  -0.53152  -0.52930
 Alpha  occ. eigenvalues --   -0.52716  -0.52347  -0.51255  -0.50203  -0.50116
 Alpha  occ. eigenvalues --   -0.49857  -0.49601  -0.49477  -0.49182  -0.48829
 Alpha  occ. eigenvalues --   -0.48424  -0.48311  -0.48128  -0.47645  -0.47311
 Alpha  occ. eigenvalues --   -0.46415  -0.45671  -0.45213  -0.44342  -0.43910
 Alpha  occ. eigenvalues --   -0.40699  -0.40594  -0.39392  -0.37718  -0.37565
 Alpha  occ. eigenvalues --   -0.37226  -0.37120  -0.36588  -0.35837  -0.34857
 Alpha  occ. eigenvalues --   -0.34388  -0.33657  -0.33230  -0.32992  -0.32908
 Alpha  occ. eigenvalues --   -0.32623  -0.32338  -0.32099  -0.31806  -0.30381
 Alpha  occ. eigenvalues --   -0.30073  -0.29927  -0.25569  -0.25040
 Alpha virt. eigenvalues --    0.02666   0.04176   0.07093   0.08357   0.08567
 Alpha virt. eigenvalues --    0.09317   0.09824   0.10570   0.11509   0.11566
 Alpha virt. eigenvalues --    0.12423   0.14207   0.14589   0.14915   0.15161

 Mulliken charges:
               1
     1  N   -0.313119
     2  C    0.181971
     3  C    0.044899
     4  N   -0.258624
     5  C    0.136508
     6  H    0.025082
     7  N   -0.298608
     8  C    0.139715
     9  H    0.008029
    10  N   -0.289417
    11  C    0.257613
    12  C    0.114833
    13  N   -0.060005
    14  H    0.112044
    15  H    0.081906
    16  H    0.022978
    17  H    0.032161
    18  H    0.026925
    19  N   -0.311871
    20  C    0.247740
    21  C    0.180774
    22  N   -0.106849
    23  H    0.112370
    24  H    0.113933
    25  N   -0.309156
    26  C    0.235069
    27  N   -0.148454
    28  H    0.124189
    29  C    0.189048
    30  O   -0.321838
    31  C   -0.009992
    32  N   -0.225429
    33  C    0.131479
    34  H    0.023616
    35  H    0.028716
    36  H    0.028475
    37  H    0.024456
    38  H    0.059586
    39  H    0.059604
    40  H    0.073846
    41  H    0.030651
    42  C   -0.116872
    43  O   -0.262906
    44  C    0.166739
    45  H    0.132527
    46  N   -0.120855
    47  O   -0.343379
    48  C    0.338338
    49  H    0.045781
    50  C    0.161023
    51  C    0.040002
    52  N   -0.279854
    53  H    0.035331
    54  H    0.040374
    55  H    0.027503
    56  H    0.121610
    57  H    0.115291
    58  N   -0.060031
    59  C    0.085754
    60  C    0.244813
    61  N   -0.270894
    62  H    0.042580
    63  C    0.163096
    64  N   -0.305725
    65  H    0.037476
    66  C    0.138568
    67  N   -0.269496
    68  C    0.034358
    69  C    0.177893
    70  N   -0.313898
 Sum of Mulliken charges =  -0.00000

 Dipole moment (field-independent basis, Debye):
    X=              9.1496    Y=              5.5723    Z=              1.3597  Tot=             10.7988
 Quadrupole moment (field-independent basis, Debye-Ang):
   XX=           -162.2108   YY=           -211.8363   ZZ=           -252.4844
   XY=             -5.2008   XZ=             -4.3220   YZ=             -4.7262

 Normal termination of Gaussian 16 at Fri Jan 26 15:12:41 2018.
