 Gaussian 16, Revision A.03,
 Gaussian 16:  EM64L-G16RevA.03 25-Dec-2016

 ---------------------------------------
 #p wb97xd/cc-pvdz sp scf=(maxcycles=20)
 ---------------------------------------

 ------------------
 Base pair stacking
 ------------------
 Symbolic Z-matrix:
 Charge =  0 Multiplicity = 1

                         Standard orientation:
 ---------------------------------------------------------------------
 Center     Atomic      Atomic             Coordinates (Angstroms)
 Number     Number       Type             X           Y           Z
 ---------------------------------------------------------------------
      1          7           0        4.919627   -1.953720   -1.576612
      2          6           0        6.334299   -1.536444   -1.627478
      3          6           0        2.720831   -1.943601   -1.526334
      4          7           0        3.104025   -3.276068   -1.476954
      5          6           0        4.413376   -3.228832   -1.509229
      6          1           0        5.066024   -4.102023   -1.486140
      7          7           0        1.427669    0.028073   -1.582646
      8          6           0        2.585215    0.694810   -1.638469
      9          1           0        2.495466    1.779315   -1.683781
     10          7           0        3.831146    0.225218   -1.646695
     11          6           0        3.829021   -1.116787   -1.588023
     12          6           0        1.459237   -1.321258   -1.524418
     13          7           0        0.304798   -1.988585   -1.468631
     14          1           0        0.280587   -2.987921   -1.424418
     15          1           0       -0.574758   -1.512629   -1.469136
     16          1           0        6.770178   -1.929208   -2.437367
     17          1           0        6.387054   -0.539285   -1.672261
     18          1           0        6.808262   -1.857125   -0.807408
     19          7           0        4.192302    2.975398    1.006413
     20          6           0        2.885774    2.551451    1.042413
     21          6           0        4.636550    4.345552    0.680763
     22          7           0       -0.503736    3.218281    0.684188
     23          1           0       -1.366157    2.719175    0.764000
     24          1           0       -0.560552    4.185151    0.433871
     25          7           0        1.797069    3.309234    0.788382
     26          6           0        0.676422    2.618821    0.902803
     27          7           0        0.623807    1.288038    1.240081
     28          1           0       -0.277966    0.841223    1.304349
     29          6           0        1.731240    0.488736    1.505753
     30          8           0        1.574286   -0.702317    1.801538
     31          6           0        2.942449    1.216545    1.386792
     32          7           0        4.258088    0.810600    1.563447
     33          6           0        4.962249    1.884330    1.327971
     34          1           0        6.050552    1.935912    1.375067
     35          1           0        5.228412    4.323344   -0.124230
     36          1           0        3.838627    4.916042    0.490725
     37          1           0        5.140955    4.726968    1.454654
     38          1           0       -5.013385   -0.948339    0.828965
     39          1           0       -5.030896   -0.779745    2.582797
     40          1           0       -4.074744    0.330342    1.600525
     41          1           0       -2.519752   -4.856708    2.114695
     42          6           0       -2.373400   -3.781332    2.012771
     43          8           0       -0.005256   -3.914261    2.049206
     44          6           0       -1.042732   -3.256214    1.975581
     45          1           0       -0.046146   -1.475999    1.814398
     46          7           0       -0.969883   -1.884081    1.844404
     47          8           0       -1.854664    0.196958    1.635515
     48          6           0       -2.019461   -1.004929    1.749410
     49          1           0       -4.448873   -3.297888    1.945578
     50          6           0       -3.417311   -2.949051    1.922337
     51          6           0       -4.423331   -0.687358    1.694879
     52          7           0       -3.270898   -1.587373    1.792907
     53          1           0       -5.206934    4.342798   -1.800573
     54          1           0       -3.915557    4.136918   -0.824838
     55          1           0       -5.421779    4.135913   -0.196060
     56          1           0       -3.272519   -2.819293   -1.633034
     57          1           0       -4.891596   -2.303265   -1.782744
     58          7           0       -3.932097   -2.067608   -1.624436
     59          6           0       -3.550199   -0.806675   -1.411431
     60          6           0       -3.891583    1.534262   -1.156131
     61          7           0       -2.596183    1.821256   -0.946399
     62          1           0       -0.791795    0.856280   -0.829663
     63          6           0       -1.859437    0.713030   -0.990523
     64          7           0       -2.240066   -0.550790   -1.203736
     65          1           0       -7.055484    2.099706   -1.505614
     66          6           0       -6.063916    1.652356   -1.430803
     67          7           0       -5.811812    0.372898   -1.561592
     68          6           0       -4.438011    0.284305   -1.389680
     69          6           0       -4.866456    3.874044   -0.985500
     70          7           0       -4.947729    2.413906   -1.183998
 ---------------------------------------------------------------------

 SCF Done:  E(RwB97XD) =  -2048.74596659     A.U. after   15 cycles

 The electronic state is 1-A.
 Alpha  occ. eigenvalues --  -19.25220 -19.21447 -19.20267 -14.52857 -14.52015
 Alpha  occ. eigenvalues --  -14.49186 -14.48550 -14.48222 -14.47299 -14.46377
 Alpha  occ. eigenvalues --  -14.45782 -14.45641 -14.45016 -14.44944 -14.42820
 Alpha  occ. eigenvalues --  -14.41632 -14.40964 -14.40593 -14.40566 -14.40219
 Alpha  occ. eigenvalues --  -10.44925 -10.40718 -10.40673 -10.39581 -10.38349
 Alpha  occ. eigenvalues --  -10.37860 -10.37734 -10.37503 -10.36530 -10.35502
 Alpha  occ. eigenvalues --  -10.34620 -10.34294 -10.34024 -10.33660 -10.33150
 Alpha  occ. eigenvalues --  -10.33101 -10.32971 -10.32788 -10.30824 -10.30794
 Alpha  occ. eigenvalues --  -10.30316 -10.28236 -10.27738  -1.18955  -1.15615
 Alpha  occ. eigenvalues --   -1.12802  -1.12470  -1.10862  -1.10287  -1.09994
 Alpha  occ. eigenvalues --   -1.08890  -1.08077  -1.05580  -1.04976  -1.01943
 Alpha  occ. eigenvalues --   -1.01414  -1.00475  -0.99050  -0.98175  -0.97552
 Alpha  occ. eigenvalues --   -0.96588  -0.96308  -0.92654  -0.90709  -0.88148
 Alpha  occ. eigenvalues --   -0.86354  -0.83811  -0.83512  -0.83154  -0.82260
 Alpha  occ. eigenvalues --   -0.81893  -0.78480  -0.77605  -0.75510  -0.74279
 Alpha  occ. eigenvalues --   -0.73110  -0.72852  -0.72776  -0.71055  -0.70808
 Alpha  occ. eigenvalues --   -0.67532  -0.66831  -0.66183  -0.66078  -0.64867
 Alpha  occ. eigenvalues --   -0.64106  -0.63445  -0.62636  -0.62413  -0.61243
 Alpha  occ. eigenvalues --   -0.61029  -0.60742  -0.60407  -0.59808  -0.59330
 Alpha  occ. eigenvalues --   -0.59099  -0.57706  -0.56742  -0.56283  -0.55806
 Alpha  occ. eigenvalues --   -0.55726  -0.55671  -0.55534  -0.54757  -0.54236
 Alpha  occ. eigenvalues --   -0.53860  -0.53561  -0.53307  -0.53156  -0.52750
 Alpha  occ. eigenvalues --   -0.52590  -0.51977  -0.51381  -0.50507  -0.50256
 Alpha  occ. eigenvalues --   -0.49902  -0.49846  -0.49764  -0.48973  -0.48780
 Alpha  occ. eigenvalues --   -0.48470  -0.47967  -0.47911  -0.47344  -0.46965
 Alpha  occ. eigenvalues --   -0.46604  -0.45710  -0.45265  -0.44149  -0.43554
 Alpha  occ. eigenvalues --   -0.41391  -0.41000  -0.38944  -0.38256  -0.38144
 Alpha  occ. eigenvalues --   -0.37337  -0.36957  -0.36436  -0.35515  -0.35155
 Alpha  occ. eigenvalues --   -0.34988  -0.33634  -0.33307  -0.33040  -0.32656
 Alpha  occ. eigenvalues --   -0.32312  -0.32140  -0.31630  -0.31588  -0.30653
 Alpha  occ. eigenvalues --   -0.30537  -0.30181  -0.25858  -0.24864
 Alpha virt. eigenvalues --    0.02906   0.04028   0.06150   0.08142   0.09082
 Alpha virt. eigenvalues --    0.09560   0.10065   0.10280   0.11095   0.11452
 Alpha virt. eigenvalues --    0.12936   0.14170   0.14677   0.15059   0.15396

 Mulliken charges:
               1
     1  N   -0.314046
     2  C    0.184239
     3  C    0.051754
     4  N   -0.262780
     5  C    0.140344
     6  H    0.026449
     7  N   -0.291517
     8  C    0.128688
     9  H    0.015541
    10  N   -0.277030
    11  C    0.264194
    12  C    0.098666
    13  N   -0.067784
    14  H    0.108628
    15  H    0.079356
    16  H    0.021109
    17  H    0.032047
    18  H    0.030509
    19  N   -0.306754
    20  C    0.238283
    21  C    0.180604
    22  N   -0.099130
    23  H    0.109620
    24  H    0.112019
    25  N   -0.306856
    26  C    0.224333
    27  N   -0.131721
    28  H    0.111923
    29  C    0.183666
    30  O   -0.323165
    31  C   -0.013760
    32  N   -0.224530
    33  C    0.127756
    34  H    0.020038
    35  H    0.027885
    36  H    0.028320
    37  H    0.023825
    38  H    0.056334
    39  H    0.059608
    40  H    0.075268
    41  H    0.029502
    42  C   -0.115193
    43  O   -0.260086
    44  C    0.177767
    45  H    0.134029
    46  N   -0.129404
    47  O   -0.342209
    48  C    0.350017
    49  H    0.043166
    50  C    0.163394
    51  C    0.039301
    52  N   -0.282648
    53  H    0.035850
    54  H    0.035366
    55  H    0.032253
    56  H    0.119048
    57  H    0.119633
    58  N   -0.060299
    59  C    0.077504
    60  C    0.258561
    61  N   -0.287519
    62  H    0.035365
    63  C    0.186514
    64  N   -0.308251
    65  H    0.040270
    66  C    0.139313
    67  N   -0.259251
    68  C    0.019250
    69  C    0.181145
    70  N   -0.314323
 Sum of Mulliken charges =  -0.00000

 Dipole moment (field-independent basis, Debye):
    X=             -9.0880    Y=              5.4919    Z=             -2.1667  Tot=             10.8373
 Quadrupole moment (field-independent basis, Debye-Ang):
   XX=           -166.6682   YY=           -213.1113   ZZ=           -254.0650
   XY=              6.7755   XZ=            -13.1095   YZ=              8.8140

 Normal termination of Gaussian 16 at Fri Jan 26 05:29:31 2018.
