 Gaussian 16, Revision A.03,
 Gaussian 16:  EM64L-G16RevA.03 25-Dec-2016

 ---------------------------------------
 #p wb97xd/cc-pvdz sp scf=(maxcycles=20)
 ---------------------------------------

 ------------------
 Base pair stacking
 ------------------
 Symbolic Z-matrix:
 Charge =  0 Multiplicity = 1

                         Standard orientation:
 ---------------------------------------------------------------------
 Center     Atomic      Atomic             Coordinates (Angstroms)
 Number     Number       Type             X           Y           Z
 ---------------------------------------------------------------------
      1          7           0       -6.368490   -1.647991    0.651466
      2          6           0       -7.752257   -1.194946    0.410780
      3          6           0       -4.196365   -1.693958    0.993638
      4          7           0       -4.618060   -3.015654    0.998502
      5          6           0       -5.909802   -2.935055    0.792157
      6          1           0       -6.582758   -3.790952    0.732770
      7          7           0       -2.855145    0.243269    1.099611
      8          6           0       -3.976860    0.939031    0.886904
      9          1           0       -3.853041    2.020435    0.848336
     10          7           0       -5.222709    0.501570    0.715496
     11          6           0       -5.264134   -0.839489    0.780865
     12          6           0       -2.930085   -1.104244    1.160088
     13          7           0       -1.811451   -1.800509    1.372343
     14          1           0       -1.819939   -2.799722    1.424543
     15          1           0       -0.927265   -1.347347    1.486341
     16          1           0       -8.338849   -1.497116    1.162305
     17          1           0       -7.772036   -0.197183    0.354235
     18          1           0       -8.087473   -1.582493   -0.447962
     19          7           0       -2.649630    2.922771   -1.612769
     20          6           0       -1.371608    2.463199   -1.404208
     21          6           0       -3.104087    4.310671   -1.393945
     22          7           0        1.915260    3.045724   -0.445606
     23          1           0        2.762420    2.522095   -0.359757
     24          1           0        1.954840    4.015583   -0.203668
     25          7           0       -0.324697    3.196408   -0.967833
     26          6           0        0.776811    2.473928   -0.866175
     27          7           0        0.849600    1.135660   -1.168256
     28          1           0        1.734198    0.663544   -1.060743
     29          6           0       -0.214855    0.361217   -1.618871
     30          8           0       -0.042820   -0.839364   -1.863267
     31          6           0       -1.405073    1.123603   -1.733093
     32          7           0       -2.678478    0.749696   -2.139945
     33          6           0       -3.381006    1.846523   -2.052585
     34          1           0       -4.440664    1.926392   -2.297580
     35          1           0       -3.832520    4.320690   -0.709776
     36          1           0       -2.337047    4.863228   -1.070552
     37          1           0       -3.448062    4.689793   -2.252300
     38          1           0        6.248790   -1.242754    0.294672
     39          1           0        6.589145   -1.110207   -1.429054
     40          1           0        5.504594    0.044845   -0.653822
     41          1           0        3.913090   -5.107842   -1.364295
     42          6           0        3.783156   -4.027078   -1.306847
     43          8           0        1.457969   -4.096972   -1.771320
     44          6           0        2.484229   -3.465716   -1.520147
     45          1           0        1.529027   -1.656444   -1.569619
     46          7           0        2.430170   -2.089757   -1.425009
     47          8           0        3.324680   -0.029461   -1.089957
     48          6           0        3.471114   -1.237411   -1.153929
     49          1           0        5.825630   -3.598369   -0.870588
     50          6           0        4.817940   -3.221526   -1.040573
     51          6           0        5.833698   -0.983564   -0.667919
     52          7           0        4.691566   -1.854057   -0.960371
     53          1           0        3.805897    4.403273    2.103224
     54          1           0        2.698522    4.133880    0.935651
     55          1           0        4.290423    4.036891    0.588483
     56          1           0        1.645318   -2.694375    2.247562
     57          1           0        3.232391   -2.204084    2.636058
     58          7           0        2.325784   -1.962617    2.288236
     59          6           0        2.038035   -0.719732    1.896319
     60          6           0        2.512478    1.576864    1.493471
     61          7           0        1.286520    1.872234    1.030651
     62          1           0       -0.506616    0.942726    0.682369
     63          6           0        0.509641    0.790943    1.043556
     64          7           0        0.795973   -0.454775    1.435706
     65          1           0        5.586097    2.099758    2.348826
     66          6           0        4.605899    1.670447    2.139423
     67          7           0        4.283670    0.415911    2.339355
     68          6           0        2.958908    0.343056    1.933869
     69          6           0        3.595172    3.865764    1.286718
     70          7           0        3.581768    2.430256    1.628954
 ---------------------------------------------------------------------

 SCF Done:  E(RwB97XD) =  -2048.58031778     A.U. after   16 cycles

 The electronic state is 1-A.
 Alpha  occ. eigenvalues --  -19.25935 -19.21896 -19.20797 -14.52622 -14.52408
 Alpha  occ. eigenvalues --  -14.48907 -14.48813 -14.47863 -14.47847 -14.46596
 Alpha  occ. eigenvalues --  -14.45339 -14.44720 -14.43521 -14.42499 -14.42344
 Alpha  occ. eigenvalues --  -14.42006 -14.41518 -14.40963 -14.40812 -14.40217
 Alpha  occ. eigenvalues --  -10.45498 -10.41184 -10.40030 -10.39294 -10.38278
 Alpha  occ. eigenvalues --  -10.37844 -10.37772 -10.36695 -10.35562 -10.35008
 Alpha  occ. eigenvalues --  -10.34952 -10.34485 -10.34317 -10.34175 -10.33431
 Alpha  occ. eigenvalues --  -10.33269 -10.33183 -10.32084 -10.31102 -10.31040
 Alpha  occ. eigenvalues --  -10.30972 -10.28619 -10.28213  -1.19496  -1.15685
 Alpha  occ. eigenvalues --   -1.13788  -1.12945  -1.11406  -1.10784  -1.09843
 Alpha  occ. eigenvalues --   -1.09301  -1.08449  -1.05080  -1.04373  -1.02472
 Alpha  occ. eigenvalues --   -1.01817  -1.00590  -0.99890  -0.98828  -0.97071
 Alpha  occ. eigenvalues --   -0.96778  -0.96189  -0.92746  -0.91016  -0.87725
 Alpha  occ. eigenvalues --   -0.86564  -0.84209  -0.84002  -0.83517  -0.82682
 Alpha  occ. eigenvalues --   -0.82384  -0.78866  -0.77268  -0.75294  -0.74905
 Alpha  occ. eigenvalues --   -0.73632  -0.73323  -0.73025  -0.71169  -0.70606
 Alpha  occ. eigenvalues --   -0.67923  -0.66984  -0.66500  -0.66434  -0.64878
 Alpha  occ. eigenvalues --   -0.64489  -0.63826  -0.63212  -0.63006  -0.62706
 Alpha  occ. eigenvalues --   -0.61022  -0.60587  -0.60398  -0.59748  -0.59508
 Alpha  occ. eigenvalues --   -0.59370  -0.58212  -0.58091  -0.56650  -0.56430
 Alpha  occ. eigenvalues --   -0.56297  -0.56052  -0.55542  -0.54654  -0.54298
 Alpha  occ. eigenvalues --   -0.53968  -0.53438  -0.53119  -0.53054  -0.52908
 Alpha  occ. eigenvalues --   -0.52277  -0.51912  -0.51804  -0.50864  -0.50301
 Alpha  occ. eigenvalues --   -0.50227  -0.49528  -0.49389  -0.49031  -0.48958
 Alpha  occ. eigenvalues --   -0.48801  -0.48530  -0.48307  -0.48114  -0.47453
 Alpha  occ. eigenvalues --   -0.47032  -0.46635  -0.45130  -0.43903  -0.43084
 Alpha  occ. eigenvalues --   -0.41294  -0.40382  -0.39527  -0.38028  -0.37623
 Alpha  occ. eigenvalues --   -0.37395  -0.37288  -0.36612  -0.35940  -0.34873
 Alpha  occ. eigenvalues --   -0.34423  -0.33720  -0.33549  -0.33118  -0.32717
 Alpha  occ. eigenvalues --   -0.32548  -0.31939  -0.31916  -0.30837  -0.30516
 Alpha  occ. eigenvalues --   -0.29020  -0.27379  -0.25978  -0.25053
 Alpha virt. eigenvalues --    0.03127   0.04040   0.07408   0.07904   0.08303
 Alpha virt. eigenvalues --    0.08926   0.09239   0.10816   0.11571   0.12132
 Alpha virt. eigenvalues --    0.12656   0.13864   0.14165   0.14601   0.14825

 Mulliken charges:
               1
     1  N   -0.312776
     2  C    0.181442
     3  C    0.036099
     4  N   -0.261219
     5  C    0.134991
     6  H    0.026749
     7  N   -0.289914
     8  C    0.149330
     9  H    0.003023
    10  N   -0.292073
    11  C    0.250801
    12  C    0.123248
    13  N   -0.060423
    14  H    0.106980
    15  H    0.085518
    16  H    0.024802
    17  H    0.033312
    18  H    0.027457
    19  N   -0.306325
    20  C    0.232288
    21  C    0.181152
    22  N   -0.080888
    23  H    0.109277
    24  H    0.095680
    25  N   -0.274429
    26  C    0.215036
    27  N   -0.116701
    28  H    0.119927
    29  C    0.135492
    30  O   -0.314469
    31  C    0.032762
    32  N   -0.219581
    33  C    0.116804
    34  H    0.028019
    35  H    0.027582
    36  H    0.028052
    37  H    0.025467
    38  H    0.062158
    39  H    0.057478
    40  H    0.074749
    41  H    0.031804
    42  C   -0.111516
    43  O   -0.262240
    44  C    0.177001
    45  H    0.132815
    46  N   -0.133838
    47  O   -0.346096
    48  C    0.357393
    49  H    0.047371
    50  C    0.167625
    51  C    0.042546
    52  N   -0.294384
    53  H    0.036352
    54  H    0.024817
    55  H    0.029721
    56  H    0.120122
    57  H    0.115129
    58  N   -0.070446
    59  C    0.086301
    60  C    0.244920
    61  N   -0.312606
    62  H    0.047793
    63  C    0.180638
    64  N   -0.302128
    65  H    0.034707
    66  C    0.134967
    67  N   -0.262826
    68  C    0.044894
    69  C    0.173710
    70  N   -0.331424
 Sum of Mulliken charges =  -0.00000

 Dipole moment (field-independent basis, Debye):
    X=              8.0471    Y=              5.0603    Z=              3.4030  Tot=             10.0967
 Quadrupole moment (field-independent basis, Debye-Ang):
   XX=           -156.3271   YY=           -216.2790   ZZ=           -255.6535
   XY=             -3.3767   XZ=              5.3540   YZ=            -11.9849

 Normal termination of Gaussian 16 at Fri Jan 26 09:34:42 2018.
