 Gaussian 16, Revision A.03,
 Gaussian 16:  EM64L-G16RevA.03 25-Dec-2016

 ---------------------------------------
 #p wb97xd/cc-pvdz sp scf=(maxcycles=20)
 ---------------------------------------

 ------------------
 Base pair stacking
 ------------------
 Symbolic Z-matrix:
 Charge =  0 Multiplicity = 1

                         Standard orientation:
 ---------------------------------------------------------------------
 Center     Atomic      Atomic             Coordinates (Angstroms)
 Number     Number       Type             X           Y           Z
 ---------------------------------------------------------------------
      1          7           0        5.824435   -1.734890   -1.031695
      2          6           0        7.222724   -1.287148   -0.882344
      3          6           0        3.635500   -1.772010   -1.242655
      4          7           0        4.048483   -3.096445   -1.248674
      5          6           0        5.350705   -3.021073   -1.121340
      6          1           0        6.021037   -3.880376   -1.086700
      7          7           0        2.301580    0.172193   -1.303510
      8          6           0        3.438025    0.863897   -1.170848
      9          1           0        3.323006    1.946644   -1.144593
     10          7           0        4.689353    0.421010   -1.066222
     11          6           0        4.719025   -0.921253   -1.109576
     12          6           0        2.364962   -1.176674   -1.343862
     13          7           0        1.231619   -1.868906   -1.476253
     14          1           0        1.231185   -2.868928   -1.510715
     15          1           0        0.344840   -1.411777   -1.545471
     16          1           0        7.761537   -1.606647   -1.661938
     17          1           0        7.251625   -0.288694   -0.845207
     18          1           0        7.606469   -1.661653   -0.038254
     19          7           0        3.255016    2.965440    1.430253
     20          6           0        1.964159    2.511015    1.306755
     21          6           0        3.703601    4.346081    1.159493
     22          7           0       -1.370739    3.098966    0.535733
     23          1           0       -2.224542    2.579720    0.510141
     24          1           0       -1.419108    4.064609    0.279015
     25          7           0        0.897275    3.243521    0.920439
     26          6           0       -0.212493    2.526934    0.897875
     27          7           0       -0.274837    1.194782    1.228021
     28          1           0       -1.167006    0.726918    1.182128
     29          6           0        0.810169    0.421185    1.628259
     30          8           0        0.646114   -0.773658    1.904265
     31          6           0        2.009483    1.177283    1.657335
     32          7           0        3.302764    0.801945    1.994139
     33          6           0        4.005151    1.892198    1.845084
     34          1           0        5.078004    1.969124    2.024869
     35          1           0        4.389831    4.338926    0.432972
     36          1           0        2.921790    4.898052    0.872494
     37          1           0        4.100497    4.738039    1.988742
     38          1           0       -5.765570   -1.172142    0.133585
     39          1           0       -6.001400   -1.006621    1.871871
     40          1           0       -4.958511    0.126972    1.012392
     41          1           0       -3.357220   -5.023058    1.720049
     42          6           0       -3.224696   -3.944416    1.635314
     43          8           0       -0.876329   -4.022003    1.961297
     44          6           0       -1.912104   -3.388272    1.760429
     45          1           0       -0.945191   -1.585009    1.719895
     46          7           0       -1.855866   -2.014628    1.637253
     47          8           0       -2.756864    0.045477    1.318849
     48          6           0       -2.906215   -1.160107    1.413389
     49          1           0       -5.287095   -3.509510    1.314086
     50          6           0       -4.268878   -3.136628    1.416726
     51          6           0       -5.292122   -0.898739    1.064801
     52          7           0       -4.139603   -1.771703    1.304297
     53          1           0       -4.383369    4.359318   -1.982961
     54          1           0       -3.209703    4.103141   -0.878892
     55          1           0       -4.778512    4.023273   -0.435584
     56          1           0       -2.276438   -2.754443   -2.127107
     57          1           0       -3.881041   -2.260250   -2.428963
     58          7           0       -2.953861   -2.018869   -2.140355
     59          6           0       -2.635992   -0.771206   -1.788971
     60          6           0       -3.072179    1.535390   -1.400284
     61          7           0       -1.819035    1.830530   -1.016946
     62          1           0       -0.013687    0.895072   -0.759539
     63          6           0       -1.050592    0.743867   -1.056585
     64          7           0       -1.367087   -0.506629   -1.408233
     65          1           0       -6.188385    2.064078   -2.079930
     66          6           0       -5.199916    1.631848   -1.921675
     67          7           0       -4.897503    0.371765   -2.117658
     68          6           0       -3.551288    0.297038   -1.790746
     69          6           0       -4.127289    3.834996   -1.170861
     70          7           0       -4.142687    2.393557   -1.487154
 ---------------------------------------------------------------------

 SCF Done:  E(RwB97XD) =  -2048.65017651     A.U. after   16 cycles

 The electronic state is 1-A.
 Alpha  occ. eigenvalues --  -19.25650 -19.21696 -19.20342 -14.52899 -14.52246
 Alpha  occ. eigenvalues --  -14.48518 -14.48464 -14.48359 -14.47616 -14.46339
 Alpha  occ. eigenvalues --  -14.45677 -14.45150 -14.44226 -14.43035 -14.42447
 Alpha  occ. eigenvalues --  -14.41413 -14.41231 -14.40685 -14.40327 -14.40114
 Alpha  occ. eigenvalues --  -10.45279 -10.40180 -10.39932 -10.39836 -10.38182
 Alpha  occ. eigenvalues --  -10.37826 -10.37648 -10.37249 -10.35426 -10.35387
 Alpha  occ. eigenvalues --  -10.34956 -10.34814 -10.33901 -10.33825 -10.33130
 Alpha  occ. eigenvalues --  -10.32870 -10.32835 -10.32601 -10.30980 -10.30719
 Alpha  occ. eigenvalues --  -10.30665 -10.28356 -10.27556  -1.19286  -1.15552
 Alpha  occ. eigenvalues --   -1.13026  -1.12739  -1.11112  -1.10254  -1.09574
 Alpha  occ. eigenvalues --   -1.09116  -1.08329  -1.05116  -1.04890  -1.02237
 Alpha  occ. eigenvalues --   -1.01383  -1.00401  -0.99745  -0.98217  -0.96875
 Alpha  occ. eigenvalues --   -0.96658  -0.96184  -0.92583  -0.90874  -0.87959
 Alpha  occ. eigenvalues --   -0.86524  -0.83741  -0.83722  -0.83337  -0.82206
 Alpha  occ. eigenvalues --   -0.82129  -0.78696  -0.77261  -0.75543  -0.74251
 Alpha  occ. eigenvalues --   -0.73282  -0.73106  -0.72820  -0.70961  -0.70803
 Alpha  occ. eigenvalues --   -0.67293  -0.67163  -0.66339  -0.66234  -0.64728
 Alpha  occ. eigenvalues --   -0.64187  -0.63491  -0.62828  -0.62657  -0.61452
 Alpha  occ. eigenvalues --   -0.61169  -0.60505  -0.60478  -0.59689  -0.59453
 Alpha  occ. eigenvalues --   -0.59328  -0.58781  -0.56969  -0.56296  -0.56089
 Alpha  occ. eigenvalues --   -0.55998  -0.55770  -0.55415  -0.55185  -0.54504
 Alpha  occ. eigenvalues --   -0.53986  -0.53385  -0.53332  -0.53124  -0.52633
 Alpha  occ. eigenvalues --   -0.52596  -0.52097  -0.51576  -0.50666  -0.50065
 Alpha  occ. eigenvalues --   -0.49867  -0.49696  -0.49322  -0.49039  -0.48849
 Alpha  occ. eigenvalues --   -0.48474  -0.47938  -0.47781  -0.47372  -0.47073
 Alpha  occ. eigenvalues --   -0.46625  -0.46025  -0.44793  -0.44367  -0.43723
 Alpha  occ. eigenvalues --   -0.41627  -0.40934  -0.39335  -0.38383  -0.38023
 Alpha  occ. eigenvalues --   -0.37023  -0.36860  -0.36830  -0.35688  -0.34932
 Alpha  occ. eigenvalues --   -0.34290  -0.33570  -0.33397  -0.32860  -0.32318
 Alpha  occ. eigenvalues --   -0.32049  -0.31746  -0.31473  -0.30725  -0.30367
 Alpha  occ. eigenvalues --   -0.29943  -0.29001  -0.25736  -0.23589
 Alpha virt. eigenvalues --    0.03151   0.04028   0.06734   0.08105   0.08463
 Alpha virt. eigenvalues --    0.09538   0.10145   0.10450   0.11406   0.11732
 Alpha virt. eigenvalues --    0.12150   0.13878   0.14537   0.14829   0.14909

 Mulliken charges:
               1
     1  N   -0.313884
     2  C    0.182106
     3  C    0.041702
     4  N   -0.262109
     5  C    0.135964
     6  H    0.026074
     7  N   -0.292429
     8  C    0.151343
     9  H    0.008831
    10  N   -0.286853
    11  C    0.257927
    12  C    0.117056
    13  N   -0.062774
    14  H    0.106684
    15  H    0.082464
    16  H    0.023626
    17  H    0.032069
    18  H    0.028130
    19  N   -0.302453
    20  C    0.225784
    21  C    0.180878
    22  N   -0.033273
    23  H    0.111470
    24  H    0.111002
    25  N   -0.298750
    26  C    0.190670
    27  N   -0.152013
    28  H    0.128828
    29  C    0.169880
    30  O   -0.322906
    31  C    0.005100
    32  N   -0.219866
    33  C    0.125542
    34  H    0.020241
    35  H    0.028073
    36  H    0.027042
    37  H    0.023993
    38  H    0.059405
    39  H    0.058489
    40  H    0.073020
    41  H    0.030885
    42  C   -0.112617
    43  O   -0.261306
    44  C    0.176720
    45  H    0.132418
    46  N   -0.128042
    47  O   -0.344072
    48  C    0.345986
    49  H    0.045973
    50  C    0.165064
    51  C    0.043230
    52  N   -0.289719
    53  H    0.041415
    54  H    0.009988
    55  H    0.036447
    56  H    0.119380
    57  H    0.116479
    58  N   -0.065119
    59  C    0.080780
    60  C    0.273165
    61  N   -0.335972
    62  H    0.053642
    63  C    0.172265
    64  N   -0.298192
    65  H    0.037271
    66  C    0.133555
    67  N   -0.261501
    68  C    0.031277
    69  C    0.184421
    70  N   -0.319903
 Sum of Mulliken charges =  -0.00000

 Dipole moment (field-independent basis, Debye):
    X=             -8.8753    Y=              5.3228    Z=             -3.2923  Tot=             10.8601
 Quadrupole moment (field-independent basis, Debye-Ang):
   XX=           -159.4511   YY=           -214.7198   ZZ=           -256.3637
   XY=              3.4030   XZ=             -2.2027   YZ=             10.6606

 Normal termination of Gaussian 16 at Fri Jan 26 08:24:22 2018.
