 Gaussian 16, Revision A.03,
 Gaussian 16:  EM64L-G16RevA.03 25-Dec-2016

 ---------------------------------------
 #p wb97xd/cc-pvdz sp scf=(maxcycles=20)
 ---------------------------------------

 ------------------
 Base pair stacking
 ------------------
 Symbolic Z-matrix:
 Charge =  0 Multiplicity = 1

                         Standard orientation:
 ---------------------------------------------------------------------
 Center     Atomic      Atomic             Coordinates (Angstroms)
 Number     Number       Type             X           Y           Z
 ---------------------------------------------------------------------
      1          7           0       -7.208329   -1.576633    0.067371
      2          6           0       -8.601346   -1.116321   -0.092670
      3          6           0       -5.041398   -1.644090    0.437733
      4          7           0       -5.422663   -2.941442    0.127510
      5          6           0       -6.712906   -2.848880   -0.083198
      6          1           0       -7.358465   -3.684924   -0.353779
      7          7           0       -3.761614    0.250078    1.018462
      8          6           0       -4.900561    0.946748    0.947558
      9          1           0       -4.809150    2.010493    1.162831
     10          7           0       -6.129694    0.528644    0.652069
     11          6           0       -6.131267   -0.791670    0.404662
     12          6           0       -3.796406   -1.076253    0.764048
     13          7           0       -2.660524   -1.773387    0.834323
     14          1           0       -2.639384   -2.757366    0.653876
     15          1           0       -1.792429   -1.336124    1.069595
     16          1           0       -9.190080   -1.599596    0.555435
     17          1           0       -8.650627   -0.133479    0.082592
     18          1           0       -8.911223   -1.302891   -1.024960
     19          7           0       -1.620371    2.974368   -1.856300
     20          6           0       -0.358133    2.499515   -1.593026
     21          6           0       -2.018568    4.396271   -1.838115
     22          7           0        2.961149    3.083931   -0.754813
     23          1           0        3.788788    2.545057   -0.600291
     24          1           0        3.040955    4.076269   -0.656812
     25          7           0        0.721757    3.246105   -1.276031
     26          6           0        1.796160    2.502845   -1.078926
     27          7           0        1.813763    1.133091   -1.183730
     28          1           0        2.681073    0.646816   -1.015570
     29          6           0        0.714581    0.344379   -1.508672
     30          8           0        0.837378   -0.884830   -1.577206
     31          6           0       -0.447107    1.128786   -1.723329
     32          7           0       -1.739204    0.750690   -2.061608
     33          6           0       -2.398129    1.875622   -2.129244
     34          1           0       -3.457166    1.961122   -2.375033
     35          1           0       -2.736825    4.534306   -1.157047
     36          1           0       -1.226716    4.958984   -1.604461
     37          1           0       -2.359316    4.660267   -2.739784
     38          1           0        7.137441   -1.220519    0.567644
     39          1           0        7.459413   -1.352941   -1.159614
     40          1           0        6.430238   -0.055555   -0.552215
     41          1           0        4.633880   -5.189505   -0.493464
     42          6           0        4.546062   -4.107532   -0.592781
     43          8           0        2.213865   -4.151664   -1.024135
     44          6           0        3.266750   -3.531905   -0.875391
     45          1           0        2.380708   -1.712448   -1.180049
     46          7           0        3.266525   -2.155648   -0.980945
     47          8           0        4.243410   -0.105703   -0.956010
     48          6           0        4.342782   -1.315007   -0.844769
     49          1           0        6.609079   -3.701539   -0.239354
     50          6           0        5.614309   -3.313605   -0.454518
     51          6           0        6.719638   -1.087381   -0.419164
     52          7           0        5.541297   -1.945033   -0.573062
     53          1           0        2.753233    4.236161    3.104184
     54          1           0        1.672855    4.215968    1.881692
     55          1           0        3.272180    4.243546    1.556910
     56          1           0        0.807845   -2.755460    1.555585
     57          1           0        2.373015   -2.327417    2.082015
     58          7           0        1.464990   -2.035598    1.779430
     59          6           0        1.145653   -0.743644    1.679230
     60          6           0        1.556130    1.595333    1.828916
     61          7           0        0.329087    1.957918    1.419867
     62          1           0       -1.429272    1.088077    0.826434
     63          6           0       -0.414611    0.883225    1.165187
     64          7           0       -0.096590   -0.411572    1.264932
     65          1           0        4.598721    1.985580    2.849946
     66          6           0        3.635430    1.591137    2.525267
     67          7           0        3.348493    0.316458    2.422510
     68          6           0        2.033025    0.305109    1.981894
     69          6           0        2.571695    3.897228    2.181060
     70          7           0        2.596688    2.421632    2.181728
 ---------------------------------------------------------------------

 SCF Done:  E(RwB97XD) =  -2048.73737746     A.U. after   15 cycles

 The electronic state is 1-A.
 Alpha  occ. eigenvalues --  -19.26107 -19.22426 -19.21039 -14.52738 -14.51016
 Alpha  occ. eigenvalues --  -14.49074 -14.48947 -14.48230 -14.47661 -14.47407
 Alpha  occ. eigenvalues --  -14.46475 -14.44095 -14.42490 -14.42481 -14.42432
 Alpha  occ. eigenvalues --  -14.42247 -14.41647 -14.41049 -14.41030 -14.40265
 Alpha  occ. eigenvalues --  -10.45775 -10.41754 -10.40520 -10.38669 -10.38235
 Alpha  occ. eigenvalues --  -10.38125 -10.36609 -10.35564 -10.35543 -10.35519
 Alpha  occ. eigenvalues --  -10.34624 -10.34297 -10.34075 -10.33551 -10.33547
 Alpha  occ. eigenvalues --  -10.33216 -10.32856 -10.31414 -10.31095 -10.31062
 Alpha  occ. eigenvalues --  -10.31038 -10.28733 -10.28495  -1.19701  -1.13947
 Alpha  occ. eigenvalues --   -1.13492  -1.13421  -1.11541  -1.10927  -1.09631
 Alpha  occ. eigenvalues --   -1.09180  -1.07554  -1.05114  -1.03160  -1.02848
 Alpha  occ. eigenvalues --   -1.00625  -1.00549  -0.99478  -0.98937  -0.97129
 Alpha  occ. eigenvalues --   -0.96893  -0.95125  -0.92751  -0.91369  -0.86205
 Alpha  occ. eigenvalues --   -0.84620  -0.84471  -0.84101  -0.83948  -0.82810
 Alpha  occ. eigenvalues --   -0.82465  -0.79202  -0.75511  -0.75035  -0.74273
 Alpha  occ. eigenvalues --   -0.73696  -0.73196  -0.73048  -0.71204  -0.68907
 Alpha  occ. eigenvalues --   -0.67955  -0.66879  -0.66442  -0.65274  -0.64785
 Alpha  occ. eigenvalues --   -0.64104  -0.63095  -0.62926  -0.62634  -0.62426
 Alpha  occ. eigenvalues --   -0.60310  -0.59849  -0.59838  -0.59329  -0.59116
 Alpha  occ. eigenvalues --   -0.58928  -0.58179  -0.56890  -0.56607  -0.56527
 Alpha  occ. eigenvalues --   -0.56278  -0.55500  -0.54799  -0.54673  -0.54001
 Alpha  occ. eigenvalues --   -0.53917  -0.53624  -0.53302  -0.52720  -0.52418
 Alpha  occ. eigenvalues --   -0.51999  -0.51823  -0.51393  -0.50876  -0.50506
 Alpha  occ. eigenvalues --   -0.50308  -0.49734  -0.49252  -0.49160  -0.48897
 Alpha  occ. eigenvalues --   -0.48610  -0.48557  -0.48203  -0.47783  -0.47409
 Alpha  occ. eigenvalues --   -0.47098  -0.45393  -0.45247  -0.44360  -0.43161
 Alpha  occ. eigenvalues --   -0.41317  -0.39725  -0.39398  -0.37767  -0.37639
 Alpha  occ. eigenvalues --   -0.37325  -0.36613  -0.35991  -0.35715  -0.35237
 Alpha  occ. eigenvalues --   -0.33703  -0.33649  -0.33594  -0.33076  -0.33023
 Alpha  occ. eigenvalues --   -0.32462  -0.32310  -0.32284  -0.32179  -0.31106
 Alpha  occ. eigenvalues --   -0.30464  -0.28339  -0.25937  -0.25825
 Alpha virt. eigenvalues --    0.02757   0.05453   0.07803   0.08068   0.08246
 Alpha virt. eigenvalues --    0.09061   0.09527   0.10855   0.11300   0.12443
 Alpha virt. eigenvalues --    0.12938   0.13841   0.14314   0.14737   0.15007

 Mulliken charges:
               1
     1  N   -0.310883
     2  C    0.181028
     3  C    0.028432
     4  N   -0.259044
     5  C    0.133645
     6  H    0.027061
     7  N   -0.290883
     8  C    0.131739
     9  H    0.009082
    10  N   -0.288930
    11  C    0.242379
    12  C    0.123058
    13  N   -0.055632
    14  H    0.108403
    15  H    0.089490
    16  H    0.025683
    17  H    0.035305
    18  H    0.026162
    19  N   -0.308638
    20  C    0.257308
    21  C    0.183010
    22  N   -0.109460
    23  H    0.116574
    24  H    0.119546
    25  N   -0.284365
    26  C    0.198031
    27  N   -0.116214
    28  H    0.121169
    29  C    0.166681
    30  O   -0.320572
    31  C   -0.022026
    32  N   -0.215571
    33  C    0.128764
    34  H    0.031486
    35  H    0.030326
    36  H    0.027172
    37  H    0.025190
    38  H    0.062087
    39  H    0.060294
    40  H    0.074641
    41  H    0.032858
    42  C   -0.111667
    43  O   -0.268653
    44  C    0.168615
    45  H    0.134895
    46  N   -0.137532
    47  O   -0.349915
    48  C    0.363861
    49  H    0.049529
    50  C    0.173314
    51  C    0.043009
    52  N   -0.298288
    53  H    0.031212
    54  H    0.046102
    55  H   -0.003875
    56  H    0.124806
    57  H    0.112659
    58  N   -0.060175
    59  C    0.097747
    60  C    0.224041
    61  N   -0.257066
    62  H    0.041079
    63  C    0.162723
    64  N   -0.296709
    65  H    0.025805
    66  C    0.119074
    67  N   -0.263798
    68  C    0.029254
    69  C    0.182142
    70  N   -0.296577
 Sum of Mulliken charges =  -0.00000

 Dipole moment (field-independent basis, Debye):
    X=              8.6441    Y=              5.0470    Z=              1.9469  Tot=             10.1972
 Quadrupole moment (field-independent basis, Debye-Ang):
   XX=           -148.2345   YY=           -214.8724   ZZ=           -250.1766
   XY=              0.8548   XZ=             13.7103   YZ=             -8.6982

 Normal termination of Gaussian 16 at Fri Jan 26 18:01:56 2018.
