 Gaussian 16, Revision A.03,
 Gaussian 16:  EM64L-G16RevA.03 25-Dec-2016

 ---------------------------------------
 #p wb97xd/cc-pvdz sp scf=(maxcycles=20)
 ---------------------------------------

 ------------------
 Base pair stacking
 ------------------
 Symbolic Z-matrix:
 Charge =  0 Multiplicity = 1

                         Standard orientation:
 ---------------------------------------------------------------------
 Center     Atomic      Atomic             Coordinates (Angstroms)
 Number     Number       Type             X           Y           Z
 ---------------------------------------------------------------------
      1          7           0        4.281057   -2.070962   -1.828983
      2          6           0        5.697688   -1.682965   -1.972550
      3          6           0        2.090692   -2.015577   -1.637822
      4          7           0        2.449233   -3.355422   -1.606486
      5          6           0        3.754503   -3.335158   -1.722898
      6          1           0        4.389494   -4.221455   -1.737359
      7          7           0        0.836724   -0.018025   -1.620916
      8          6           0        2.001543    0.624626   -1.754203
      9          1           0        1.931020    1.710570   -1.799076
     10          7           0        3.234611    0.129572   -1.839985
     11          6           0        3.209128   -1.211881   -1.774589
     12          6           0        0.844674   -1.367490   -1.558112
     13          7           0       -0.317068   -2.010797   -1.425069
     14          1           0       -0.358587   -3.009255   -1.374397
     15          1           0       -1.185025   -1.516914   -1.371534
     16          1           0        6.072629   -2.087566   -2.806766
     17          1           0        5.767624   -0.687260   -2.025601
     18          1           0        6.216771   -2.010266   -1.182978
     19          7           0        4.807038    2.903787    0.669122
     20          6           0        3.497204    2.506853    0.790958
     21          6           0        5.257072    4.263327    0.308819
     22          7           0        0.105875    3.241712    0.647546
     23          1           0       -0.759557    2.760690    0.784997
     24          1           0        0.052655    4.208607    0.396567
     25          7           0        2.409980    3.285857    0.603499
     26          6           0        1.285262    2.618991    0.793004
     27          7           0        1.227525    1.290817    1.139601
     28          1           0        0.322890    0.862824    1.263804
     29          6           0        2.333332    0.469952    1.337684
     30          8           0        2.171654   -0.716536    1.648868
     31          6           0        3.548870    1.172333    1.137654
     32          7           0        4.864660    0.740152    1.231587
     33          6           0        5.573825    1.798355    0.946075
     34          1           0        6.663723    1.827780    0.923027
     35          1           0        5.795440    4.226036   -0.532359
     36          1           0        4.460283    4.849364    0.167499
     37          1           0        5.817740    4.637169    1.046850
     38          1           0       -4.468506   -0.831022    1.102057
     39          1           0       -4.369926   -0.655648    2.852538
     40          1           0       -3.456592    0.430979    1.805434
     41          1           0       -1.976997   -4.784925    2.244688
     42          6           0       -1.815787   -3.713164    2.128233
     43          8           0        0.546637   -3.894476    2.013356
     44          6           0       -0.479895   -3.215573    2.003143
     45          1           0        0.540067   -1.456767    1.769499
     46          7           0       -0.387898   -1.845723    1.860719
     47          8           0       -1.241991    0.252247    1.698634
     48          6           0       -1.423415   -0.945592    1.828852
     49          1           0       -3.881085   -3.187513    2.191870
     50          6           0       -2.846294   -2.859998    2.100780
     51          6           0       -3.818909   -0.579006    1.927028
     52          7           0       -2.680986   -1.502084    1.955429
     53          1           0       -5.709567    4.430997   -1.434398
     54          1           0       -4.362606    4.202265   -0.542489
     55          1           0       -5.825047    4.234460    0.181608
     56          1           0       -3.913617   -2.768584   -1.355534
     57          1           0       -5.528197   -2.220036   -1.403671
     58          7           0       -4.555953   -2.003519   -1.308409
     59          6           0       -4.135732   -0.749903   -1.126621
     60          6           0       -4.412601    1.598475   -0.861639
     61          7           0       -3.100865    1.859617   -0.736867
     62          1           0       -1.312591    0.858289   -0.731277
     63          6           0       -2.391038    0.736363   -0.822623
     64          7           0       -2.810058   -0.520169   -1.004662
     65          1           0       -7.580342    2.227377   -1.010295
     66          6           0       -6.595256    1.760070   -0.997003
     67          7           0       -6.377998    0.475237   -1.137314
     68          6           0       -4.998068    0.359132   -1.053419
     69          6           0       -5.326982    3.958364   -0.640510
     70          7           0       -5.450359    2.499480   -0.826100
 ---------------------------------------------------------------------

 SCF Done:  E(RwB97XD) =  -2048.74467348     A.U. after   15 cycles

 The electronic state is 1-A.
 Alpha  occ. eigenvalues --  -19.25071 -19.21118 -19.20455 -14.52727 -14.51649
 Alpha  occ. eigenvalues --  -14.49341 -14.48759 -14.48280 -14.47009 -14.46469
 Alpha  occ. eigenvalues --  -14.46261 -14.45642 -14.45117 -14.45110 -14.43270
 Alpha  occ. eigenvalues --  -14.41895 -14.41055 -14.40981 -14.40935 -14.40634
 Alpha  occ. eigenvalues --  -10.44655 -10.40949 -10.40755 -10.39249 -10.38206
 Alpha  occ. eigenvalues --  -10.37992 -10.37743 -10.37193 -10.36535 -10.35848
 Alpha  occ. eigenvalues --  -10.34168 -10.34154 -10.34087 -10.33762 -10.33381
 Alpha  occ. eigenvalues --  -10.33177 -10.33168 -10.33060 -10.30979 -10.30518
 Alpha  occ. eigenvalues --  -10.30082 -10.28514 -10.27954  -1.18677  -1.15536
 Alpha  occ. eigenvalues --   -1.12992  -1.12149  -1.10981  -1.10491  -1.10150
 Alpha  occ. eigenvalues --   -1.08552  -1.08313  -1.05662  -1.05339  -1.01642
 Alpha  occ. eigenvalues --   -1.01316  -1.00858  -0.99404  -0.98361  -0.97652
 Alpha  occ. eigenvalues --   -0.96683  -0.96526  -0.93018  -0.90385  -0.88122
 Alpha  occ. eigenvalues --   -0.86229  -0.84030  -0.83672  -0.82841  -0.82435
 Alpha  occ. eigenvalues --   -0.81891  -0.78165  -0.77634  -0.75477  -0.74465
 Alpha  occ. eigenvalues --   -0.73336  -0.73027  -0.72578  -0.71154  -0.70978
 Alpha  occ. eigenvalues --   -0.67498  -0.67109  -0.66411  -0.65832  -0.64834
 Alpha  occ. eigenvalues --   -0.64134  -0.63334  -0.62890  -0.62385  -0.61512
 Alpha  occ. eigenvalues --   -0.61101  -0.60805  -0.60248  -0.59948  -0.59118
 Alpha  occ. eigenvalues --   -0.58887  -0.58005  -0.56896  -0.56502  -0.55927
 Alpha  occ. eigenvalues --   -0.55663  -0.55626  -0.55523  -0.55109  -0.54082
 Alpha  occ. eigenvalues --   -0.53867  -0.53629  -0.53233  -0.53160  -0.52772
 Alpha  occ. eigenvalues --   -0.52272  -0.51782  -0.51408  -0.50483  -0.50441
 Alpha  occ. eigenvalues --   -0.49993  -0.49902  -0.49371  -0.48897  -0.48892
 Alpha  occ. eigenvalues --   -0.48575  -0.47872  -0.47696  -0.47551  -0.46968
 Alpha  occ. eigenvalues --   -0.46778  -0.45657  -0.45334  -0.44629  -0.43212
 Alpha  occ. eigenvalues --   -0.41291  -0.41181  -0.38880  -0.38269  -0.38142
 Alpha  occ. eigenvalues --   -0.37356  -0.37128  -0.36832  -0.35506  -0.35159
 Alpha  occ. eigenvalues --   -0.35064  -0.34064  -0.33535  -0.33277  -0.32752
 Alpha  occ. eigenvalues --   -0.32502  -0.32218  -0.31728  -0.31129  -0.30741
 Alpha  occ. eigenvalues --   -0.30604  -0.30323  -0.26401  -0.24944
 Alpha virt. eigenvalues --    0.03478   0.03707   0.06484   0.07897   0.09070
 Alpha virt. eigenvalues --    0.09374   0.09845   0.10226   0.10854   0.11442
 Alpha virt. eigenvalues --    0.13589   0.14497   0.14568   0.14631   0.14966

 Mulliken charges:
               1
     1  N   -0.312673
     2  C    0.185666
     3  C    0.064427
     4  N   -0.263105
     5  C    0.145539
     6  H    0.028396
     7  N   -0.285918
     8  C    0.115879
     9  H    0.020528
    10  N   -0.267958
    11  C    0.259988
    12  C    0.077817
    13  N   -0.071710
    14  H    0.108631
    15  H    0.083104
    16  H    0.019091
    17  H    0.033042
    18  H    0.034350
    19  N   -0.310661
    20  C    0.244995
    21  C    0.181241
    22  N   -0.111676
    23  H    0.119196
    24  H    0.115839
    25  N   -0.304158
    26  C    0.214519
    27  N   -0.116755
    28  H    0.115681
    29  C    0.156339
    30  O   -0.319038
    31  C    0.017301
    32  N   -0.232679
    33  C    0.122374
    34  H    0.021616
    35  H    0.026719
    36  H    0.029162
    37  H    0.024514
    38  H    0.060071
    39  H    0.055963
    40  H    0.077609
    41  H    0.028165
    42  C   -0.114907
    43  O   -0.259236
    44  C    0.174939
    45  H    0.136426
    46  N   -0.128764
    47  O   -0.346439
    48  C    0.354647
    49  H    0.042102
    50  C    0.162070
    51  C    0.037887
    52  N   -0.280218
    53  H    0.034684
    54  H    0.037514
    55  H    0.032053
    56  H    0.117821
    57  H    0.121621
    58  N   -0.060474
    59  C    0.050992
    60  C    0.246233
    61  N   -0.278564
    62  H    0.011007
    63  C    0.195529
    64  N   -0.304559
    65  H    0.040339
    66  C    0.142449
    67  N   -0.258505
    68  C    0.034058
    69  C    0.181285
    70  N   -0.313423
 Sum of Mulliken charges =  -0.00000

 Dipole moment (field-independent basis, Debye):
    X=             -8.8745    Y=              5.7621    Z=             -1.6638  Tot=             10.7111
 Quadrupole moment (field-independent basis, Debye-Ang):
   XX=           -173.1056   YY=           -212.4113   ZZ=           -251.9421
   XY=              8.8466   XZ=            -19.2629   YZ=              8.6517

 Normal termination of Gaussian 16 at Fri Jan 26 07:00:35 2018.
