 Gaussian 16, Revision A.03,
 Gaussian 16:  EM64L-G16RevA.03 25-Dec-2016

 ---------------------------------------
 #p wb97xd/cc-pvdz sp scf=(maxcycles=20)
 ---------------------------------------

 ------------------
 Base pair stacking
 ------------------
 Symbolic Z-matrix:
 Charge =  0 Multiplicity = 1

                         Standard orientation:
 ---------------------------------------------------------------------
 Center     Atomic      Atomic             Coordinates (Angstroms)
 Number     Number       Type             X           Y           Z
 ---------------------------------------------------------------------
      1          7           0       -5.905458   -1.802433    0.981956
      2          6           0       -7.311519   -1.356493    1.028369
      3          6           0       -3.708623   -1.856811    1.072876
      4          7           0       -4.114584   -3.137727    0.727623
      5          6           0       -5.421854   -3.053687    0.686671
      6          1           0       -6.089040   -3.881367    0.444281
      7          7           0       -2.382469    0.017375    1.612943
      8          6           0       -3.527320    0.697709    1.731439
      9          1           0       -3.418814    1.746743    2.003516
     10          7           0       -4.780188    0.278725    1.565107
     11          6           0       -4.801383   -1.022684    1.232989
     12          6           0       -2.437447   -1.290159    1.277650
     13          7           0       -1.295713   -1.970968    1.158885
     14          1           0       -1.288888   -2.940740    0.912474
     15          1           0       -0.408746   -1.535117    1.312068
     16          1           0       -7.809627   -1.890536    1.711637
     17          1           0       -7.346903   -0.387999    1.273095
     18          1           0       -7.734760   -1.487705    0.131912
     19          7           0       -3.122361    3.165181   -1.558285
     20          6           0       -1.832905    2.695853   -1.487097
     21          6           0       -3.527500    4.575979   -1.396323
     22          7           0        1.560309    3.281252   -1.034144
     23          1           0        2.405502    2.747681   -1.020450
     24          1           0        1.643148    4.266414   -0.881421
     25          7           0       -0.728235    3.438655   -1.259060
     26          6           0        0.368889    2.702589   -1.247631
     27          7           0        0.385120    1.342969   -1.444255
     28          1           0        1.270926    0.861653   -1.418535
     29          6           0       -0.739309    0.558315   -1.680543
     30          8           0       -0.615384   -0.661649   -1.845127
     31          6           0       -1.925601    1.335075   -1.695698
     32          7           0       -3.246662    0.957714   -1.893849
     33          6           0       -3.918677    2.073291   -1.803866
     34          1           0       -5.000943    2.156481   -1.908954
     35          1           0       -4.155391    4.657519   -0.623073
     36          1           0       -2.717477    5.135808   -1.226893
     37          1           0       -3.981466    4.891815   -2.228768
     38          1           0        5.907440   -1.027996   -0.532710
     39          1           0        6.010321   -1.043118   -2.291643
     40          1           0        5.054590    0.194668   -1.475644
     41          1           0        3.324919   -4.962153   -1.532486
     42          6           0        3.215827   -3.877684   -1.548187
     43          8           0        0.848350   -3.933507   -1.686184
     44          6           0        1.906126   -3.306839   -1.629697
     45          1           0        0.972869   -1.486832   -1.699934
     46          7           0        1.880556   -1.926831   -1.643056
     47          8           0        2.834832    0.133534   -1.604954
     48          6           0        2.958001   -1.078565   -1.587334
     49          1           0        5.303306   -3.460342   -1.429674
     50          6           0        4.286008   -3.076298   -1.492479
     51          6           0        5.367462   -0.838538   -1.448462
     52          7           0        4.186666   -1.704367   -1.510085
     53          1           0        4.308166    3.970633    3.126020
     54          1           0        3.082571    4.011050    2.049746
     55          1           0        4.627903    4.086723    1.529867
     56          1           0        2.244352   -2.938467    1.373717
     57          1           0        3.859582   -2.518757    1.727258
     58          7           0        2.918138   -2.223495    1.560701
     59          6           0        2.577435   -0.933383    1.587006
     60          6           0        2.983045    1.397697    1.838635
     61          7           0        1.711112    1.765018    1.611304
     62          1           0       -0.100350    0.905548    1.186372
     63          6           0        0.950675    0.696527    1.381141
     64          7           0        1.290040   -0.596405    1.354362
     65          1           0        6.126520    1.772861    2.494355
     66          6           0        5.133479    1.383879    2.267416
     67          7           0        4.847036    0.113813    2.117233
     68          6           0        3.486680    0.108570    1.844968
     69          6           0        4.014714    3.688968    2.212485
     70          7           0        4.052503    2.217048    2.112338
 ---------------------------------------------------------------------

 SCF Done:  E(RwB97XD) =  -2048.74496017     A.U. after   15 cycles

 The electronic state is 1-A.
 Alpha  occ. eigenvalues --  -19.25938 -19.22216 -19.20622 -14.52529 -14.52258
 Alpha  occ. eigenvalues --  -14.48770 -14.48238 -14.48204 -14.47920 -14.46931
 Alpha  occ. eigenvalues --  -14.46613 -14.45307 -14.44023 -14.43936 -14.42027
 Alpha  occ. eigenvalues --  -14.41874 -14.40884 -14.40787 -14.40404 -14.39787
 Alpha  occ. eigenvalues --  -10.45558 -10.41176 -10.40304 -10.39713 -10.38209
 Alpha  occ. eigenvalues --  -10.38034 -10.37809 -10.36909 -10.35403 -10.35034
 Alpha  occ. eigenvalues --  -10.34982 -10.34314 -10.33865 -10.33574 -10.33252
 Alpha  occ. eigenvalues --  -10.32830 -10.32620 -10.32409 -10.31363 -10.30940
 Alpha  occ. eigenvalues --  -10.30530 -10.28074 -10.28009  -1.19510  -1.14969
 Alpha  occ. eigenvalues --   -1.13221  -1.13195  -1.10811  -1.10576  -1.09425
 Alpha  occ. eigenvalues --   -1.09075  -1.08535  -1.04648  -1.04520  -1.02574
 Alpha  occ. eigenvalues --   -1.00808  -0.99980  -0.99725  -0.98545  -0.96659
 Alpha  occ. eigenvalues --   -0.96573  -0.96392  -0.92203  -0.91239  -0.87397
 Alpha  occ. eigenvalues --   -0.85769  -0.84090  -0.83596  -0.83440  -0.82503
 Alpha  occ. eigenvalues --   -0.81848  -0.79028  -0.76826  -0.74659  -0.74534
 Alpha  occ. eigenvalues --   -0.73656  -0.73439  -0.72451  -0.70584  -0.70234
 Alpha  occ. eigenvalues --   -0.67370  -0.66657  -0.66619  -0.65855  -0.64523
 Alpha  occ. eigenvalues --   -0.64107  -0.63804  -0.62717  -0.62264  -0.61723
 Alpha  occ. eigenvalues --   -0.60407  -0.60092  -0.60035  -0.59620  -0.59381
 Alpha  occ. eigenvalues --   -0.59210  -0.58360  -0.56667  -0.56164  -0.56035
 Alpha  occ. eigenvalues --   -0.55889  -0.55227  -0.54971  -0.54589  -0.54402
 Alpha  occ. eigenvalues --   -0.53755  -0.53690  -0.53270  -0.53113  -0.52983
 Alpha  occ. eigenvalues --   -0.52553  -0.52405  -0.51330  -0.50254  -0.50183
 Alpha  occ. eigenvalues --   -0.49800  -0.49529  -0.49517  -0.49003  -0.48898
 Alpha  occ. eigenvalues --   -0.48443  -0.48348  -0.48242  -0.47743  -0.47388
 Alpha  occ. eigenvalues --   -0.46474  -0.45680  -0.44840  -0.44464  -0.44036
 Alpha  occ. eigenvalues --   -0.40652  -0.40501  -0.39496  -0.37648  -0.37444
 Alpha  occ. eigenvalues --   -0.37272  -0.37068  -0.36666  -0.35961  -0.34780
 Alpha  occ. eigenvalues --   -0.34194  -0.33590  -0.33324  -0.33065  -0.32915
 Alpha  occ. eigenvalues --   -0.32654  -0.32370  -0.32158  -0.31831  -0.30417
 Alpha  occ. eigenvalues --   -0.29984  -0.29791  -0.25669  -0.25012
 Alpha virt. eigenvalues --    0.02754   0.04252   0.07396   0.08227   0.08483
 Alpha virt. eigenvalues --    0.09270   0.09705   0.10764   0.11549   0.11650
 Alpha virt. eigenvalues --    0.12245   0.14127   0.14514   0.14814   0.15154

 Mulliken charges:
               1
     1  N   -0.312762
     2  C    0.181612
     3  C    0.042670
     4  N   -0.258978
     5  C    0.135054
     6  H    0.025074
     7  N   -0.296236
     8  C    0.141095
     9  H    0.007224
    10  N   -0.291497
    11  C    0.253556
    12  C    0.118941
    13  N   -0.057732
    14  H    0.111539
    15  H    0.083550
    16  H    0.023584
    17  H    0.032500
    18  H    0.026334
    19  N   -0.312304
    20  C    0.247454
    21  C    0.180908
    22  N   -0.105769
    23  H    0.113427
    24  H    0.113708
    25  N   -0.307536
    26  C    0.232727
    27  N   -0.143800
    28  H    0.121080
    29  C    0.179795
    30  O   -0.320491
    31  C   -0.002612
    32  N   -0.225445
    33  C    0.131277
    34  H    0.025227
    35  H    0.028899
    36  H    0.028300
    37  H    0.024567
    38  H    0.061926
    39  H    0.058714
    40  H    0.073873
    41  H    0.031228
    42  C   -0.112650
    43  O   -0.263191
    44  C    0.160269
    45  H    0.133412
    46  N   -0.120747
    47  O   -0.344024
    48  C    0.341105
    49  H    0.047364
    50  C    0.160848
    51  C    0.040857
    52  N   -0.283162
    53  H    0.035329
    54  H    0.040897
    55  H    0.025840
    56  H    0.125651
    57  H    0.115578
    58  N   -0.063156
    59  C    0.080227
    60  C    0.237459
    61  N   -0.266867
    62  H    0.040255
    63  C    0.164424
    64  N   -0.303059
    65  H    0.036022
    66  C    0.137472
    67  N   -0.270396
    68  C    0.040855
    69  C    0.176405
    70  N   -0.313699
 Sum of Mulliken charges =  -0.00000

 Dipole moment (field-independent basis, Debye):
    X=              9.1147    Y=              5.4529    Z=              1.5744  Tot=             10.7374
 Quadrupole moment (field-independent basis, Debye-Ang):
   XX=           -160.1134   YY=           -212.2047   ZZ=           -252.5624
   XY=             -4.7109   XZ=             -0.4169   YZ=             -5.5577

 Normal termination of Gaussian 16 at Fri Jan 26 14:27:18 2018.
