 Gaussian 16, Revision A.03,
 Gaussian 16:  EM64L-G16RevA.03 25-Dec-2016

 ---------------------------------------
 #p wb97xd/cc-pvdz sp scf=(maxcycles=20)
 ---------------------------------------

 ------------------
 Base pair stacking
 ------------------
 Symbolic Z-matrix:
 Charge =  0 Multiplicity = 1

                         Standard orientation:
 ---------------------------------------------------------------------
 Center     Atomic      Atomic             Coordinates (Angstroms)
 Number     Number       Type             X           Y           Z
 ---------------------------------------------------------------------
      1          7           0        5.584151   -1.874503   -1.210853
      2          6           0        6.992111   -1.437164   -1.277080
      3          6           0        3.385231   -1.908588   -1.240901
      4          7           0        3.789781   -3.207066   -0.966982
      5          6           0        5.098365   -3.134555   -0.959841
      6          1           0        5.765005   -3.977437   -0.775220
      7          7           0        2.060469   -0.001748   -1.655478
      8          6           0        3.207305    0.674982   -1.775357
      9          1           0        3.100161    1.736277   -1.995468
     10          7           0        4.460748    0.239612   -1.664661
     11          6           0        4.480153   -1.075925   -1.393732
     12          6           0        2.113681   -1.323784   -1.382641
     13          7           0        0.969956   -2.001028   -1.262602
     14          1           0        0.961773   -2.981118   -1.061139
     15          1           0        0.082780   -1.552084   -1.369908
     16          1           0        7.465989   -1.942557   -1.998325
     17          1           0        7.028879   -0.458640   -1.477746
     18          1           0        7.439513   -1.612909   -0.400183
     19          7           0        3.488498    3.123826    1.392955
     20          6           0        2.191637    2.670571    1.365205
     21          6           0        3.908471    4.523266    1.178796
     22          7           0       -1.203007    3.289243    0.971013
     23          1           0       -2.055295    2.767335    0.992687
     24          1           0       -1.276268    4.270380    0.790112
     25          7           0        1.091973    3.421459    1.139450
     26          6           0       -0.014784    2.700753    1.175241
     27          7           0       -0.044526    1.348072    1.413719
     28          1           0       -0.936983    0.878599    1.422684
     29          6           0        1.074526    0.555337    1.648541
     30          8           0        0.938246   -0.657232    1.853149
     31          6           0        2.271040    1.315586    1.613212
     32          7           0        3.591192    0.926017    1.793051
     33          6           0        4.275685    2.028880    1.653853
     34          1           0        5.361093    2.100104    1.731966
     35          1           0        4.519494    4.572580    0.389480
     36          1           0        3.102263    5.088948    1.010586
     37          1           0        4.385541    4.857822    1.990767
     38          1           0       -5.617218   -0.972180    0.699693
     39          1           0       -5.679954   -0.932559    2.460133
     40          1           0       -4.726856    0.266474    1.585326
     41          1           0       -3.064831   -4.909875    1.761048
     42          6           0       -2.941040   -3.827049    1.741088
     43          8           0       -0.571970   -3.911674    1.827414
     44          6           0       -1.622360   -3.272312    1.775597
     45          1           0       -0.663712   -1.464204    1.769061
     46          7           0       -1.578211   -1.893030    1.746125
     47          8           0       -2.505725    0.178338    1.666454
     48          6           0       -2.645309   -1.031903    1.688724
     49          1           0       -5.024981   -3.384425    1.656868
     50          6           0       -4.001503   -3.012868    1.684974
     51          6           0       -5.053931   -0.762611    1.596831
     52          7           0       -3.883611   -1.642556    1.658337
     53          1           0       -4.636147    4.066149   -2.791243
     54          1           0       -3.380158    4.047651   -1.749983
     55          1           0       -4.909382    4.110390   -1.182893
     56          1           0       -2.582991   -2.931674   -1.419896
     57          1           0       -4.203933   -2.484253   -1.707039
     58          7           0       -3.255632   -2.203900   -1.554197
     59          6           0       -2.904710   -0.916478   -1.530714
     60          6           0       -3.297200    1.426661   -1.662686
     61          7           0       -2.016201    1.773752   -1.455343
     62          1           0       -0.200873    0.882309   -1.122857
     63          6           0       -1.258761    0.690220   -1.296731
     64          7           0       -1.608359   -0.600060   -1.319911
     65          1           0       -6.454686    1.854752   -2.209627
     66          6           0       -5.458982    1.448436   -2.029573
     67          7           0       -5.179353    0.170705   -1.946490
     68          6           0       -3.811901    0.142925   -1.714024
     69          6           0       -4.319289    3.740269   -1.900510
     70          7           0       -4.366901    2.265607   -1.867367
 ---------------------------------------------------------------------

 SCF Done:  E(RwB97XD) =  -2048.74530055     A.U. after   15 cycles

 The electronic state is 1-A.
 Alpha  occ. eigenvalues --  -19.25704 -19.21955 -19.20484 -14.52498 -14.52352
 Alpha  occ. eigenvalues --  -14.48678 -14.48500 -14.48202 -14.47725 -14.46766
 Alpha  occ. eigenvalues --  -14.46280 -14.45520 -14.44346 -14.44276 -14.42081
 Alpha  occ. eigenvalues --  -14.41854 -14.40859 -14.40703 -14.40445 -14.39907
 Alpha  occ. eigenvalues --  -10.45355 -10.41001 -10.40078 -10.40024 -10.38082
 Alpha  occ. eigenvalues --  -10.38044 -10.37885 -10.37206 -10.35684 -10.35092
 Alpha  occ. eigenvalues --  -10.34896 -10.34185 -10.34066 -10.33559 -10.33167
 Alpha  occ. eigenvalues --  -10.32834 -10.32699 -10.32658 -10.31197 -10.30877
 Alpha  occ. eigenvalues --  -10.30468 -10.28036 -10.27940  -1.19309  -1.15223
 Alpha  occ. eigenvalues --   -1.13059  -1.12960  -1.10789  -1.10463  -1.09381
 Alpha  occ. eigenvalues --   -1.09234  -1.08367  -1.04946  -1.04615  -1.02369
 Alpha  occ. eigenvalues --   -1.01052  -1.00075  -0.99484  -0.98407  -0.96927
 Alpha  occ. eigenvalues --   -0.96473  -0.96436  -0.92303  -0.91075  -0.87660
 Alpha  occ. eigenvalues --   -0.86005  -0.83966  -0.83444  -0.83429  -0.82403
 Alpha  occ. eigenvalues --   -0.81843  -0.78856  -0.77093  -0.74910  -0.74459
 Alpha  occ. eigenvalues --   -0.73467  -0.73245  -0.72507  -0.70642  -0.70483
 Alpha  occ. eigenvalues --   -0.67191  -0.66935  -0.66447  -0.65910  -0.64419
 Alpha  occ. eigenvalues --   -0.64324  -0.63674  -0.62584  -0.62330  -0.61539
 Alpha  occ. eigenvalues --   -0.60652  -0.60266  -0.60128  -0.59495  -0.59392
 Alpha  occ. eigenvalues --   -0.59364  -0.58129  -0.56605  -0.56211  -0.55873
 Alpha  occ. eigenvalues --   -0.55826  -0.55438  -0.55115  -0.54541  -0.54230
 Alpha  occ. eigenvalues --   -0.53920  -0.53556  -0.53379  -0.53118  -0.52853
 Alpha  occ. eigenvalues --   -0.52734  -0.52259  -0.51325  -0.50259  -0.50067
 Alpha  occ. eigenvalues --   -0.49902  -0.49688  -0.49466  -0.49191  -0.48730
 Alpha  occ. eigenvalues --   -0.48522  -0.48222  -0.48013  -0.47553  -0.47234
 Alpha  occ. eigenvalues --   -0.46484  -0.45655  -0.45209  -0.44373  -0.43847
 Alpha  occ. eigenvalues --   -0.40827  -0.40691  -0.39319  -0.37808  -0.37676
 Alpha  occ. eigenvalues --   -0.37144  -0.37032  -0.36671  -0.35725  -0.34933
 Alpha  occ. eigenvalues --   -0.34485  -0.33466  -0.33134  -0.33060  -0.32934
 Alpha  occ. eigenvalues --   -0.32547  -0.32270  -0.31986  -0.31737  -0.30466
 Alpha  occ. eigenvalues --   -0.30140  -0.30015  -0.25568  -0.25014
 Alpha virt. eigenvalues --    0.02778   0.04141   0.06970   0.08378   0.08553
 Alpha virt. eigenvalues --    0.09371   0.09899   0.10493   0.11484   0.11524
 Alpha virt. eigenvalues --    0.12333   0.14128   0.14666   0.14841   0.15196

 Mulliken charges:
               1
     1  N   -0.313302
     2  C    0.182089
     3  C    0.044972
     4  N   -0.259457
     5  C    0.136830
     6  H    0.025397
     7  N   -0.298090
     8  C    0.140389
     9  H    0.008609
    10  N   -0.288333
    11  C    0.258648
    12  C    0.114700
    13  N   -0.060504
    14  H    0.110964
    15  H    0.081851
    16  H    0.023012
    17  H    0.032099
    18  H    0.027362
    19  N   -0.311241
    20  C    0.246587
    21  C    0.180739
    22  N   -0.098367
    23  H    0.111355
    24  H    0.112945
    25  N   -0.308030
    26  C    0.227802
    27  N   -0.147929
    28  H    0.125215
    29  C    0.187319
    30  O   -0.322465
    31  C   -0.010281
    32  N   -0.224655
    33  C    0.131420
    34  H    0.022863
    35  H    0.028661
    36  H    0.028289
    37  H    0.024255
    38  H    0.058996
    39  H    0.059579
    40  H    0.073628
    41  H    0.030408
    42  C   -0.116157
    43  O   -0.262591
    44  C    0.169968
    45  H    0.132525
    46  N   -0.122869
    47  O   -0.342957
    48  C    0.338875
    49  H    0.045518
    50  C    0.161891
    51  C    0.040324
    52  N   -0.281621
    53  H    0.036034
    54  H    0.038309
    55  H    0.028370
    56  H    0.120605
    57  H    0.115590
    58  N   -0.060190
    59  C    0.085078
    60  C    0.245408
    61  N   -0.273033
    62  H    0.044784
    63  C    0.160589
    64  N   -0.304182
    65  H    0.037831
    66  C    0.138417
    67  N   -0.268063
    68  C    0.033955
    69  C    0.177540
    70  N   -0.314275
 Sum of Mulliken charges =  -0.00000

 Dipole moment (field-independent basis, Debye):
    X=             -9.0774    Y=              5.5177    Z=             -1.7118  Tot=             10.7599
 Quadrupole moment (field-independent basis, Debye-Ang):
   XX=           -162.0281   YY=           -212.1812   ZZ=           -253.3480
   XY=              5.0769   XZ=             -4.6326   YZ=              6.0090

 Normal termination of Gaussian 16 at Thu Jan 25 19:27:34 2018.
