 Gaussian 16, Revision A.03,
 Gaussian 16:  EM64L-G16RevA.03 25-Dec-2016

 ---------------------------------------
 #p wb97xd/cc-pvdz sp scf=(maxcycles=20)
 ---------------------------------------

 ------------------
 Base pair stacking
 ------------------
 Symbolic Z-matrix:
 Charge =  0 Multiplicity = 1

                         Standard orientation:
 ---------------------------------------------------------------------
 Center     Atomic      Atomic             Coordinates (Angstroms)
 Number     Number       Type             X           Y           Z
 ---------------------------------------------------------------------
      1          7           0       -6.389929   -1.650325    0.636891
      2          6           0       -7.777344   -1.190701    0.432369
      3          6           0       -4.214774   -1.705670    0.957721
      4          7           0       -4.631686   -3.027437    0.895853
      5          6           0       -5.925459   -2.941199    0.705041
      6          1           0       -6.595837   -3.795425    0.605911
      7          7           0       -2.879593    0.228567    1.155207
      8          6           0       -4.005597    0.930127    0.989311
      9          1           0       -3.885972    2.012546    1.007264
     10          7           0       -5.251319    0.497380    0.805442
     11          6           0       -5.287391   -0.845411    0.799739
     12          6           0       -2.949205   -1.120555    1.144561
     13          7           0       -1.826295   -1.822616    1.310001
     14          1           0       -1.830774   -2.823210    1.309053
     15          1           0       -0.942780   -1.372593    1.440449
     16          1           0       -8.356310   -1.534740    1.171700
     17          1           0       -7.801162   -0.191430    0.429128
     18          1           0       -8.118612   -1.533402   -0.442893
     19          7           0       -2.614747    2.955379   -1.646797
     20          6           0       -1.336608    2.492859   -1.445611
     21          6           0       -3.057940    4.350738   -1.453789
     22          7           0        1.966871    3.077053   -0.546989
     23          1           0        2.812091    2.550322   -0.460940
     24          1           0        2.015543    4.051960   -0.328143
     25          7           0       -0.279346    3.229466   -1.041064
     26          6           0        0.819244    2.502742   -0.938186
     27          7           0        0.879928    1.157441   -1.210202
     28          1           0        1.763189    0.682481   -1.104224
     29          6           0       -0.195318    0.379401   -1.627780
     30          8           0       -0.033782   -0.827549   -1.846716
     31          6           0       -1.382558    1.146274   -1.742899
     32          7           0       -2.663771    0.770953   -2.123074
     33          6           0       -3.358560    1.873814   -2.051275
     34          1           0       -4.421102    1.954551   -2.283152
     35          1           0       -3.776522    4.381026   -0.759875
     36          1           0       -2.283171    4.905865   -1.154067
     37          1           0       -3.411828    4.712081   -2.315769
     38          1           0        6.285321   -1.219883    0.231438
     39          1           0        6.601974   -1.129208   -1.499502
     40          1           0        5.535291    0.050076   -0.736053
     41          1           0        3.903792   -5.107712   -1.304672
     42          6           0        3.780994   -4.025126   -1.270431
     43          8           0        1.449088   -4.091369   -1.700483
     44          6           0        2.482487   -3.460827   -1.478415
     45          1           0        1.537266   -1.647319   -1.556334
     46          7           0        2.437821   -2.082723   -1.414400
     47          8           0        3.349014   -0.020815   -1.139707
     48          6           0        3.487468   -1.230791   -1.177761
     49          1           0        5.831922   -3.599083   -0.872938
     50          6           0        4.824146   -3.220038   -1.037431
     51          6           0        5.858144   -0.980405   -0.730973
     52          7           0        4.706917   -1.850336   -0.987138
     53          1           0        3.775022    4.356106    2.322177
     54          1           0        2.658515    4.144701    1.151349
     55          1           0        4.247684    4.072707    0.786046
     56          1           0        1.641101   -2.747810    2.107125
     57          1           0        3.229718   -2.272483    2.507687
     58          7           0        2.319274   -2.016525    2.180900
     59          6           0        2.023713   -0.755725    1.858090
     60          6           0        2.486445    1.560919    1.573942
     61          7           0        1.255473    1.875538    1.137893
     62          1           0       -0.537289    0.958655    0.755869
     63          6           0        0.482596    0.791975    1.099858
     64          7           0        0.776764   -0.471659    1.422758
     65          1           0        5.565482    2.049969    2.429835
     66          6           0        4.585039    1.628462    2.206204
     67          7           0        4.269041    0.363779    2.341855
     68          6           0        2.941070    0.307255    1.944296
     69          6           0        3.559139    3.861915    1.480062
     70          7           0        3.553814    2.410196    1.745567
 ---------------------------------------------------------------------

 SCF Done:  E(RwB97XD) =  -2048.65615887     A.U. after   15 cycles

 The electronic state is 1-A.
 Alpha  occ. eigenvalues --  -19.25935 -19.21955 -19.20732 -14.52448 -14.52438
 Alpha  occ. eigenvalues --  -14.48828 -14.48758 -14.47883 -14.47858 -14.46639
 Alpha  occ. eigenvalues --  -14.45510 -14.45242 -14.43577 -14.42438 -14.42404
 Alpha  occ. eigenvalues --  -14.42166 -14.41454 -14.40906 -14.40763 -14.40160
 Alpha  occ. eigenvalues --  -10.45515 -10.41117 -10.40083 -10.39356 -10.38241
 Alpha  occ. eigenvalues --  -10.37821 -10.37776 -10.36636 -10.35484 -10.35039
 Alpha  occ. eigenvalues --  -10.35030 -10.34416 -10.34326 -10.34114 -10.33367
 Alpha  occ. eigenvalues --  -10.33218 -10.33120 -10.32088 -10.31148 -10.30976
 Alpha  occ. eigenvalues --  -10.30929 -10.28555 -10.28143  -1.19495  -1.15236
 Alpha  occ. eigenvalues --   -1.13510  -1.12993  -1.11347  -1.10674  -1.09373
 Alpha  occ. eigenvalues --   -1.09281  -1.08461  -1.05009  -1.04326  -1.02494
 Alpha  occ. eigenvalues --   -1.01308  -1.00511  -0.99786  -0.98678  -0.97011
 Alpha  occ. eigenvalues --   -0.96665  -0.96258  -0.92674  -0.91057  -0.87546
 Alpha  occ. eigenvalues --   -0.86219  -0.84152  -0.83942  -0.83545  -0.82594
 Alpha  occ. eigenvalues --   -0.82326  -0.78894  -0.76930  -0.74893  -0.74718
 Alpha  occ. eigenvalues --   -0.73666  -0.73351  -0.72954  -0.71095  -0.70357
 Alpha  occ. eigenvalues --   -0.67629  -0.66760  -0.66498  -0.66369  -0.64512
 Alpha  occ. eigenvalues --   -0.64356  -0.63803  -0.62989  -0.62807  -0.62418
 Alpha  occ. eigenvalues --   -0.60558  -0.60441  -0.60279  -0.59662  -0.59522
 Alpha  occ. eigenvalues --   -0.59293  -0.58333  -0.57571  -0.56551  -0.56359
 Alpha  occ. eigenvalues --   -0.56105  -0.56023  -0.55495  -0.54773  -0.54278
 Alpha  occ. eigenvalues --   -0.54015  -0.53581  -0.53144  -0.53000  -0.52869
 Alpha  occ. eigenvalues --   -0.52338  -0.52166  -0.51767  -0.50770  -0.50233
 Alpha  occ. eigenvalues --   -0.50194  -0.49460  -0.49411  -0.48896  -0.48821
 Alpha  occ. eigenvalues --   -0.48759  -0.48556  -0.48294  -0.48161  -0.47427
 Alpha  occ. eigenvalues --   -0.46945  -0.46287  -0.45072  -0.43941  -0.43176
 Alpha  occ. eigenvalues --   -0.41200  -0.40309  -0.39500  -0.37944  -0.37458
 Alpha  occ. eigenvalues --   -0.37310  -0.37214  -0.36644  -0.35902  -0.34778
 Alpha  occ. eigenvalues --   -0.34317  -0.33608  -0.33497  -0.33143  -0.32683
 Alpha  occ. eigenvalues --   -0.32483  -0.31968  -0.31868  -0.30797  -0.30689
 Alpha  occ. eigenvalues --   -0.30190  -0.28590  -0.26004  -0.25217
 Alpha virt. eigenvalues --    0.03070   0.04189   0.07507   0.07958   0.08460
 Alpha virt. eigenvalues --    0.09084   0.09259   0.10868   0.11463   0.12049
 Alpha virt. eigenvalues --    0.12586   0.13893   0.14187   0.14628   0.14898

 Mulliken charges:
               1
     1  N   -0.312521
     2  C    0.181394
     3  C    0.036289
     4  N   -0.260863
     5  C    0.134879
     6  H    0.026589
     7  N   -0.290876
     8  C    0.145079
     9  H    0.004877
    10  N   -0.291825
    11  C    0.250114
    12  C    0.124028
    13  N   -0.059466
    14  H    0.107620
    15  H    0.086065
    16  H    0.024763
    17  H    0.033407
    18  H    0.027188
    19  N   -0.308720
    20  C    0.234844
    21  C    0.181287
    22  N   -0.087573
    23  H    0.114347
    24  H    0.104528
    25  N   -0.279824
    26  C    0.200706
    27  N   -0.112629
    28  H    0.118056
    29  C    0.138556
    30  O   -0.315102
    31  C    0.026516
    32  N   -0.221003
    33  C    0.120604
    34  H    0.028012
    35  H    0.027740
    36  H    0.027796
    37  H    0.025138
    38  H    0.062448
    39  H    0.057540
    40  H    0.074477
    41  H    0.031732
    42  C   -0.111958
    43  O   -0.262735
    44  C    0.174878
    45  H    0.133119
    46  N   -0.132752
    47  O   -0.346284
    48  C    0.355531
    49  H    0.047567
    50  C    0.167464
    51  C    0.042664
    52  N   -0.293562
    53  H    0.037576
    54  H    0.036763
    55  H    0.025352
    56  H    0.121640
    57  H    0.115139
    58  N   -0.069623
    59  C    0.086300
    60  C    0.220245
    61  N   -0.283322
    62  H    0.049860
    63  C    0.174810
    64  N   -0.301770
    65  H    0.034173
    66  C    0.134544
    67  N   -0.264494
    68  C    0.048848
    69  C    0.163829
    70  N   -0.320020
 Sum of Mulliken charges =  -0.00000

 Dipole moment (field-independent basis, Debye):
    X=              8.2687    Y=              5.1038    Z=              3.1638  Tot=             10.2191
 Quadrupole moment (field-independent basis, Debye-Ang):
   XX=           -156.1771   YY=           -215.4159   ZZ=           -255.0217
   XY=             -2.9986   XZ=              5.5926   YZ=            -11.0984

 Normal termination of Gaussian 16 at Fri Jan 26 04:32:20 2018.
